 Gaussian 16, Revision A.03,
 Gaussian 16:  ES64L-G16RevA.03 25-Dec-2016

 --------------------------------------------------------
 #p PBE1PBE/Def2SVP td=(nstates=5) density=(transition=1)
 --------------------------------------------------------

 --------------------------------
 TDDFT excited states in gaussian
 --------------------------------
 Symbolic Z-matrix:
 Charge =  0 Multiplicity = 1

                         Standard orientation:
 ---------------------------------------------------------------------
 Center     Atomic      Atomic             Coordinates (Angstroms)
 Number     Number       Type             X           Y           Z
 ---------------------------------------------------------------------
      1         12           0       11.686406    0.287622    0.309789
      2          6           0        9.573408   -2.376023    0.641603
      3          6           0       14.260945   -2.046941   -0.454530
      4          6           0       13.702965    2.894337   -0.414395
      5          6           0        8.931793    2.414857    0.154501
      6          7           0       11.781583   -2.036152   -0.257523
      7          6           0       10.826951   -2.890317    0.207017
      8          6           0       11.245946   -4.311370   -0.049887
      9          6           0       12.783401   -4.205204   -0.442959
     10          6           0       13.026051   -2.663800   -0.384786
     11          6           0       13.686683   -5.232678    0.134882
     12          6           0       10.367082   -5.239688   -1.014877
     13          6           0        9.639036   -4.589428   -2.153771
     14          1           0        9.782189   -5.234997   -3.524916
     15          7           0       13.744393    0.394158   -0.105896
     16          6           0       14.611118   -0.625843   -0.349085
     17          6           0       15.930542   -0.153013   -0.647706
     18          6           0       15.809621    1.326472   -0.521975
     19          6           0       14.368877    1.601099   -0.329421
     20          6           0       17.125234   -0.923947   -0.951593
     21          6           0       16.904838    2.381702   -0.579809
     22          8           0       18.003234    2.089482   -0.895774
     23          6           0       16.734295    3.859913   -0.363872
     24          7           0       11.348568    2.294805   -0.195167
     25          6           0       12.361563    3.172084   -0.262797
     26          6           0       11.820774    4.638644   -0.679617
     27          6           0       10.324823    4.507059   -0.110169
     28          6           0       10.193158    3.002656   -0.105957
     29          6           0       12.593998    5.825164   -0.097397
     30          6           0        9.303209    5.324528   -0.921148
     31          6           0        8.285872    6.229519   -0.216271
     32          7           0        9.644319    0.071460    0.271515
     33          6           0        8.617071    1.006605    0.248240
     34          6           0        7.361014    0.404282    0.474320
     35          6           0        7.647290   -0.932791    0.695327
     36          6           0        9.070483   -1.106565    0.562520
     37          6           0        6.022279    1.071079    0.549515
     38          6           0        7.188961   -2.214071    1.039036
     39          8           0        6.027749   -2.554662    1.255514
     40          6           0        8.348939   -3.233675    0.855414
     41          6           0        8.337397   -4.008158    2.165128
     42          8           0        8.297134   -5.254426    2.242377
     43          8           0        8.522750   -3.101432    3.182025
     44          6           0        8.809270   -3.526550    4.574023
     45          1           0       14.969253   -2.801969   -0.801752
     46          1           0       14.311072    3.693428   -0.843199
     47          1           0        8.080956    3.098508    0.175330
     48          1           0       11.132359   -4.875210    0.876733
     49          1           0       12.827444   -4.377924   -1.517899
     50          1           0       14.588209   -4.815191    0.583117
     51          1           0       13.894119   -6.041091   -0.566234
     52          1           0       13.191900   -5.710441    0.980531
     53          1           0        9.563747   -5.778138   -0.511927
     54          1           0       11.022939   -5.928023   -1.548848
     55          1           0        9.730842   -3.504585   -2.194770
     56          1           0        8.577030   -4.781071   -1.996917
     57          1           0       17.068124   -1.877621   -0.427789
     58          1           0       18.056390   -0.427719   -0.680691
     59          1           0       17.119144   -1.096512   -2.028434
     60          1           0       15.924473    3.757448    0.358872
     61          1           0       16.396994    4.383772   -1.257699
     62          1           0       17.588973    4.407403    0.033811
     63          1           0       11.770296    4.633917   -1.768861
     64          1           0       10.136017    4.774883    0.929117
     65          1           0       11.972146    6.250505    0.690785
     66          1           0       12.953626    6.472505   -0.896692
     67          1           0       13.522646    5.532819    0.391850
     68          1           0        8.744022    4.608932   -1.524510
     69          1           0        9.853028    5.891093   -1.672833
     70          1           0        8.172874    7.256973   -0.562537
     71          1           0        8.384839    6.215790    0.869930
     72          1           0        7.367418    5.652864   -0.321122
     73          1           0        5.326871    0.619480    1.257433
     74          1           0        5.571396    1.049895   -0.442903
     75          1           0        6.075312    2.107726    0.884720
     76          1           0        8.019718   -3.817513   -0.003285
     77          1           0        9.539072   -2.884140    5.066461
     78          1           0        9.193815   -4.546136    4.543514
     79          1           0        8.010848   -3.588205    5.312440
     80         12           0      -10.896904    0.780829    0.309981
     81          6           0      -12.489267   -2.383098   -0.238067
     82          6           0       -8.027079   -0.586115   -1.243930
     83          6           0       -9.642244    3.885824    0.097561
     84          6           0      -13.977312    2.080860    1.166943
     85          7           0      -10.293582   -1.267970   -0.637735
     86          6           0      -11.161383   -2.319530   -0.734277
     87          6           0      -10.581544   -3.375691   -1.661724
     88          6           0       -9.081335   -2.862237   -1.695277
     89          6           0       -9.066159   -1.475744   -1.174295
     90          6           0       -8.013353   -3.717785   -0.934556
     91          6           0      -11.404337   -3.435684   -2.988582
     92          6           0      -11.819036   -4.838092   -3.596902
     93          1           0      -11.304191   -5.248239   -4.988334
     94          7           0       -9.095720    1.526220   -0.257868
     95          6           0       -8.020255    0.824082   -0.863141
     96          6           0       -6.896474    1.713868   -1.090192
     97          6           0       -7.390905    3.024033   -0.698314
     98          6           0       -8.758521    2.825557   -0.256307
     99          6           0       -5.661287    1.252160   -1.743876
    100          6           0       -6.524283    4.293903   -0.759548
    101          8           0       -5.374491    4.162666   -1.272015
    102          6           0       -6.942635    5.689955   -0.251307
    103          7           0      -11.724388    2.811167    0.328455
    104          6           0      -10.983176    3.900394    0.395646
    105          6           0      -11.884314    5.076283    0.593317
    106          6           0      -13.246495    4.447423    0.990963
    107          6           0      -13.011064    2.990624    0.734664
    108          6           0      -11.459481    6.244190    1.582657
    109          6           0      -14.529170    5.016678    0.191196
    110          6           0      -15.614704    5.783356    0.985720
    111          7           0      -12.765655    0.032794    0.636392
    112          6           0      -13.905869    0.657649    0.975590
    113          6           0      -14.987445   -0.251950    1.079068
    114          6           0      -14.450901   -1.468676    0.651568
    115          6           0      -13.084847   -1.246505    0.343674
    116          6           0      -16.381725   -0.054039    1.520730
    117          6           0      -14.844692   -2.820151    0.397577
    118          8           0      -15.947417   -3.312386    0.482722
    119          6           0      -13.495596   -3.504672   -0.279382
    120          6           0      -13.056105   -4.646979    0.530701
    121          8           0      -12.994378   -4.671206    1.766469
    122          8           0      -12.707591   -5.646410   -0.352586
    123          6           0      -12.237145   -6.898940    0.236609
    124          1           0       -7.110741   -0.949875   -1.711307
    125          1           0       -9.325489    4.920301   -0.048284
    126          1           0      -14.907181    2.391062    1.648547
    127          1           0      -10.560202   -4.303912   -1.090136
    128          1           0       -8.974355   -2.792971   -2.778439
    129          1           0       -7.527742   -3.061365   -0.211062
    130          1           0       -7.221501   -4.112577   -1.570734
    131          1           0       -8.407511   -4.536456   -0.331688
    132          1           0      -10.698199   -2.939346   -3.653881
    133          1           0      -12.310607   -2.831067   -3.015204
    134          1           0      -12.908800   -4.830442   -3.585953
    135          1           0      -11.615182   -5.603176   -2.848391
    136          1           0       -5.969307    0.768434   -2.671123
    137          1           0       -5.192046    0.472906   -1.143671
    138          1           0       -4.853299    1.972305   -1.875526
    139          1           0       -7.690240    6.086734   -0.938349
    140          1           0       -5.998209    6.178243   -0.013281
    141          1           0       -7.412404    5.463193    0.706364
    142          1           0      -11.952574    5.579050   -0.370599
    143          1           0      -13.227736    4.549001    2.076131
    144          1           0      -11.946802    7.130704    1.176038
    145          1           0      -10.371645    6.310504    1.591270
    146          1           0      -11.882602    5.992677    2.555341
    147          1           0      -14.946602    4.129134   -0.284036
    148          1           0      -14.155050    5.595949   -0.652849
    149          1           0      -16.622076    5.425261    0.777652
    150          1           0      -15.540163    6.842993    0.739925
    151          1           0      -15.456732    5.773971    2.064333
    152          1           0      -16.857257   -0.996216    1.791410
    153          1           0      -16.767374    0.365798    0.591511
    154          1           0      -16.407128    0.821391    2.169512
    155          1           0      -13.644758   -3.709089   -1.338997
    156          1           0      -12.928177   -7.274667    0.991540
    157          1           0      -11.243849   -6.754800    0.664230
    158          1           0      -12.177423   -7.652026   -0.549174
 ---------------------------------------------------------------------

 SCF Done:  E(RPBE1PBE) =  -4067.30885393     A.U. after   16 cycles

 Excitation energies and oscillator strengths:

 Excited State   1:      Singlet-A      1.7077 eV  726.02 nm  f=0.0000  <S**2>=0.000
     312 -> 313        0.70708
 This state for optimization and/or second-order correction.
 Total Energy, E(TD-HF/TD-DFT) =  -4067.24609625
 Copying the excited state density for this state as the 1-particle RhoCI density.

 Excited State   2:      Singlet-A      1.7940 eV  691.11 nm  f=0.4337  <S**2>=0.000
     309 -> 315       -0.16503
     311 -> 313        0.69414
     311 <- 313       -0.11725

 Excited State   3:      Singlet-A      1.8634 eV  665.37 nm  f=0.3346  <S**2>=0.000
     310 -> 316       -0.17985
     312 -> 314        0.69071
     312 <- 314       -0.10894

 Excited State   4:      Singlet-A      2.0197 eV  613.88 nm  f=0.0000  <S**2>=0.000
     311 -> 314        0.70708

 Excited State   5:      Singlet-A      2.1561 eV  575.04 nm  f=0.1270  <S**2>=0.000
     309 -> 313        0.65394
     311 -> 315        0.23187

 The electronic state is 1-A.
 Alpha  occ. eigenvalues --  -46.93309 -46.92237 -19.26788 -19.26738 -19.20653
 Alpha  occ. eigenvalues --  -19.20476 -19.19912 -19.18474 -19.18390 -19.17582
 Alpha  occ. eigenvalues --  -14.42071 -14.41467 -14.41330 -14.40916 -14.39789
 Alpha  occ. eigenvalues --  -14.39550 -14.39394 -14.39178 -10.37408 -10.36961
 Alpha  occ. eigenvalues --  -10.32527 -10.32444 -10.31212 -10.30877 -10.29914
 Alpha  occ. eigenvalues --  -10.29619 -10.29541 -10.29155 -10.28868 -10.28853
 Alpha  occ. eigenvalues --  -10.28736 -10.28611 -10.28446 -10.28231 -10.28189
 Alpha  occ. eigenvalues --  -10.28136 -10.28058 -10.28001 -10.27969 -10.27383
 Alpha  occ. eigenvalues --  -10.26820 -10.26720 -10.26701 -10.26407 -10.26265
 Alpha  occ. eigenvalues --  -10.26236 -10.26204 -10.26190 -10.26065 -10.25923
 Alpha  occ. eigenvalues --  -10.25857 -10.25779 -10.25742 -10.25737 -10.25530
 Alpha  occ. eigenvalues --  -10.25390 -10.25373 -10.25360 -10.25326 -10.25210
 Alpha  occ. eigenvalues --  -10.25140 -10.25094 -10.25031 -10.25011 -10.24967
 Alpha  occ. eigenvalues --  -10.24872 -10.24861 -10.24753 -10.24709 -10.24330
 Alpha  occ. eigenvalues --  -10.24283 -10.24273 -10.24110 -10.23990 -10.23967
 Alpha  occ. eigenvalues --  -10.23792 -10.23787 -10.23652 -10.23564 -10.23533
 Alpha  occ. eigenvalues --  -10.23494 -10.22932 -10.22672 -10.22588 -10.22457
 Alpha  occ. eigenvalues --  -10.22234  -3.15361  -3.14370  -1.88157  -1.87771
 Alpha  occ. eigenvalues --   -1.87558  -1.87199  -1.86732  -1.86611  -1.11172
 Alpha  occ. eigenvalues --   -1.10297  -1.06348  -1.05522  -1.03868  -1.02838
 Alpha  occ. eigenvalues --   -1.01954  -1.01953  -1.00064  -0.99708  -0.99354
 Alpha  occ. eigenvalues --   -0.98895  -0.98273  -0.97592  -0.96979  -0.96873
 Alpha  occ. eigenvalues --   -0.87897  -0.87426  -0.84055  -0.83625  -0.82971
 Alpha  occ. eigenvalues --   -0.82702  -0.82561  -0.82361  -0.82230  -0.82133
 Alpha  occ. eigenvalues --   -0.81759  -0.81535  -0.80322  -0.80283  -0.78885
 Alpha  occ. eigenvalues --   -0.78833  -0.78176  -0.78062  -0.77344  -0.76933
 Alpha  occ. eigenvalues --   -0.76387  -0.76157  -0.75649  -0.75277  -0.74831
 Alpha  occ. eigenvalues --   -0.74742  -0.72744  -0.72534  -0.72076  -0.71905
 Alpha  occ. eigenvalues --   -0.71355  -0.71127  -0.70917  -0.70520  -0.69832
 Alpha  occ. eigenvalues --   -0.69649  -0.68022  -0.67614  -0.66606  -0.66175
 Alpha  occ. eigenvalues --   -0.64310  -0.64129  -0.63790  -0.63787  -0.62782
 Alpha  occ. eigenvalues --   -0.62689  -0.61164  -0.61134  -0.60612  -0.60549
 Alpha  occ. eigenvalues --   -0.60088  -0.60058  -0.59595  -0.59237  -0.59202
 Alpha  occ. eigenvalues --   -0.58804  -0.58074  -0.57434  -0.54801  -0.54667
 Alpha  occ. eigenvalues --   -0.54501  -0.53998  -0.53964  -0.53477  -0.53411
 Alpha  occ. eigenvalues --   -0.52857  -0.52581  -0.52176  -0.51952  -0.51806
 Alpha  occ. eigenvalues --   -0.51101  -0.50723  -0.50364  -0.50328  -0.50094
 Alpha  occ. eigenvalues --   -0.49838  -0.49621  -0.49390  -0.49060  -0.48935
 Alpha  occ. eigenvalues --   -0.48470  -0.48246  -0.47920  -0.47916  -0.47676
 Alpha  occ. eigenvalues --   -0.47505  -0.47067  -0.47031  -0.46548  -0.46442
 Alpha  occ. eigenvalues --   -0.46354  -0.46343  -0.46287  -0.45966  -0.45871
 Alpha  occ. eigenvalues --   -0.45829  -0.45619  -0.45323  -0.45138  -0.45111
 Alpha  occ. eigenvalues --   -0.44919  -0.44594  -0.44522  -0.44463  -0.44283
 Alpha  occ. eigenvalues --   -0.44166  -0.44103  -0.43976  -0.43799  -0.43602
 Alpha  occ. eigenvalues --   -0.43436  -0.43111  -0.42904  -0.42498  -0.42448
 Alpha  occ. eigenvalues --   -0.42395  -0.42303  -0.42281  -0.42279  -0.42109
 Alpha  occ. eigenvalues --   -0.41969  -0.41885  -0.41790  -0.41706  -0.41637
 Alpha  occ. eigenvalues --   -0.41315  -0.41137  -0.41066  -0.40888  -0.40735
 Alpha  occ. eigenvalues --   -0.40636  -0.40317  -0.40245  -0.40108  -0.40080
 Alpha  occ. eigenvalues --   -0.39994  -0.39734  -0.39723  -0.39521  -0.39237
 Alpha  occ. eigenvalues --   -0.38932  -0.38748  -0.38512  -0.38379  -0.38300
 Alpha  occ. eigenvalues --   -0.38289  -0.38057  -0.37915  -0.37873  -0.37701
 Alpha  occ. eigenvalues --   -0.37591  -0.37471  -0.37411  -0.37192  -0.37067
 Alpha  occ. eigenvalues --   -0.36863  -0.36733  -0.36506  -0.36387  -0.36364
 Alpha  occ. eigenvalues --   -0.36150  -0.36082  -0.35870  -0.35640  -0.35430
 Alpha  occ. eigenvalues --   -0.35223  -0.35135  -0.35097  -0.33904  -0.33882
 Alpha  occ. eigenvalues --   -0.33700  -0.33634  -0.33165  -0.33010  -0.32579
 Alpha  occ. eigenvalues --   -0.32514  -0.32291  -0.31800  -0.31462  -0.31115
 Alpha  occ. eigenvalues --   -0.30812  -0.30627  -0.29858  -0.29772  -0.29218
 Alpha  occ. eigenvalues --   -0.28941  -0.28584  -0.28547  -0.27114  -0.26941
 Alpha  occ. eigenvalues --   -0.26285  -0.26062  -0.25663  -0.25231  -0.25162
 Alpha  occ. eigenvalues --   -0.24905  -0.24862  -0.23707  -0.21369  -0.21095
 Alpha  occ. eigenvalues --   -0.19314  -0.18893
 Alpha virt. eigenvalues --   -0.12011  -0.11300  -0.05440  -0.05172  -0.03879
 Alpha virt. eigenvalues --   -0.03846  -0.01995  -0.01850  -0.01750  -0.00493
 Alpha virt. eigenvalues --   -0.00132  -0.00018   0.00653   0.00961   0.01844

 Mulliken charges:
               1
     1  Mg  12.000000
     2  C    6.000000
     3  C    6.000000
     4  C    6.000000
     5  C    6.000000
     6  N    7.000000
     7  C    6.000000
     8  C    6.000000
     9  C    6.000000
    10  C    6.000000
    11  C    6.000000
    12  C    6.000000
    13  C    6.000000
    14  H    1.000000
    15  N    7.000000
    16  C    6.000000
    17  C    6.000000
    18  C    6.000000
    19  C    6.000000
    20  C    6.000000
    21  C    6.000000
    22  O    8.000000
    23  C    6.000000
    24  N    7.000000
    25  C    6.000000
    26  C    6.000000
    27  C    6.000000
    28  C    6.000000
    29  C    6.000000
    30  C    6.000000
    31  C    6.000000
    32  N    7.000000
    33  C    6.000000
    34  C    6.000000
    35  C    6.000000
    36  C    6.000000
    37  C    6.000000
    38  C    6.000000
    39  O    8.000000
    40  C    6.000000
    41  C    6.000000
    42  O    8.000000
    43  O    8.000000
    44  C    6.000000
    45  H    1.000000
    46  H    1.000000
    47  H    1.000000
    48  H    1.000000
    49  H    1.000000
    50  H    1.000000
    51  H    1.000000
    52  H    1.000000
    53  H    1.000000
    54  H    1.000000
    55  H    1.000000
    56  H    1.000000
    57  H    1.000000
    58  H    1.000000
    59  H    1.000000
    60  H    1.000000
    61  H    1.000000
    62  H    1.000000
    63  H    1.000000
    64  H    1.000000
    65  H    1.000000
    66  H    1.000000
    67  H    1.000000
    68  H    1.000000
    69  H    1.000000
    70  H    1.000000
    71  H    1.000000
    72  H    1.000000
    73  H    1.000000
    74  H    1.000000
    75  H    1.000000
    76  H    1.000000
    77  H    1.000000
    78  H    1.000000
    79  H    1.000000
    80  Mg  12.000000
    81  C    6.000000
    82  C    6.000000
    83  C    6.000000
    84  C    6.000000
    85  N    7.000000
    86  C    6.000000
    87  C    6.000000
    88  C    6.000000
    89  C    6.000000
    90  C    6.000000
    91  C    6.000000
    92  C    6.000000
    93  H    1.000000
    94  N    7.000000
    95  C    6.000000
    96  C    6.000000
    97  C    6.000000
    98  C    6.000000
    99  C    6.000000
   100  C    6.000000
   101  O    8.000000
   102  C    6.000000
   103  N    7.000000
   104  C    6.000000
   105  C    6.000000
   106  C    6.000000
   107  C    6.000000
   108  C    6.000000
   109  C    6.000000
   110  C    6.000000
   111  N    7.000000
   112  C    6.000000
   113  C    6.000000
   114  C    6.000000
   115  C    6.000000
   116  C    6.000000
   117  C    6.000000
   118  O    8.000000
   119  C    6.000000
   120  C    6.000000
   121  O    8.000000
   122  O    8.000000
   123  C    6.000000
   124  H    1.000000
   125  H    1.000000
   126  H    1.000000
   127  H    1.000000
   128  H    1.000000
   129  H    1.000000
   130  H    1.000000
   131  H    1.000000
   132  H    1.000000
   133  H    1.000000
   134  H    1.000000
   135  H    1.000000
   136  H    1.000000
   137  H    1.000000
   138  H    1.000000
   139  H    1.000000
   140  H    1.000000
   141  H    1.000000
   142  H    1.000000
   143  H    1.000000
   144  H    1.000000
   145  H    1.000000
   146  H    1.000000
   147  H    1.000000
   148  H    1.000000
   149  H    1.000000
   150  H    1.000000
   151  H    1.000000
   152  H    1.000000
   153  H    1.000000
   154  H    1.000000
   155  H    1.000000
   156  H    1.000000
   157  H    1.000000
   158  H    1.000000
 Sum of Mulliken charges = 624.00000

 Dipole moment (field-independent basis, Debye):
    X=              0.0000    Y=              0.0000    Z=             -0.0000  Tot=              0.0000
 Quadrupole moment (field-independent basis, Debye-Ang):
   XX=             -0.0000   YY=             -0.0000   ZZ=             -0.0000
   XY=             -0.0000   XZ=             -0.0000   YZ=             -0.0000

 Normal termination of Gaussian 16 at Thu Oct 14 05:01:55 2021.
