 Gaussian 16, Revision A.03,
 Gaussian 16:  ES64L-G16RevA.03 25-Dec-2016

 --------------------------------------------------------
 #p PBE1PBE/Def2SVP td=(nstates=5) density=(transition=1)
 --------------------------------------------------------

 --------------------------------
 TDDFT excited states in gaussian
 --------------------------------
 Symbolic Z-matrix:
 Charge =  0 Multiplicity = 1

                         Standard orientation:
 ---------------------------------------------------------------------
 Center     Atomic      Atomic             Coordinates (Angstroms)
 Number     Number       Type             X           Y           Z
 ---------------------------------------------------------------------
      1         12           0       27.834281   -0.624221    0.197320
      2          6           0       25.666263    1.747042    1.414128
      3          6           0       29.596413    1.988446   -1.454494
      4          6           0       29.715845   -2.859788   -1.503158
      5          6           0       25.979067   -3.106958    1.479832
      6          7           0       27.638600    1.620985    0.005208
      7          6           0       26.639503    2.340356    0.604100
      8          6           0       26.836204    3.842194    0.385619
      9          6           0       28.000771    3.832972   -0.708940
     10          6           0       28.446534    2.400177   -0.732507
     11          6           0       27.580455    4.429726   -2.102109
     12          6           0       27.251021    4.633781    1.708909
     13          6           0       26.648946    5.966879    2.082734
     14          1           0       26.550740    7.017930    1.034781
     15          7           0       29.491745   -0.488213   -1.255365
     16          6           0       30.153260    0.625098   -1.640894
     17          6           0       31.326724    0.303754   -2.381955
     18          6           0       31.411820   -1.124306   -2.388812
     19          6           0       30.125976   -1.536304   -1.750690
     20          6           0       32.125308    1.418231   -2.977120
     21          6           0       32.422795   -2.013766   -3.092176
     22          8           0       32.236492   -3.223067   -3.259399
     23          6           0       33.710643   -1.423791   -3.639540
     24          7           0       27.761240   -2.729130   -0.118925
     25          6           0       28.735527   -3.423945   -0.763142
     26          6           0       28.557504   -4.926394   -0.551047
     27          6           0       27.445807   -4.974189    0.565028
     28          6           0       27.033382   -3.518691    0.662953
     29          6           0       28.314382   -5.888533   -1.751203
     30          6           0       27.845810   -5.650367    1.942413
     31          6           0       28.382499   -4.810241    3.081930
     32          7           0       26.130136   -0.716894    1.140637
     33          6           0       25.504902   -1.768569    1.761072
     34          6           0       24.307520   -1.400467    2.424399
     35          6           0       24.346105   -0.011054    2.361836
     36          6           0       25.481721    0.352788    1.593341
     37          6           0       23.242825   -2.193117    3.171441
     38          6           0       23.695601    1.175907    2.708392
     39          8           0       22.641804    1.310843    3.302576
     40          6           0       24.502921    2.450381    2.089778
     41          6           0       23.601876    3.153037    1.184658
     42          8           0       23.134360    2.700876    0.120721
     43          8           0       23.244877    4.387718    1.627339
     44          6           0       22.112615    5.069087    0.989785
     45          1           0       30.102761    2.875556   -1.839668
     46          1           0       30.467693   -3.593203   -1.801266
     47          1           0       25.578514   -3.825727    2.196712
     48          1           0       25.882191    4.271881    0.077463
     49          1           0       28.831136    4.473446   -0.411160
     50          1           0       28.236179    5.274435   -2.310480
     51          1           0       26.518068    4.649671   -1.995532
     52          1           0       27.769554    3.785664   -2.961439
     53          1           0       28.321474    4.762817    1.548004
     54          1           0       27.272807    3.968092    2.571098
     55          1           0       27.124360    6.350037    2.985631
     56          1           0       25.601340    5.759197    2.297646
     57          1           0       33.161045    1.169520   -2.748729
     58          1           0       31.916282    2.359309   -2.467810
     59          1           0       32.005288    1.579866   -4.048910
     60          1           0       34.187552   -0.704028   -2.973601
     61          1           0       33.561864   -1.118266   -4.676121
     62          1           0       34.395859   -2.271358   -3.673077
     63          1           0       29.546056   -5.243835   -0.218547
     64          1           0       26.616262   -5.631031    0.305983
     65          1           0       27.289735   -6.259687   -1.735841
     66          1           0       28.995254   -6.727731   -1.609846
     67          1           0       28.539110   -5.306734   -2.644456
     68          1           0       28.598062   -6.402271    1.707866
     69          1           0       26.982564   -6.166752    2.362846
     70          1           0       29.323623   -5.203111    3.467412
     71          1           0       27.688457   -4.713639    3.917898
     72          1           0       28.538010   -3.822495    2.647986
     73          1           0       23.528653   -3.245550    3.187503
     74          1           0       22.280565   -2.051726    2.678694
     75          1           0       23.177532   -1.808942    4.189015
     76          1           0       24.638952    3.045303    2.993384
     77          1           0       21.634023    5.819480    1.619190
     78          1           0       21.377555    4.418210    0.517295
     79          1           0       22.564739    5.707246    0.230391
     80         12           0      -27.758989   -0.669727   -0.031688
     81          6           0      -26.064645    2.338314   -1.156352
     82          6           0      -28.579285    1.104147    2.715197
     83          6           0      -29.191740   -3.344777    0.965366
     84          6           0      -26.468689   -2.361242   -2.862019
     85          7           0      -27.351095    1.595915    0.678266
     86          6           0      -26.743268    2.597162    0.018793
     87          6           0      -26.930424    3.925339    0.776746
     88          6           0      -27.333984    3.299017    2.192158
     89          6           0      -27.834519    1.960002    1.845653
     90          6           0      -26.370174    3.463676    3.355311
     91          6           0      -28.005823    4.757773    0.057380
     92          6           0      -27.851484    6.287682    0.302723
     93          1           0      -26.550758    6.940537    0.963635
     94          7           0      -28.821192   -1.091617    1.629761
     95          6           0      -28.997633   -0.265358    2.723061
     96          6           0      -29.725410   -1.017191    3.740862
     97          6           0      -29.981486   -2.305468    3.209848
     98          6           0      -29.309247   -2.275697    1.879997
     99          6           0      -30.091045   -0.486724    5.055345
    100          6           0      -30.822625   -3.538821    3.832253
    101          8           0      -31.094244   -4.507735    3.177402
    102          6           0      -31.568242   -3.408554    5.172526
    103          7           0      -27.579238   -2.649201   -0.722893
    104          6           0      -28.417942   -3.540826   -0.201289
    105          6           0      -28.455258   -4.858346   -0.927940
    106          6           0      -27.924681   -4.391080   -2.305340
    107          6           0      -27.142264   -3.103651   -1.872313
    108          6           0      -27.523366   -5.989816   -0.288038
    109          6           0      -29.016163   -4.154123   -3.431745
    110          6           0      -30.335344   -4.980051   -3.420445
    111          7           0      -26.451306   -0.208839   -1.609801
    112          6           0      -26.062071   -0.920460   -2.696468
    113          6           0      -25.372447   -0.131719   -3.613754
    114          6           0      -25.320402    1.096948   -3.019837
    115          6           0      -25.993520    1.052946   -1.814916
    116          6           0      -24.875570   -0.576076   -4.986715
    117          6           0      -24.824316    2.459003   -3.267709
    118          8           0      -24.060478    2.930427   -4.096775
    119          6           0      -25.390816    3.320099   -2.055806
    120          6           0      -24.273025    4.043854   -1.475892
    121          8           0      -23.410012    3.593408   -0.715747
    122          8           0      -24.193688    5.225355   -2.122876
    123          6           0      -22.916781    5.886085   -1.920322
    124          1           0      -28.682405    1.621549    3.671371
    125          1           0      -29.658685   -4.250473    1.356542
    126          1           0      -26.175474   -2.900820   -3.764776
    127          1           0      -25.982659    4.445944    0.914482
    128          1           0      -28.201676    3.866793    2.525292
    129          1           0      -26.770737    4.115927    4.130749
    130          1           0      -25.423373    3.873858    3.004507
    131          1           0      -26.071109    2.524827    3.821437
    132          1           0      -28.964735    4.507667    0.511839
    133          1           0      -28.101917    4.536745   -1.005481
    134          1           0      -28.728410    6.707733    0.796373
    135          1           0      -28.059392    6.690532   -0.688434
    136          1           0      -30.147863    0.601579    5.050780
    137          1           0      -29.310008   -0.839038    5.729327
    138          1           0      -31.061354   -0.826627    5.418040
    139          1           0      -32.388671   -2.691247    5.152230
    140          1           0      -30.779192   -3.245921    5.907054
    141          1           0      -31.960442   -4.380559    5.472812
    142          1           0      -29.505667   -5.140197   -0.859141
    143          1           0      -27.203940   -5.081751   -2.742388
    144          1           0      -28.193675   -6.849036   -0.290085
    145          1           0      -27.203320   -5.785367    0.734266
    146          1           0      -26.639520   -6.258384   -0.865388
    147          1           0      -28.536096   -4.249023   -4.404687
    148          1           0      -29.339424   -3.143134   -3.183103
    149          1           0      -31.080800   -4.496167   -2.789838
    150          1           0      -30.004843   -5.972933   -3.113404
    151          1           0      -30.743318   -5.118615   -4.421075
    152          1           0      -25.576826   -1.353437   -5.291039
    153          1           0      -23.895657   -1.051566   -4.956264
    154          1           0      -24.898425    0.286303   -5.652716
    155          1           0      -26.122086    4.006861   -2.483926
    156          1           0      -22.829025    6.831247   -2.455349
    157          1           0      -22.025336    5.265570   -2.013383
    158          1           0      -22.824793    6.224114   -0.887576
 ---------------------------------------------------------------------

 SCF Done:  E(RPBE1PBE) =  -4067.37557368     A.U. after   16 cycles

 Excitation energies and oscillator strengths:

 Excited State   1:      Singlet-A      1.8775 eV  660.35 nm  f=0.3946  <S**2>=0.000
     309 -> 315        0.17169
     311 -> 313        0.69336
     311 <- 313       -0.11027
 This state for optimization and/or second-order correction.
 Total Energy, E(TD-HF/TD-DFT) =  -4067.30657501
 Copying the excited state density for this state as the 1-particle RhoCI density.

 Excited State   2:      Singlet-A      1.9474 eV  636.66 nm  f=0.3559  <S**2>=0.000
     310 -> 316        0.18524
     312 -> 314        0.68732

 Excited State   3:      Singlet-A      1.9509 eV  635.53 nm  f=0.0000  <S**2>=0.000
     312 -> 313        0.70711

 Excited State   4:      Singlet-A      2.1967 eV  564.42 nm  f=0.0000  <S**2>=0.000
     311 -> 314        0.70711

 Excited State   5:      Singlet-A      2.2058 eV  562.10 nm  f=0.1663  <S**2>=0.000
     309 -> 313        0.67015
     311 -> 315       -0.21433

 The electronic state is 1-A.
 Alpha  occ. eigenvalues --  -46.92740 -46.92493 -19.25680 -19.25550 -19.20488
 Alpha  occ. eigenvalues --  -19.19297 -19.19037 -19.19015 -19.18909 -19.18733
 Alpha  occ. eigenvalues --  -14.41612 -14.41032 -14.40761 -14.40723 -14.39420
 Alpha  occ. eigenvalues --  -14.39167 -14.39140 -14.38456 -10.35903 -10.35206
 Alpha  occ. eigenvalues --  -10.33928 -10.32433 -10.32167 -10.31720 -10.28837
 Alpha  occ. eigenvalues --  -10.28811 -10.28571 -10.28516 -10.28219 -10.28187
 Alpha  occ. eigenvalues --  -10.28102 -10.28020 -10.27776 -10.27768 -10.27679
 Alpha  occ. eigenvalues --  -10.27679 -10.27668 -10.27524 -10.27482 -10.26729
 Alpha  occ. eigenvalues --  -10.26723 -10.26650 -10.26500 -10.26282 -10.26049
 Alpha  occ. eigenvalues --  -10.25919 -10.25909 -10.25899 -10.25807 -10.25786
 Alpha  occ. eigenvalues --  -10.25782 -10.25738 -10.25723 -10.25356 -10.25343
 Alpha  occ. eigenvalues --  -10.25270 -10.25217 -10.25176 -10.25159 -10.25158
 Alpha  occ. eigenvalues --  -10.25131 -10.25128 -10.25107 -10.24804 -10.24473
 Alpha  occ. eigenvalues --  -10.24423 -10.24414 -10.24281 -10.24263 -10.24226
 Alpha  occ. eigenvalues --  -10.23902 -10.23877 -10.23874 -10.23568 -10.23539
 Alpha  occ. eigenvalues --  -10.23447 -10.23440 -10.23393 -10.23191 -10.23097
 Alpha  occ. eigenvalues --  -10.23006 -10.22889 -10.22817 -10.22442 -10.22404
 Alpha  occ. eigenvalues --  -10.21722  -3.14822  -3.14682  -1.87664  -1.87505
 Alpha  occ. eigenvalues --   -1.87214  -1.87030  -1.87016  -1.86954  -1.11280
 Alpha  occ. eigenvalues --   -1.10600  -1.07145  -1.04702  -1.04387  -1.04122
 Alpha  occ. eigenvalues --   -1.01445  -1.00607  -1.00426  -1.00082  -0.99747
 Alpha  occ. eigenvalues --   -0.99314  -0.99144  -0.98769  -0.98359  -0.98120
 Alpha  occ. eigenvalues --   -0.86982  -0.86784  -0.83309  -0.83205  -0.82946
 Alpha  occ. eigenvalues --   -0.82524  -0.82446  -0.82396  -0.82161  -0.81709
 Alpha  occ. eigenvalues --   -0.81682  -0.81232  -0.80727  -0.80157  -0.78573
 Alpha  occ. eigenvalues --   -0.78571  -0.78029  -0.77450  -0.76925  -0.76609
 Alpha  occ. eigenvalues --   -0.75998  -0.75884  -0.75485  -0.75064  -0.74597
 Alpha  occ. eigenvalues --   -0.74441  -0.72671  -0.72658  -0.71791  -0.71395
 Alpha  occ. eigenvalues --   -0.71132  -0.70964  -0.70538  -0.70093  -0.69839
 Alpha  occ. eigenvalues --   -0.69573  -0.68004  -0.67294  -0.66045  -0.65981
 Alpha  occ. eigenvalues --   -0.64011  -0.63954  -0.63640  -0.63143  -0.62552
 Alpha  occ. eigenvalues --   -0.62176  -0.61527  -0.61055  -0.60028  -0.59903
 Alpha  occ. eigenvalues --   -0.59673  -0.59520  -0.59227  -0.59117  -0.58758
 Alpha  occ. eigenvalues --   -0.58238  -0.56833  -0.56424  -0.55168  -0.54714
 Alpha  occ. eigenvalues --   -0.54399  -0.53985  -0.53821  -0.53643  -0.52949
 Alpha  occ. eigenvalues --   -0.52860  -0.52494  -0.52430  -0.52113  -0.51877
 Alpha  occ. eigenvalues --   -0.50986  -0.50840  -0.50000  -0.49855  -0.49792
 Alpha  occ. eigenvalues --   -0.49579  -0.49323  -0.49124  -0.48596  -0.48533
 Alpha  occ. eigenvalues --   -0.48199  -0.48017  -0.47849  -0.47758  -0.47543
 Alpha  occ. eigenvalues --   -0.47225  -0.47222  -0.47114  -0.46807  -0.46748
 Alpha  occ. eigenvalues --   -0.46610  -0.46059  -0.45978  -0.45916  -0.45729
 Alpha  occ. eigenvalues --   -0.45378  -0.45231  -0.45054  -0.44981  -0.44810
 Alpha  occ. eigenvalues --   -0.44731  -0.44457  -0.44261  -0.44142  -0.43864
 Alpha  occ. eigenvalues --   -0.43662  -0.43545  -0.43434  -0.43407  -0.43363
 Alpha  occ. eigenvalues --   -0.43323  -0.43285  -0.43158  -0.42860  -0.42803
 Alpha  occ. eigenvalues --   -0.42634  -0.42518  -0.42207  -0.42126  -0.42068
 Alpha  occ. eigenvalues --   -0.41809  -0.41713  -0.41590  -0.41436  -0.41198
 Alpha  occ. eigenvalues --   -0.40924  -0.40764  -0.40712  -0.40602  -0.40551
 Alpha  occ. eigenvalues --   -0.40258  -0.40088  -0.39818  -0.39750  -0.39416
 Alpha  occ. eigenvalues --   -0.39222  -0.39104  -0.38948  -0.38828  -0.38809
 Alpha  occ. eigenvalues --   -0.38767  -0.38653  -0.38398  -0.38386  -0.38194
 Alpha  occ. eigenvalues --   -0.38053  -0.37990  -0.37961  -0.37811  -0.37729
 Alpha  occ. eigenvalues --   -0.37544  -0.37381  -0.37137  -0.37112  -0.37043
 Alpha  occ. eigenvalues --   -0.36769  -0.36565  -0.36354  -0.36274  -0.36175
 Alpha  occ. eigenvalues --   -0.36151  -0.35993  -0.35457  -0.35331  -0.34952
 Alpha  occ. eigenvalues --   -0.34741  -0.34619  -0.34467  -0.34200  -0.33593
 Alpha  occ. eigenvalues --   -0.33426  -0.33199  -0.33157  -0.32974  -0.32416
 Alpha  occ. eigenvalues --   -0.32315  -0.31661  -0.31655  -0.31104  -0.30839
 Alpha  occ. eigenvalues --   -0.30682  -0.30566  -0.29734  -0.29402  -0.28649
 Alpha  occ. eigenvalues --   -0.28632  -0.27989  -0.27967  -0.26974  -0.26937
 Alpha  occ. eigenvalues --   -0.26557  -0.26527  -0.26141  -0.26114  -0.25543
 Alpha  occ. eigenvalues --   -0.25509  -0.25385  -0.25272  -0.20816  -0.20327
 Alpha  occ. eigenvalues --   -0.19062  -0.18864
 Alpha virt. eigenvalues --   -0.11455  -0.10751  -0.04771  -0.04624  -0.03928
 Alpha virt. eigenvalues --   -0.03602  -0.01919  -0.01809  -0.00963  -0.00425
 Alpha virt. eigenvalues --    0.00138   0.00170   0.01121   0.01827   0.02083

 Mulliken charges:
               1
     1  Mg  12.001655
     2  C    5.979351
     3  C    6.004600
     4  C    6.025716
     5  C    6.005865
     6  N    6.992535
     7  C    6.028536
     8  C    5.990212
     9  C    6.012608
    10  C    5.969416
    11  C    6.003737
    12  C    5.995582
    13  C    5.999732
    14  H    1.006451
    15  N    7.003044
    16  C    5.963880
    17  C    5.980903
    18  C    5.982216
    19  C    5.967244
    20  C    6.004058
    21  C    5.987642
    22  O    7.968834
    23  C    6.006485
    24  N    7.014775
    25  C    5.963861
    26  C    6.009219
    27  C    5.990308
    28  C    6.020845
    29  C    5.999790
    30  C    5.997381
    31  C    5.995493
    32  N    6.999722
    33  C    6.026961
    34  C    6.029620
    35  C    6.000612
    36  C    6.026663
    37  C    5.999129
    38  C    6.015524
    39  O    8.029612
    40  C    6.008196
    41  C    6.003255
    42  O    8.005557
    43  O    8.002334
    44  C    5.996950
    45  H    0.986940
    46  H    0.998382
    47  H    1.012783
    48  H    0.997816
    49  H    0.997668
    50  H    0.996610
    51  H    0.986001
    52  H    1.002203
    53  H    1.011072
    54  H    0.995489
    55  H    1.001459
    56  H    0.994454
    57  H    0.984180
    58  H    0.984927
    59  H    0.979174
    60  H    0.993178
    61  H    0.990339
    62  H    0.985931
    63  H    1.003156
    64  H    1.002845
    65  H    0.991172
    66  H    0.998359
    67  H    1.005576
    68  H    1.011156
    69  H    0.999275
    70  H    1.009328
    71  H    0.997231
    72  H    1.001093
    73  H    1.015487
    74  H    1.016940
    75  H    1.016098
    76  H    1.005775
    77  H    1.003945
    78  H    1.000913
    79  H    1.006934
    80  Mg  12.000003
    81  C    5.999876
    82  C    5.999986
    83  C    6.000090
    84  C    6.000041
    85  N    6.999957
    86  C    6.000064
    87  C    5.999997
    88  C    5.999994
    89  C    6.000036
    90  C    6.000006
    91  C    6.000002
    92  C    6.000002
    93  H    0.999968
    94  N    7.000020
    95  C    6.000027
    96  C    5.999982
    97  C    6.000041
    98  C    5.999951
    99  C    5.999991
   100  C    6.000021
   101  O    8.000032
   102  C    5.999993
   103  N    7.000024
   104  C    5.999941
   105  C    6.000006
   106  C    6.000004
   107  C    5.999939
   108  C    5.999987
   109  C    6.000008
   110  C    5.999993
   111  N    6.999979
   112  C    5.999967
   113  C    6.000020
   114  C    6.000005
   115  C    6.000046
   116  C    5.999994
   117  C    5.999940
   118  O    7.999979
   119  C    6.000030
   120  C    5.999996
   121  O    7.999963
   122  O    8.000014
   123  C    6.000025
   124  H    1.000007
   125  H    1.000003
   126  H    0.999980
   127  H    0.999981
   128  H    1.000012
   129  H    1.000002
   130  H    0.999988
   131  H    0.999977
   132  H    1.000005
   133  H    1.000019
   134  H    1.000011
   135  H    1.000018
   136  H    1.000024
   137  H    1.000002
   138  H    1.000036
   139  H    1.000027
   140  H    0.999989
   141  H    1.000031
   142  H    1.000014
   143  H    0.999996
   144  H    1.000021
   145  H    0.999978
   146  H    1.000003
   147  H    1.000010
   148  H    1.000004
   149  H    1.000001
   150  H    0.999995
   151  H    1.000026
   152  H    1.000001
   153  H    0.999952
   154  H    0.999997
   155  H    1.000015
   156  H    0.999998
   157  H    0.999964
   158  H    0.999976
 Sum of Mulliken charges = 624.00000

 Dipole moment (field-independent basis, Debye):
    X=             -8.5168    Y=             -1.0269    Z=              6.1036  Tot=             10.5283
 Quadrupole moment (field-independent basis, Debye-Ang):
   XX=           -473.2289   YY=              3.4082   ZZ=             -0.7540
   XY=            -25.1822   XZ=            170.8526   YZ=             -3.8058

 Normal termination of Gaussian 16 at Fri Oct 15 19:09:44 2021.
