 Gaussian 16, Revision A.03,
 Gaussian 16:  ES64L-G16RevA.03 25-Dec-2016

 --------------------------------------------------------
 #p PBE1PBE/Def2SVP td=(nstates=5) density=(transition=1)
 --------------------------------------------------------

 --------------------------------
 TDDFT excited states in gaussian
 --------------------------------
 Symbolic Z-matrix:
 Charge =  0 Multiplicity = 1

                         Standard orientation:
 ---------------------------------------------------------------------
 Center     Atomic      Atomic             Coordinates (Angstroms)
 Number     Number       Type             X           Y           Z
 ---------------------------------------------------------------------
      1         12           0      -13.236820    0.693967    0.097455
      2          6           0      -12.020948   -2.159586   -1.391335
      3          6           0      -15.329576   -1.333106    2.039087
      4          6           0      -14.551720    3.446372    1.543030
      5          6           0      -11.461087    2.608030   -2.070583
      6          7           0      -13.801256   -1.516304    0.089135
      7          6           0      -12.967127   -2.497493   -0.461100
      8          6           0      -13.255221   -3.895449    0.121077
      9          6           0      -14.407302   -3.554973    1.136674
     10          6           0      -14.527291   -2.046340    1.161430
     11          6           0      -15.726926   -4.234409    0.793301
     12          6           0      -12.093428   -4.709272    0.793379
     13          6           0      -11.607916   -6.064668    0.041805
     14          1           0      -11.775720   -7.290432    0.945045
     15          7           0      -14.770326    1.029246    1.477631
     16          6           0      -15.414766    0.053375    2.255010
     17          6           0      -16.177878    0.661289    3.350037
     18          6           0      -16.045775    2.146342    3.203026
     19          6           0      -15.038925    2.295378    2.077645
     20          6           0      -16.962069   -0.146814    4.360272
     21          6           0      -16.645900    3.246356    3.943913
     22          8           0      -16.459813    4.413742    3.569937
     23          6           0      -17.563296    3.039501    5.136352
     24          7           0      -13.080612    2.655109   -0.291912
     25          6           0      -13.613637    3.671025    0.522944
     26          6           0      -13.121033    5.133970    0.176272
     27          6           0      -12.127083    4.782848   -1.047372
     28          6           0      -12.219125    3.242164   -1.126559
     29          6           0      -14.294961    6.157008   -0.224392
     30          6           0      -10.673000    5.304141   -0.781364
     31          6           0       -9.902046    5.855035   -1.939857
     32          7           0      -12.050606    0.282428   -1.518676
     33          6           0      -11.329112    1.192321   -2.296797
     34          6           0      -10.435385    0.515572   -3.173311
     35          6           0      -10.612504   -0.859561   -2.770035
     36          6           0      -11.651274   -0.907029   -1.831703
     37          6           0       -9.459581    1.024926   -4.149210
     38          6           0      -10.243298   -2.200665   -3.099308
     39          8           0       -9.425054   -2.719272   -3.866853
     40          6           0      -11.276669   -3.113401   -2.295545
     41          6           0      -12.112402   -3.862042   -3.271253
     42          8           0      -13.194428   -3.621795   -3.639499
     43          8           0      -11.472209   -5.040397   -3.647913
     44          6           0      -12.352177   -6.100886   -4.093063
     45          1           0      -15.913292   -1.975452    2.701795
     46          1           0      -14.845178    4.406461    1.972493
     47          1           0      -10.777578    3.217009   -2.665845
     48          1           0      -13.678109   -4.517984   -0.666678
     49          1           0      -14.196839   -3.946925    2.132139
     50          1           0      -16.454422   -3.468917    0.524677
     51          1           0      -16.005380   -4.701856    1.737017
     52          1           0      -15.672870   -5.029321    0.049766
     53          1           0      -12.412137   -4.972212    1.802346
     54          1           0      -11.182527   -4.114481    0.862509
     55          1           0      -10.539177   -5.886241   -0.078091
     56          1           0      -12.152363   -6.197336   -0.892850
     57          1           0      -17.843439   -0.523269    3.839598
     58          1           0      -17.264046    0.523162    5.163814
     59          1           0      -16.443179   -1.045174    4.695336
     60          1           0      -18.094945    3.983204    5.260017
     61          1           0      -17.041383    2.749222    6.048788
     62          1           0      -18.415599    2.373692    5.002231
     63          1           0      -12.491380    5.511367    0.981354
     64          1           0      -12.386320    5.248777   -1.998333
     65          1           0      -13.936994    6.787567   -1.038511
     66          1           0      -14.565824    6.907105    0.517639
     67          1           0      -15.215676    5.654473   -0.521444
     68          1           0      -10.030253    4.583201   -0.276432
     69          1           0      -10.655394    6.170211   -0.120043
     70          1           0       -9.094288    5.139821   -2.094269
     71          1           0       -9.307042    6.761414   -1.827801
     72          1           0      -10.544166    5.904086   -2.819884
     73          1           0       -9.140060    2.016819   -3.828412
     74          1           0      -10.033965    1.118176   -5.070807
     75          1           0       -8.707308    0.255332   -4.323200
     76          1           0      -10.738081   -3.829630   -1.675535
     77          1           0      -12.629559   -5.801172   -5.103098
     78          1           0      -13.218730   -6.057417   -3.433486
     79          1           0      -11.839317   -7.062689   -4.121894
     80         12           0       13.444812    0.500512   -0.102559
     81          6           0       11.456910   -2.322929    0.596960
     82          6           0       16.209966   -1.464628    0.048571
     83          6           0       15.313222    3.264256   -0.659972
     84          6           0       10.614802    2.488951    0.206793
     85          7           0       13.803037   -1.590932    0.368460
     86          6           0       12.833908   -2.587946    0.509586
     87          6           0       13.501416   -3.930100    0.534679
     88          6           0       14.971887   -3.565142    0.848196
     89          6           0       15.003843   -2.086041    0.384269
     90          6           0       15.436933   -3.658448    2.335749
     91          6           0       13.347298   -4.799232   -0.769856
     92          6           0       12.956304   -6.221634   -0.523476
     93          1           0       13.727042   -7.294083   -1.315816
     94          7           0       15.422183    0.803488   -0.376351
     95          6           0       16.439859   -0.164933   -0.369971
     96          6           0       17.678096    0.433965   -0.673361
     97          6           0       17.456716    1.872767   -0.903935
     98          6           0       16.049682    2.028926   -0.668528
     99          6           0       19.016462   -0.243126   -0.621922
    100          6           0       18.445879    3.076841   -1.221191
    101          8           0       18.025188    4.196033   -1.394764
    102          6           0       19.935987    2.836179   -1.416713
    103          7           0       13.030659    2.596684   -0.100710
    104          6           0       13.996135    3.521085   -0.341208
    105          6           0       13.377654    4.998325   -0.266357
    106          6           0       11.809717    4.727773   -0.288476
    107          6           0       11.793566    3.159526   -0.039593
    108          6           0       13.798548    5.860293    0.955927
    109          6           0       11.103522    5.134362   -1.630722
    110          6           0        9.956666    6.022345   -1.385977
    111          7           0       11.452506    0.187053    0.361173
    112          6           0       10.388008    1.086976    0.342114
    113          6           0        9.156286    0.391715    0.599268
    114          6           0        9.531953   -0.929555    0.731524
    115          6           0       10.876988   -1.024446    0.559923
    116          6           0        7.778984    1.104855    0.594257
    117          6           0        9.049147   -2.270179    1.007482
    118          8           0        7.934511   -2.607656    1.340605
    119          6           0       10.321266   -3.253594    0.952094
    120          6           0       10.465813   -3.922283    2.258167
    121          8           0       10.613674   -3.321316    3.354559
    122          8           0       10.370468   -5.269181    2.064275
    123          6           0       10.115362   -6.049890    3.303805
    124          1           0       17.054526   -2.148624    0.154620
    125          1           0       15.841454    4.206409   -0.819465
    126          1           0        9.749431    3.133615    0.371071
    127          1           0       13.211440   -4.554214    1.380825
    128          1           0       15.696281   -4.171279    0.303910
    129          1           0       14.957214   -4.459459    2.899720
    130          1           0       15.239505   -2.687048    2.789813
    131          1           0       16.512227   -3.741494    2.491619
    132          1           0       14.306026   -4.710972   -1.280531
    133          1           0       12.643894   -4.349043   -1.470931
    134          1           0       11.896400   -6.191439   -0.776541
    135          1           0       13.157546   -6.480708    0.515905
    136          1           0       19.476663   -0.454387   -1.587411
    137          1           0       18.897175   -1.235268   -0.188443
    138          1           0       19.813159    0.227846   -0.046734
    139          1           0       20.342483    3.786714   -1.759998
    140          1           0       20.123664    1.969504   -2.051227
    141          1           0       20.366416    2.432626   -0.499743
    142          1           0       13.743606    5.595826   -1.101485
    143          1           0       11.361170    5.249779    0.558068
    144          1           0       14.418910    5.369265    1.706410
    145          1           0       12.949000    6.255075    1.513723
    146          1           0       14.351579    6.712376    0.559795
    147          1           0       10.701901    4.233920   -2.096978
    148          1           0       11.740296    5.669101   -2.335173
    149          1           0       10.267317    7.049687   -1.577963
    150          1           0        9.432572    5.962163   -0.432796
    151          1           0        9.139734    5.747502   -2.053289
    152          1           0        7.882588    2.068760    0.095435
    153          1           0        7.335238    1.125869    1.590673
    154          1           0        7.164069    0.485866   -0.058007
    155          1           0       10.218764   -3.999261    0.163287
    156          1           0        9.916662   -7.093174    3.059056
    157          1           0        9.165341   -5.671440    3.681703
    158          1           0       10.957474   -5.862977    3.970734
 ---------------------------------------------------------------------

 SCF Done:  E(RPBE1PBE) =  -4067.38493277     A.U. after   16 cycles

 Excitation energies and oscillator strengths:

 Excited State   1:      Singlet-A      1.8150 eV  683.12 nm  f=0.4095  <S**2>=0.000
     309 -> 315        0.14951
     312 -> 313        0.69561
     312 <- 313       -0.11531
 This state for optimization and/or second-order correction.
 Total Energy, E(TD-HF/TD-DFT) =  -4067.31823430
 Copying the excited state density for this state as the 1-particle RhoCI density.

 Excited State   2:      Singlet-A      1.8891 eV  656.33 nm  f=0.0000  <S**2>=0.000
     311 -> 313        0.70710

 Excited State   3:      Singlet-A      1.8995 eV  652.71 nm  f=0.3680  <S**2>=0.000
     310 -> 316        0.17453
     311 -> 314        0.69169
     311 <- 314       -0.10894

 Excited State   4:      Singlet-A      1.9433 eV  638.02 nm  f=0.0000  <S**2>=0.000
     312 -> 314        0.70710

 Excited State   5:      Singlet-A      2.1894 eV  566.30 nm  f=0.1128  <S**2>=0.000
     309 -> 313        0.65561
     312 -> 315       -0.22795

 The electronic state is 1-A.
 Alpha  occ. eigenvalues --  -46.91313 -46.90597 -19.26295 -19.22846 -19.19969
 Alpha  occ. eigenvalues --  -19.19764 -19.19757 -19.19350 -19.18844 -19.18397
 Alpha  occ. eigenvalues --  -14.41998 -14.41511 -14.41479 -14.41050 -14.39827
 Alpha  occ. eigenvalues --  -14.38938 -14.38320 -14.38304 -10.36434 -10.35109
 Alpha  occ. eigenvalues --  -10.33374 -10.32278 -10.32188 -10.31501 -10.29381
 Alpha  occ. eigenvalues --  -10.29371 -10.28861 -10.28792 -10.28589 -10.28499
 Alpha  occ. eigenvalues --  -10.28412 -10.28287 -10.28257 -10.28173 -10.28152
 Alpha  occ. eigenvalues --  -10.28131 -10.27845 -10.27792 -10.27403 -10.27288
 Alpha  occ. eigenvalues --  -10.27044 -10.27012 -10.27001 -10.26406 -10.26119
 Alpha  occ. eigenvalues --  -10.26117 -10.26058 -10.26014 -10.25830 -10.25756
 Alpha  occ. eigenvalues --  -10.25709 -10.25646 -10.25563 -10.25511 -10.25506
 Alpha  occ. eigenvalues --  -10.25491 -10.25464 -10.25430 -10.25326 -10.25310
 Alpha  occ. eigenvalues --  -10.25077 -10.25036 -10.24854 -10.24815 -10.24505
 Alpha  occ. eigenvalues --  -10.24433 -10.24360 -10.24151 -10.24071 -10.24071
 Alpha  occ. eigenvalues --  -10.23917 -10.23902 -10.23831 -10.23671 -10.23538
 Alpha  occ. eigenvalues --  -10.23534 -10.23506 -10.23435 -10.23346 -10.23308
 Alpha  occ. eigenvalues --  -10.23275 -10.22801 -10.22770 -10.22476 -10.22176
 Alpha  occ. eigenvalues --  -10.22092  -3.13646  -3.12899  -1.86457  -1.86031
 Alpha  occ. eigenvalues --   -1.85888  -1.85746  -1.85261  -1.85149  -1.11544
 Alpha  occ. eigenvalues --   -1.10514  -1.06336  -1.05161  -1.04036  -1.03014
 Alpha  occ. eigenvalues --   -1.02592  -1.01116  -0.99502  -0.99450  -0.98099
 Alpha  occ. eigenvalues --   -0.98032  -0.97189  -0.96569  -0.95969  -0.95051
 Alpha  occ. eigenvalues --   -0.87038  -0.86975  -0.83439  -0.83417  -0.82925
 Alpha  occ. eigenvalues --   -0.82864  -0.82704  -0.82289  -0.81718  -0.81521
 Alpha  occ. eigenvalues --   -0.81359  -0.80747  -0.80640  -0.80208  -0.78537
 Alpha  occ. eigenvalues --   -0.78419  -0.78109  -0.77780  -0.77172  -0.76616
 Alpha  occ. eigenvalues --   -0.76209  -0.75901  -0.75489  -0.75195  -0.74992
 Alpha  occ. eigenvalues --   -0.74559  -0.72907  -0.72466  -0.71701  -0.71627
 Alpha  occ. eigenvalues --   -0.71090  -0.70964  -0.70035  -0.69574  -0.69536
 Alpha  occ. eigenvalues --   -0.69198  -0.67521  -0.67345  -0.66067  -0.65382
 Alpha  occ. eigenvalues --   -0.63573  -0.63078  -0.63036  -0.62475  -0.62374
 Alpha  occ. eigenvalues --   -0.61949  -0.61894  -0.60883  -0.60077  -0.59933
 Alpha  occ. eigenvalues --   -0.59753  -0.59591  -0.59405  -0.59073  -0.58585
 Alpha  occ. eigenvalues --   -0.58465  -0.56528  -0.55436  -0.54819  -0.54593
 Alpha  occ. eigenvalues --   -0.54581  -0.53949  -0.53834  -0.53566  -0.53106
 Alpha  occ. eigenvalues --   -0.52834  -0.52711  -0.52396  -0.52178  -0.52083
 Alpha  occ. eigenvalues --   -0.51002  -0.50672  -0.50257  -0.50053  -0.50023
 Alpha  occ. eigenvalues --   -0.49740  -0.49470  -0.48474  -0.48401  -0.48265
 Alpha  occ. eigenvalues --   -0.48040  -0.47967  -0.47722  -0.47529  -0.47291
 Alpha  occ. eigenvalues --   -0.47269  -0.47161  -0.46756  -0.46433  -0.46426
 Alpha  occ. eigenvalues --   -0.46371  -0.46164  -0.45933  -0.45846  -0.45781
 Alpha  occ. eigenvalues --   -0.45753  -0.45451  -0.45343  -0.45108  -0.44988
 Alpha  occ. eigenvalues --   -0.44734  -0.44654  -0.44436  -0.44356  -0.44339
 Alpha  occ. eigenvalues --   -0.44087  -0.44029  -0.43987  -0.43545  -0.43434
 Alpha  occ. eigenvalues --   -0.43343  -0.43225  -0.43204  -0.42721  -0.42644
 Alpha  occ. eigenvalues --   -0.42632  -0.42395  -0.41928  -0.41887  -0.41605
 Alpha  occ. eigenvalues --   -0.41501  -0.41416  -0.41317  -0.41154  -0.41123
 Alpha  occ. eigenvalues --   -0.40915  -0.40787  -0.40757  -0.40556  -0.40490
 Alpha  occ. eigenvalues --   -0.40108  -0.40085  -0.40015  -0.39831  -0.39755
 Alpha  occ. eigenvalues --   -0.39483  -0.39436  -0.39407  -0.39207  -0.39125
 Alpha  occ. eigenvalues --   -0.39007  -0.38389  -0.38304  -0.38254  -0.38157
 Alpha  occ. eigenvalues --   -0.38107  -0.37841  -0.37757  -0.37721  -0.37625
 Alpha  occ. eigenvalues --   -0.37440  -0.37199  -0.37014  -0.36768  -0.36749
 Alpha  occ. eigenvalues --   -0.36708  -0.36527  -0.36243  -0.36097  -0.36007
 Alpha  occ. eigenvalues --   -0.35871  -0.35841  -0.35479  -0.35331  -0.35051
 Alpha  occ. eigenvalues --   -0.34878  -0.34792  -0.34068  -0.33961  -0.33762
 Alpha  occ. eigenvalues --   -0.33656  -0.33332  -0.32827  -0.32819  -0.32748
 Alpha  occ. eigenvalues --   -0.32660  -0.32109  -0.31723  -0.31381  -0.31127
 Alpha  occ. eigenvalues --   -0.31041  -0.29793  -0.29625  -0.29470  -0.29137
 Alpha  occ. eigenvalues --   -0.29112  -0.28568  -0.28566  -0.27050  -0.26922
 Alpha  occ. eigenvalues --   -0.26458  -0.26019  -0.25873  -0.25612  -0.25483
 Alpha  occ. eigenvalues --   -0.25207  -0.25125  -0.24763  -0.21245  -0.20907
 Alpha  occ. eigenvalues --   -0.19101  -0.19032
 Alpha virt. eigenvalues --   -0.11660  -0.11394  -0.05747  -0.04819  -0.04214
 Alpha virt. eigenvalues --   -0.03530  -0.02146  -0.01667  -0.00498  -0.00167
 Alpha virt. eigenvalues --    0.00695   0.00862   0.01255   0.01471   0.01734

 Mulliken charges:
               1
     1  Mg  12.002312
     2  C    5.990367
     3  C    6.010584
     4  C    6.015042
     5  C    5.993186
     6  N    6.994979
     7  C    6.024597
     8  C    5.988110
     9  C    6.008394
    10  C    5.975039
    11  C    6.001026
    12  C    5.998939
    13  C    5.996238
    14  H    1.008437
    15  N    7.000533
    16  C    5.966138
    17  C    5.971335
    18  C    5.987545
    19  C    5.972072
    20  C    6.002004
    21  C    5.988784
    22  O    7.969989
    23  C    6.006344
    24  N    7.001344
    25  C    5.967469
    26  C    6.013269
    27  C    5.987733
    28  C    6.030855
    29  C    6.002636
    30  C    5.994474
    31  C    6.000350
    32  N    7.000685
    33  C    6.034996
    34  C    6.027037
    35  C    6.004866
    36  C    6.024659
    37  C    5.999930
    38  C    6.016122
    39  O    8.032343
    40  C    5.999637
    41  C    6.000760
    42  O    8.008096
    43  O    7.999655
    44  C    5.997988
    45  H    0.991837
    46  H    0.993458
    47  H    1.009522
    48  H    1.002626
    49  H    1.000172
    50  H    1.002888
    51  H    1.000067
    52  H    0.987659
    53  H    1.009045
    54  H    0.997430
    55  H    0.997130
    56  H    0.997964
    57  H    0.980389
    58  H    0.986081
    59  H    0.980714
    60  H    0.986561
    61  H    0.990034
    62  H    0.992267
    63  H    0.997522
    64  H    1.003307
    65  H    0.989601
    66  H    1.001731
    67  H    1.001507
    68  H    1.000643
    69  H    1.011129
    70  H    0.995162
    71  H    1.004955
    72  H    1.000104
    73  H    1.017358
    74  H    1.017859
    75  H    1.012684
    76  H    1.010963
    77  H    1.002128
    78  H    1.006042
    79  H    1.004559
    80  Mg  11.999998
    81  C    6.000538
    82  C    6.000135
    83  C    5.999486
    84  C    5.999916
    85  N    7.000338
    86  C    5.999217
    87  C    6.000242
    88  C    5.999821
    89  C    6.000540
    90  C    5.999888
    91  C    6.000109
    92  C    6.000010
    93  H    0.999943
    94  N    6.999955
    95  C    6.000678
    96  C    6.000608
    97  C    6.000478
    98  C    6.000680
    99  C    5.999759
   100  C    6.000333
   101  O    8.000686
   102  C    5.999933
   103  N    6.999742
   104  C    6.000734
   105  C    5.999825
   106  C    6.000131
   107  C    5.999498
   108  C    5.999939
   109  C    6.000117
   110  C    6.000098
   111  N    6.999982
   112  C    5.999296
   113  C    5.999114
   114  C    5.999990
   115  C    5.999310
   116  C    6.000055
   117  C    5.999504
   118  O    7.999000
   119  C    5.999958
   120  C    5.999924
   121  O    8.000048
   122  O    7.999887
   123  C    6.000013
   124  H    1.000480
   125  H    1.000204
   126  H    0.999606
   127  H    1.000008
   128  H    1.000102
   129  H    1.000422
   130  H    1.000109
   131  H    1.000111
   132  H    0.999748
   133  H    0.999909
   134  H    0.999932
   135  H    1.000072
   136  H    1.000586
   137  H    1.000448
   138  H    1.000616
   139  H    1.000428
   140  H    1.000125
   141  H    1.000252
   142  H    0.999985
   143  H    1.000023
   144  H    1.000050
   145  H    1.000269
   146  H    1.000078
   147  H    0.999879
   148  H    0.999767
   149  H    0.999962
   150  H    1.000047
   151  H    0.999666
   152  H    0.999510
   153  H    0.999527
   154  H    0.999104
   155  H    0.999644
   156  H    0.999875
   157  H    0.999946
   158  H    1.000053
 Sum of Mulliken charges = 624.00000

 Dipole moment (field-independent basis, Debye):
    X=              7.3172    Y=             -2.1648    Z=             -7.7956  Tot=             10.9086
 Quadrupole moment (field-independent basis, Debye-Ang):
   XX=           -179.3419   YY=              0.3045   ZZ=             -2.2876
   XY=             34.1211   XZ=            105.2254   YZ=             -4.6470

 Normal termination of Gaussian 16 at Fri Oct 15 12:27:04 2021.
