 Gaussian 16, Revision A.03,
 Gaussian 16:  ES64L-G16RevA.03 25-Dec-2016

 --------------------------------------------------------
 #p PBE1PBE/Def2SVP td=(nstates=5) density=(transition=1)
 --------------------------------------------------------

 --------------------------------
 TDDFT excited states in gaussian
 --------------------------------
 Symbolic Z-matrix:
 Charge =  0 Multiplicity = 1

                         Standard orientation:
 ---------------------------------------------------------------------
 Center     Atomic      Atomic             Coordinates (Angstroms)
 Number     Number       Type             X           Y           Z
 ---------------------------------------------------------------------
      1         12           0       -0.810149    0.229305    0.233322
      2          6           0        2.736179    0.095914    0.374675
      3          6           0       -0.697267   -3.305936    0.196711
      4          6           0       -4.034848    0.196991   -0.261258
      5          6           0       -0.616819    3.693352   -0.010796
      6          7           0        0.867800   -1.451927    0.271994
      7          6           0        2.205400   -1.185983    0.433835
      8          6           0        3.044072   -2.437039    0.633372
      9          6           0        1.905229   -3.527651    0.438830
     10          6           0        0.595789   -2.730948    0.332500
     11          6           0        2.246245   -4.476033   -0.706811
     12          6           0        3.677537   -2.452345    2.041922
     13          6           0        5.122041   -3.059714    2.212311
     14          1           0        5.642791   -4.019395    1.116572
     15          7           0       -2.205483   -1.336481    0.074777
     16          6           0       -1.939095   -2.704125    0.003411
     17          6           0       -3.222129   -3.412225   -0.129758
     18          6           0       -4.221159   -2.385360   -0.164240
     19          6           0       -3.471837   -1.117819   -0.070030
     20          6           0       -3.325258   -4.835557   -0.278006
     21          6           0       -5.733650   -2.535721   -0.292759
     22          8           0       -6.467972   -1.541544   -0.407362
     23          6           0       -6.380630   -3.852023   -0.108145
     24          7           0       -2.129118    1.731442   -0.194738
     25          6           0       -3.437748    1.471310   -0.255663
     26          6           0       -4.255959    2.770509   -0.549761
     27          6           0       -3.188834    3.876627   -0.272848
     28          6           0       -1.906858    3.111515   -0.168698
     29          6           0       -4.933132    2.801875   -1.967122
     30          6           0       -3.595954    4.503881    1.114963
     31          6           0       -2.962330    3.964488    2.443475
     32          7           0        0.689957    1.647058    0.289617
     33          6           0        0.600252    3.044808    0.159415
     34          6           0        1.976140    3.600932    0.164967
     35          6           0        2.800493    2.482048    0.188659
     36          6           0        2.050427    1.330005    0.295402
     37          6           0        2.203530    4.999461   -0.155708
     38          6           0        4.205128    2.105081    0.051026
     39          8           0        5.168828    2.841580   -0.126601
     40          6           0        4.235440    0.507303    0.140524
     41          6           0        4.844402   -0.086976   -1.074270
     42          8           0        4.241432   -0.484302   -2.067085
     43          8           0        6.240723   -0.145004   -0.905144
     44          6           0        7.109969   -0.626513   -1.954850
     45          1           0       -0.773901   -4.371234    0.425870
     46          1           0       -5.115399    0.258827   -0.408889
     47          1           0       -0.689170    4.781991   -0.049535
     48          1           0        3.831604   -2.538612   -0.113787
     49          1           0        1.960065   -4.172860    1.315216
     50          1           0        2.253661   -5.532785   -0.442064
     51          1           0        3.188939   -4.289133   -1.221161
     52          1           0        1.427080   -4.398513   -1.422931
     53          1           0        3.031634   -2.969154    2.751622
     54          1           0        3.652539   -1.388082    2.278620
     55          1           0        5.166285   -3.685340    3.103165
     56          1           0        5.749020   -2.217110    2.503848
     57          1           0       -4.030998   -5.169782    0.482747
     58          1           0       -2.339366   -5.291474   -0.363598
     59          1           0       -3.704749   -4.892780   -1.298696
     60          1           0       -6.218915   -4.537588   -0.940529
     61          1           0       -7.460145   -3.717339   -0.042999
     62          1           0       -5.893972   -4.342240    0.734543
     63          1           0       -5.019947    2.644554    0.217450
     64          1           0       -3.219174    4.667465   -1.022773
     65          1           0       -5.971751    2.479693   -1.891323
     66          1           0       -4.301526    2.208563   -2.627509
     67          1           0       -4.892315    3.841311   -2.292282
     68          1           0       -4.678967    4.623573    1.150495
     69          1           0       -3.087250    5.468260    1.101577
     70          1           0       -3.815341    3.902581    3.118606
     71          1           0       -2.235934    4.651348    2.879749
     72          1           0       -2.520949    2.969566    2.396118
     73          1           0        1.644105    5.242616   -1.058146
     74          1           0        3.266499    5.094765   -0.379636
     75          1           0        2.065595    5.629839    0.722337
     76          1           0        4.884611    0.319261    0.996257
     77          1           0        7.538160    0.170777   -2.561883
     78          1           0        6.677195   -1.486339   -2.466450
     79          1           0        7.876998   -1.128159   -1.364143
 ---------------------------------------------------------------------

 SCF Done:  E(RPBE1PBE) =  -2033.68768820     A.U. after   15 cycles

 Excitation energies and oscillator strengths:

 Excited State   1:      Singlet-A      1.8853 eV  657.62 nm  f=0.3626  <S**2>=0.000
     155 ->158         0.18506
     156 ->157         0.68870
     156 <-157        -0.10057
 This state for optimization and/or second-order correction.
 Total Energy, E(TD-HF/TD-DFT) =  -2033.61840313
 Copying the excited state density for this state as the 1-particle RhoCI density.

 Excited State   2:      Singlet-A      2.2636 eV  547.74 nm  f=0.0757  <S**2>=0.000
     155 ->157         0.63965
     156 ->158        -0.29052

 Excited State   3:      Singlet-A      3.1552 eV  392.95 nm  f=0.0012  <S**2>=0.000
     152 ->157         0.14930
     154 ->157         0.67260

 Excited State   4:      Singlet-A      3.1836 eV  389.44 nm  f=0.0010  <S**2>=0.000
     152 ->157         0.64734
     152 ->159        -0.16244
     152 ->160        -0.13613
     154 ->157        -0.15206

 Excited State   5:      Singlet-A      3.2283 eV  384.06 nm  f=0.0019  <S**2>=0.000
     151 ->157         0.65063
     151 ->159         0.19850
     153 ->157        -0.12598

 The electronic state is 1-A.
 Alpha  occ. eigenvalues --  -46.91913 -19.24652 -19.20080 -19.19655 -19.18813
 Alpha  occ. eigenvalues --  -14.41440 -14.40981 -14.39204 -14.38717 -10.36454
 Alpha  occ. eigenvalues --  -10.32636 -10.32255 -10.28687 -10.28549 -10.28401
 Alpha  occ. eigenvalues --  -10.28109 -10.28027 -10.27863 -10.27772 -10.27137
 Alpha  occ. eigenvalues --  -10.26750 -10.26538 -10.26353 -10.26170 -10.25802
 Alpha  occ. eigenvalues --  -10.25477 -10.25124 -10.25109 -10.25021 -10.25013
 Alpha  occ. eigenvalues --  -10.24978 -10.24773 -10.24664 -10.24435 -10.24255
 Alpha  occ. eigenvalues --  -10.24128 -10.23650 -10.23253 -10.23136 -10.22773
 Alpha  occ. eigenvalues --  -10.22730 -10.22697 -10.22568  -3.14037  -1.86886
 Alpha  occ. eigenvalues --   -1.86425  -1.86247  -1.09389  -1.04506  -1.03769
 Alpha  occ. eigenvalues --   -1.02055  -0.99281  -0.98596  -0.97767  -0.96186
 Alpha  occ. eigenvalues --   -0.86378  -0.83957  -0.82917  -0.82734  -0.81593
 Alpha  occ. eigenvalues --   -0.81119  -0.80635  -0.78336  -0.77618  -0.76682
 Alpha  occ. eigenvalues --   -0.76255  -0.75192  -0.74817  -0.73089  -0.71468
 Alpha  occ. eigenvalues --   -0.71201  -0.70090  -0.69133  -0.66633  -0.65764
 Alpha  occ. eigenvalues --   -0.63654  -0.63206  -0.62358  -0.61042  -0.59347
 Alpha  occ. eigenvalues --   -0.59194  -0.59002  -0.58772  -0.56121  -0.54766
 Alpha  occ. eigenvalues --   -0.53929  -0.53578  -0.52579  -0.52456  -0.51755
 Alpha  occ. eigenvalues --   -0.50824  -0.50072  -0.49790  -0.48811  -0.48428
 Alpha  occ. eigenvalues --   -0.48191  -0.47809  -0.47709  -0.47355  -0.46898
 Alpha  occ. eigenvalues --   -0.46327  -0.46165  -0.45975  -0.45331  -0.45150
 Alpha  occ. eigenvalues --   -0.44463  -0.44313  -0.44085  -0.43663  -0.43457
 Alpha  occ. eigenvalues --   -0.43115  -0.42979  -0.42687  -0.42230  -0.42062
 Alpha  occ. eigenvalues --   -0.41636  -0.41277  -0.40908  -0.40751  -0.40200
 Alpha  occ. eigenvalues --   -0.39728  -0.39400  -0.39064  -0.38971  -0.38807
 Alpha  occ. eigenvalues --   -0.38758  -0.38480  -0.38229  -0.38157  -0.37753
 Alpha  occ. eigenvalues --   -0.37510  -0.36809  -0.36656  -0.36054  -0.35914
 Alpha  occ. eigenvalues --   -0.35415  -0.35208  -0.34814  -0.34221  -0.33452
 Alpha  occ. eigenvalues --   -0.32712  -0.32420  -0.32147  -0.31708  -0.31038
 Alpha  occ. eigenvalues --   -0.30735  -0.29287  -0.29072  -0.28690  -0.26608
 Alpha  occ. eigenvalues --   -0.25853  -0.25775  -0.25673  -0.25113  -0.20772
 Alpha  occ. eigenvalues --   -0.18444
 Alpha virt. eigenvalues --   -0.10681  -0.05167  -0.03983  -0.02188   0.00256
 Alpha virt. eigenvalues --    0.00536   0.01081   0.01617   0.02900   0.04280
 Alpha virt. eigenvalues --    0.04844   0.05367   0.05821   0.06087   0.07137

 Mulliken charges:
               1
     1  Mg  11.997987
     2  C    6.019156
     3  C    5.997974
     4  C    5.971993
     5  C    6.007051
     6  N    7.009665
     7  C    5.972802
     8  C    6.014900
     9  C    5.986205
    10  C    6.028412
    11  C    6.000009
    12  C    6.001307
    13  C    6.000997
    14  H    0.995511
    15  N    6.992348
    16  C    6.039678
    17  C    6.017252
    18  C    6.017609
    19  C    6.027180
    20  C    5.995822
    21  C    6.013483
    22  O    8.030293
    23  C    5.995209
    24  N    6.991428
    25  C    6.035674
    26  C    5.996680
    27  C    6.010115
    28  C    5.970941
    29  C    5.997078
    30  C    6.001265
    31  C    6.006815
    32  N    7.003756
    33  C    5.968181
    34  C    5.962986
    35  C    6.003997
    36  C    5.967969
    37  C    6.003510
    38  C    5.982629
    39  O    7.976498
    40  C    5.996826
    41  C    5.998508
    42  O    7.990905
    43  O    7.999990
    44  C    6.003028
    45  H    1.011760
    46  H    1.002606
    47  H    0.989333
    48  H    0.999334
    49  H    1.004626
    50  H    1.002441
    51  H    1.012534
    52  H    0.996209
    53  H    0.990986
    54  H    1.007410
    55  H    0.996989
    56  H    1.004049
    57  H    1.016383
    58  H    1.014662
    59  H    1.017142
    60  H    1.008237
    61  H    1.013871
    62  H    1.004933
    63  H    0.995106
    64  H    0.996660
    65  H    0.996070
    66  H    0.999947
    67  H    1.008975
    68  H    0.988815
    69  H    1.000905
    70  H    0.990409
    71  H    1.002784
    72  H    0.995738
    73  H    0.981498
    74  H    0.985955
    75  H    0.980048
    76  H    0.993051
    77  H    0.998840
    78  H    0.994158
    79  H    0.995916
 Sum of Mulliken charges = 312.00000

 Dipole moment (field-independent basis, Debye):
    X=             -6.4888    Y=             -7.6960    Z=             -0.3161  Tot=             10.0714
 Quadrupole moment (field-independent basis, Debye-Ang):
   XX=              8.2415   YY=             -1.8820   ZZ=             -0.5923
   XY=              6.6958   XZ=              1.9120   YZ=             -0.1704

 Normal termination of Gaussian 16 at Wed Oct 13 19:12:46 2021.
