 Gaussian 16, Revision A.03,
 Gaussian 16:  ES64L-G16RevA.03 25-Dec-2016

 --------------------------------------------------------
 #p PBE1PBE/Def2SVP td=(nstates=5) density=(transition=1)
 --------------------------------------------------------

 --------------------------------
 TDDFT excited states in gaussian
 --------------------------------
 Symbolic Z-matrix:
 Charge =  0 Multiplicity = 1

                         Standard orientation:
 ---------------------------------------------------------------------
 Center     Atomic      Atomic             Coordinates (Angstroms)
 Number     Number       Type             X           Y           Z
 ---------------------------------------------------------------------
      1         12           0       12.646296    0.251410    0.191033
      2          6           0        9.322480   -0.382001   -0.344319
      3          6           0       13.151600    0.468385   -3.110021
      4          6           0       15.927125    0.619321    0.872176
      5          6           0       12.126589   -0.511714    3.707682
      6          7           0       11.372320   -0.215695   -1.561303
      7          6           0       10.039240   -0.335918   -1.559331
      8          6           0        9.468938   -0.381203   -3.068767
      9          6           0       10.793860   -0.085964   -3.866514
     10          6           0       11.895833    0.032092   -2.794361
     11          6           0       11.072019   -1.092521   -4.999837
     12          6           0        8.334601    0.646764   -3.342400
     13          6           0        7.953541    0.952713   -4.827696
     14          1           0        6.635661    0.300614   -5.394484
     15          7           0       14.332291    0.462598   -0.978489
     16          6           0       14.334862    0.631766   -2.284378
     17          6           0       15.702547    0.872440   -2.718775
     18          6           0       16.585207    0.818272   -1.598396
     19          6           0       15.618182    0.631099   -0.494499
     20          6           0       16.162478    0.987176   -4.162710
     21          6           0       18.107323    0.880869   -1.525443
     22          8           0       18.707908    0.527202   -0.514875
     23          6           0       18.860620    1.377052   -2.709707
     24          7           0       13.858210    0.030169    2.036748
     25          6           0       15.161623    0.282966    2.041848
     26          6           0       15.739725    0.308987    3.466497
     27          6           0       14.466018    0.159277    4.294364
     28          6           0       13.434602   -0.159257    3.277285
     29          6           0       16.849033   -0.695082    3.813399
     30          6           0       14.232161    1.281310    5.274010
     31          6           0       14.239708    0.887764    6.794239
     32          7           0       11.106112   -0.263111    1.433065
     33          6           0       10.998922   -0.463534    2.850220
     34          6           0        9.621327   -0.652436    3.248471
     35          6           0        8.968463   -0.601429    1.985472
     36          6           0        9.895223   -0.381257    0.958722
     37          6           0        8.979056   -0.709839    4.589552
     38          6           0        7.627476   -0.521167    1.463715
     39          8           0        6.504385   -0.409537    1.977581
     40          6           0        7.736080   -0.507921   -0.040575
     41          6           0        7.267960   -1.879520   -0.574865
     42          8           0        7.530643   -3.001217   -0.114624
     43          8           0        6.499606   -1.650071   -1.677376
     44          6           0        5.891617   -2.835103   -2.361477
     45          1           0       13.425613    0.684279   -4.144808
     46          1           0       16.975955    0.526582    1.161687
     47          1           0       12.026402   -0.593522    4.791471
     48          1           0        9.150480   -1.415617   -3.192696
     49          1           0       10.700307    0.911266   -4.296431
     50          1           0       11.405765   -0.513940   -5.860519
     51          1           0       10.168791   -1.618656   -5.308996
     52          1           0       11.833360   -1.813571   -4.702017
     53          1           0        8.739028    1.605290   -3.017222
     54          1           0        7.417394    0.329794   -2.846181
     55          1           0        8.724016    0.496125   -5.449833
     56          1           0        7.841444    2.030181   -4.943494
     57          1           0       15.324844    0.901736   -4.854895
     58          1           0       16.874926    0.192599   -4.383110
     59          1           0       16.666277    1.933734   -4.354294
     60          1           0       18.367904    2.308708   -2.989232
     61          1           0       18.960480    0.806072   -3.632305
     62          1           0       19.908473    1.578252   -2.489571
     63          1           0       16.162350    1.299603    3.630824
     64          1           0       14.587716   -0.730534    4.911787
     65          1           0       17.532780   -0.123801    4.440788
     66          1           0       17.288008   -1.111136    2.906708
     67          1           0       16.496411   -1.605673    4.297634
     68          1           0       13.206541    1.587679    5.070709
     69          1           0       14.939863    2.103761    5.174001
     70          1           0       14.395157   -0.186213    6.900164
     71          1           0       13.253809    1.127793    7.193532
     72          1           0       14.924574    1.457834    7.422160
     73          1           0        9.699736   -0.443575    5.362293
     74          1           0        8.766752   -1.765067    4.757457
     75          1           0        8.144290   -0.010217    4.527237
     76          1           0        7.069599    0.298239   -0.347767
     77          1           0        6.570745   -3.670529   -2.533368
     78          1           0        5.384882   -2.603237   -3.297677
     79          1           0        5.156701   -3.226505   -1.658261
     80         12           0      -12.250560   -0.587499   -0.405665
     81          6           0      -11.989873    2.852705   -0.568368
     82          6           0       -8.941026   -0.785998   -1.331898
     83          6           0      -12.326232   -3.942339    0.328177
     84          6           0      -15.522429   -0.300658    0.625736
     85          7           0      -10.612432    0.850742   -0.694839
     86          6           0      -10.789233    2.217930   -0.776235
     87          6           0       -9.494956    2.937933   -1.145359
     88          6           0       -8.637720    1.746224   -1.713779
     89          6           0       -9.410904    0.548873   -1.180744
     90          6           0       -8.344442    1.736680   -3.282258
     91          6           0       -8.814751    3.769458   -0.011414
     92          6           0       -8.329772    5.148058   -0.407423
     93          1           0       -6.811779    5.238215   -0.426689
     94          7           0      -10.823013   -2.095360   -0.486101
     95          6           0       -9.558276   -1.989276   -0.909036
     96          6           0       -8.910121   -3.289176   -0.928450
     97          6           0       -9.778728   -4.265593   -0.470090
     98          6           0      -11.032290   -3.464806   -0.129999
     99          6           0       -7.371463   -3.479751   -1.333768
    100          6           0       -9.519105   -5.808755   -0.408955
    101          8           0       -8.375842   -6.243243   -0.726413
    102          6           0      -10.553758   -6.760407    0.056312
    103          7           0      -13.686305   -1.955152    0.627174
    104          6           0      -13.554635   -3.261637    0.638932
    105          6           0      -14.857856   -3.981401    0.916399
    106          6           0      -15.945071   -2.872542    1.121280
    107          6           0      -15.056419   -1.605615    0.701448
    108          6           0      -15.251556   -5.237359    0.075106
    109          6           0      -16.618451   -2.671983    2.509876
    110          6           0      -17.904960   -1.876033    2.434062
    111          7           0      -13.533197    0.986875   -0.023157
    112          6           0      -14.904593    0.958928    0.320578
    113          6           0      -15.392631    2.310818    0.294696
    114          6           0      -14.295359    3.121667   -0.085089
    115          6           0      -13.219675    2.247089   -0.211553
    116          6           0      -16.846079    2.751454    0.385022
    117          6           0      -13.955076    4.428081   -0.361861
    118          8           0      -14.501936    5.493525   -0.273312
    119          6           0      -12.352412    4.354869   -0.559080
    120          6           0      -11.796238    4.860763    0.771067
    121          8           0      -11.694370    4.208083    1.791955
    122          8           0      -11.459695    6.191458    0.581973
    123          6           0      -11.004470    6.908585    1.768624
    124          1           0       -7.968945   -0.927418   -1.808542
    125          1           0      -12.284109   -5.014972    0.526971
    126          1           0      -16.574879   -0.067817    0.800556
    127          1           0       -9.715223    3.589956   -1.990113
    128          1           0       -7.731468    1.700741   -1.108747
    129          1           0       -8.158275    0.677930   -3.462183
    130          1           0       -7.399637    2.201976   -3.564321
    131          1           0       -9.122344    2.139050   -3.931011
    132          1           0       -7.970146    3.144510    0.279438
    133          1           0       -9.325959    3.804534    0.950414
    134          1           0       -8.750965    5.856010    0.306734
    135          1           0       -8.660140    5.436316   -1.405549
    136          1           0       -6.833678   -2.558857   -1.563158
    137          1           0       -7.282163   -4.143813   -2.194155
    138          1           0       -6.756728   -3.851805   -0.515319
    139          1           0      -11.429452   -6.689100   -0.588031
    140          1           0      -10.726352   -6.673626    1.129138
    141          1           0      -10.164697   -7.733552   -0.240639
    142          1           0      -14.946423   -4.427670    1.907119
    143          1           0      -16.660617   -2.832714    0.299655
    144          1           0      -14.351248   -5.524540   -0.469848
    145          1           0      -16.142053   -5.096044   -0.538468
    146          1           0      -15.507923   -6.113070    0.671526
    147          1           0      -15.858539   -2.223189    3.149435
    148          1           0      -16.758357   -3.685025    2.886927
    149          1           0      -18.558162   -2.233712    3.230378
    150          1           0      -18.457336   -1.969292    1.498279
    151          1           0      -17.696618   -0.839988    2.701214
    152          1           0      -17.005068    3.801673    0.140186
    153          1           0      -17.196462    2.524252    1.391020
    154          1           0      -17.476937    2.174516   -0.291284
    155          1           0      -12.039013    4.875137   -1.464702
    156          1           0      -11.823360    6.982614    2.484385
    157          1           0      -10.593948    7.886369    1.518941
    158          1           0      -10.233208    6.325049    2.270568
 ---------------------------------------------------------------------

 SCF Done:  E(RPBE1PBE) =  -4067.37573209     A.U. after   17 cycles

 Excitation energies and oscillator strengths:

 Excited State   1:      Singlet-A      1.8784 eV  660.06 nm  f=0.4854  <S**2>=0.000
     309 -> 316        0.16018
     311 -> 314        0.18901
     312 -> 313        0.66454
     312 <- 313       -0.10154
 This state for optimization and/or second-order correction.
 Total Energy, E(TD-HF/TD-DFT) =  -4067.30670309
 Copying the excited state density for this state as the 1-particle RhoCI density.

 Excited State   2:      Singlet-A      1.8869 eV  657.08 nm  f=0.2718  <S**2>=0.000
     310 -> 315        0.13977
     311 -> 314        0.66605
     312 -> 313       -0.18821

 Excited State   3:      Singlet-A      1.9542 eV  634.44 nm  f=0.0000  <S**2>=0.000
     312 -> 314        0.70709

 Excited State   4:      Singlet-A      1.9881 eV  623.62 nm  f=0.0000  <S**2>=0.000
     311 -> 313        0.70709

 Excited State   5:      Singlet-A      2.2302 eV  555.93 nm  f=0.1189  <S**2>=0.000
     310 -> 314        0.65843
     311 -> 315       -0.22044
     311 -> 317        0.11487

 The electronic state is 1-A.
 Alpha  occ. eigenvalues --  -46.92707 -46.92579 -19.26291 -19.25235 -19.20185
 Alpha  occ. eigenvalues --  -19.19979 -19.19723 -19.19662 -19.18392 -19.17997
 Alpha  occ. eigenvalues --  -14.41635 -14.41496 -14.41446 -14.41375 -14.39887
 Alpha  occ. eigenvalues --  -14.39633 -14.38959 -14.38333 -10.36628 -10.36214
 Alpha  occ. eigenvalues --  -10.33734 -10.33147 -10.30861 -10.30533 -10.30135
 Alpha  occ. eigenvalues --  -10.29600 -10.29409 -10.29405 -10.28922 -10.28647
 Alpha  occ. eigenvalues --  -10.28457 -10.28389 -10.28245 -10.28099 -10.28030
 Alpha  occ. eigenvalues --  -10.27910 -10.27801 -10.27794 -10.27757 -10.26884
 Alpha  occ. eigenvalues --  -10.26772 -10.26755 -10.26430 -10.26278 -10.26271
 Alpha  occ. eigenvalues --  -10.26203 -10.26140 -10.26029 -10.25972 -10.25939
 Alpha  occ. eigenvalues --  -10.25823 -10.25729 -10.25588 -10.25582 -10.25441
 Alpha  occ. eigenvalues --  -10.25311 -10.25239 -10.25183 -10.25180 -10.25053
 Alpha  occ. eigenvalues --  -10.24948 -10.24827 -10.24502 -10.24486 -10.24471
 Alpha  occ. eigenvalues --  -10.24449 -10.24444 -10.24436 -10.24418 -10.24366
 Alpha  occ. eigenvalues --  -10.24362 -10.24214 -10.24044 -10.23955 -10.23894
 Alpha  occ. eigenvalues --  -10.23771 -10.23727 -10.23650 -10.23621 -10.23524
 Alpha  occ. eigenvalues --  -10.23271 -10.23153 -10.23140 -10.23045 -10.22197
 Alpha  occ. eigenvalues --  -10.21357  -3.14728  -3.14685  -1.87552  -1.87517
 Alpha  occ. eigenvalues --   -1.87106  -1.87053  -1.86955  -1.86921  -1.10345
 Alpha  occ. eigenvalues --   -1.10281  -1.05036  -1.04956  -1.03387  -1.02804
 Alpha  occ. eigenvalues --   -1.02747  -1.01372  -1.00331  -0.99076  -0.99041
 Alpha  occ. eigenvalues --   -0.98565  -0.98292  -0.97813  -0.97673  -0.97122
 Alpha  occ. eigenvalues --   -0.86148  -0.85667  -0.84224  -0.83397  -0.83001
 Alpha  occ. eigenvalues --   -0.82665  -0.82482  -0.82090  -0.81779  -0.81468
 Alpha  occ. eigenvalues --   -0.81306  -0.81293  -0.80485  -0.80273  -0.78565
 Alpha  occ. eigenvalues --   -0.78466  -0.77851  -0.77596  -0.77139  -0.76501
 Alpha  occ. eigenvalues --   -0.76395  -0.76264  -0.75396  -0.75105  -0.74514
 Alpha  occ. eigenvalues --   -0.74419  -0.72860  -0.71900  -0.71835  -0.71263
 Alpha  occ. eigenvalues --   -0.71038  -0.70835  -0.70397  -0.69700  -0.69665
 Alpha  occ. eigenvalues --   -0.69395  -0.67102  -0.66856  -0.66143  -0.66029
 Alpha  occ. eigenvalues --   -0.64010  -0.63777  -0.63452  -0.63393  -0.62391
 Alpha  occ. eigenvalues --   -0.62210  -0.61989  -0.61518  -0.60292  -0.59932
 Alpha  occ. eigenvalues --   -0.59833  -0.59461  -0.59130  -0.58920  -0.58624
 Alpha  occ. eigenvalues --   -0.58435  -0.57208  -0.56312  -0.55234  -0.54270
 Alpha  occ. eigenvalues --   -0.54232  -0.54064  -0.53479  -0.53474  -0.53260
 Alpha  occ. eigenvalues --   -0.52903  -0.52617  -0.52441  -0.51981  -0.51876
 Alpha  occ. eigenvalues --   -0.50896  -0.50745  -0.50234  -0.50044  -0.49664
 Alpha  occ. eigenvalues --   -0.49608  -0.49114  -0.48641  -0.48638  -0.48306
 Alpha  occ. eigenvalues --   -0.48255  -0.48007  -0.48000  -0.47935  -0.47675
 Alpha  occ. eigenvalues --   -0.47145  -0.47129  -0.47087  -0.46771  -0.46521
 Alpha  occ. eigenvalues --   -0.46376  -0.46127  -0.45763  -0.45660  -0.45625
 Alpha  occ. eigenvalues --   -0.45388  -0.45332  -0.45143  -0.45021  -0.44659
 Alpha  occ. eigenvalues --   -0.44582  -0.44452  -0.44379  -0.44214  -0.44172
 Alpha  occ. eigenvalues --   -0.43964  -0.43890  -0.43657  -0.43607  -0.43559
 Alpha  occ. eigenvalues --   -0.43296  -0.43200  -0.43163  -0.42856  -0.42793
 Alpha  occ. eigenvalues --   -0.42459  -0.42290  -0.42181  -0.41948  -0.41929
 Alpha  occ. eigenvalues --   -0.41513  -0.41465  -0.41177  -0.41172  -0.40949
 Alpha  occ. eigenvalues --   -0.40902  -0.40733  -0.40667  -0.40507  -0.40007
 Alpha  occ. eigenvalues --   -0.39938  -0.39843  -0.39708  -0.39555  -0.39484
 Alpha  occ. eigenvalues --   -0.39350  -0.39274  -0.39135  -0.38856  -0.38799
 Alpha  occ. eigenvalues --   -0.38794  -0.38712  -0.38671  -0.38425  -0.38366
 Alpha  occ. eigenvalues --   -0.38167  -0.37768  -0.37758  -0.37678  -0.37416
 Alpha  occ. eigenvalues --   -0.37292  -0.37097  -0.37008  -0.36979  -0.36847
 Alpha  occ. eigenvalues --   -0.36798  -0.36772  -0.36738  -0.36380  -0.36365
 Alpha  occ. eigenvalues --   -0.35951  -0.35762  -0.35682  -0.35394  -0.35286
 Alpha  occ. eigenvalues --   -0.35014  -0.34810  -0.34221  -0.34110  -0.34009
 Alpha  occ. eigenvalues --   -0.33857  -0.33237  -0.32945  -0.32873  -0.32348
 Alpha  occ. eigenvalues --   -0.32088  -0.31670  -0.31462  -0.31331  -0.31211
 Alpha  occ. eigenvalues --   -0.31021  -0.30391  -0.29554  -0.29501  -0.29173
 Alpha  occ. eigenvalues --   -0.29135  -0.28673  -0.28613  -0.27126  -0.26779
 Alpha  occ. eigenvalues --   -0.26674  -0.26626  -0.26303  -0.26142  -0.25363
 Alpha  occ. eigenvalues --   -0.25223  -0.24853  -0.24792  -0.20860  -0.20779
 Alpha  occ. eigenvalues --   -0.18860  -0.18731
 Alpha virt. eigenvalues --   -0.11030  -0.11004  -0.05384  -0.05333  -0.03824
 Alpha virt. eigenvalues --   -0.03587  -0.02430  -0.01876  -0.00851  -0.00841
 Alpha virt. eigenvalues --    0.00774   0.00949   0.00982   0.01351   0.02165

 Mulliken charges:
               1
     1  Mg  12.000835
     2  C    5.985019
     3  C    6.021804
     4  C    6.003336
     5  C    5.991425
     6  N    6.999969
     7  C    6.028925
     8  C    5.993445
     9  C    6.009097
    10  C    5.968170
    11  C    6.001250
    12  C    5.994794
    13  C    6.001574
    14  H    0.999857
    15  N    7.001115
    16  C    5.960947
    17  C    5.980436
    18  C    5.985113
    19  C    5.975867
    20  C    6.003071
    21  C    5.986835
    22  O    7.975940
    23  C    6.006315
    24  N    6.997960
    25  C    5.969638
    26  C    6.010125
    27  C    5.988649
    28  C    6.031950
    29  C    6.001727
    30  C    6.000148
    31  C    5.999684
    32  N    6.999519
    33  C    6.034360
    34  C    6.024857
    35  C    6.007703
    36  C    6.023904
    37  C    5.999181
    38  C    6.015290
    39  O    8.032787
    40  C    5.997763
    41  C    6.005615
    42  O    8.002329
    43  O    8.001891
    44  C    5.999001
    45  H    0.995773
    46  H    0.992293
    47  H    1.010767
    48  H    0.999807
    49  H    0.998956
    50  H    1.001363
    51  H    0.990656
    52  H    1.001973
    53  H    1.003394
    54  H    0.994704
    55  H    1.006110
    56  H    1.001765
    57  H    0.981279
    58  H    0.983017
    59  H    0.982422
    60  H    0.994974
    61  H    0.991054
    62  H    0.986194
    63  H    0.999932
    64  H    0.999854
    65  H    0.995620
    66  H    1.006292
    67  H    0.990588
    68  H    0.994731
    69  H    1.010529
    70  H    1.001678
    71  H    0.996990
    72  H    1.004971
    73  H    1.015688
    74  H    1.015782
    75  H    1.011313
    76  H    1.008686
    77  H    1.004561
    78  H    1.005709
    79  H    1.001356
    80  Mg  12.000351
    81  C    5.997572
    82  C    6.002979
    83  C    6.003739
    84  C    5.997760
    85  N    6.999297
    86  C    6.006391
    87  C    5.997669
    88  C    6.002311
    89  C    5.991093
    90  C    6.000267
    91  C    5.998724
    92  C    5.999620
    93  H    1.001744
    94  N    7.001482
    95  C    5.991693
    96  C    5.993656
    97  C    5.997668
    98  C    5.990223
    99  C    6.000563
   100  C    5.996778
   101  O    7.994568
   102  C    6.000979
   103  N    6.999029
   104  C    5.991285
   105  C    6.004062
   106  C    5.998930
   107  C    6.008671
   108  C    6.000106
   109  C    5.998648
   110  C    5.999391
   111  N    7.000303
   112  C    6.010176
   113  C    6.007296
   114  C    6.001336
   115  C    6.005482
   116  C    6.000138
   117  C    6.004516
   118  O    8.008463
   119  C    6.000402
   120  C    6.000456
   121  O    8.001649
   122  O    8.000525
   123  C    5.999338
   124  H    0.997579
   125  H    0.998165
   126  H    1.001651
   127  H    0.999720
   128  H    0.999537
   129  H    1.001629
   130  H    0.997962
   131  H    0.997428
   132  H    1.002339
   133  H    0.999215
   134  H    0.999197
   135  H    1.000242
   136  H    0.994963
   137  H    0.996044
   138  H    0.995062
   139  H    0.997922
   140  H    0.997492
   141  H    0.996988
   142  H    0.997980
   143  H    0.999587
   144  H    1.001690
   145  H    0.997902
   146  H    0.999301
   147  H    1.000604
   148  H    1.002865
   149  H    1.001364
   150  H    1.000354
   151  H    0.998266
   152  H    1.003424
   153  H    1.004708
   154  H    1.005189
   155  H    1.003108
   156  H    1.000317
   157  H    1.001517
   158  H    1.001359
 Sum of Mulliken charges = 624.00000

 Dipole moment (field-independent basis, Debye):
    X=            -10.2472    Y=              0.5213    Z=              5.5691  Tot=             11.6744
 Quadrupole moment (field-independent basis, Debye-Ang):
   XX=           -170.3587   YY=             -1.4393   ZZ=              3.4836
   XY=            -45.3355   XZ=             63.4291   YZ=              0.4802

 Normal termination of Gaussian 16 at Thu Oct 14 12:35:03 2021.
