 Gaussian 16, Revision A.03,
 Gaussian 16:  ES64L-G16RevA.03 25-Dec-2016

 --------------------------------------------------------
 #p PBE1PBE/Def2SVP td=(nstates=5) density=(transition=1)
 --------------------------------------------------------

 --------------------------------
 TDDFT excited states in gaussian
 --------------------------------
 Symbolic Z-matrix:
 Charge =  0 Multiplicity = 1

                         Standard orientation:
 ---------------------------------------------------------------------
 Center     Atomic      Atomic             Coordinates (Angstroms)
 Number     Number       Type             X           Y           Z
 ---------------------------------------------------------------------
      1         12           0       13.470147   -0.592352    0.029434
      2          6           0       11.416210    2.105236   -0.494152
      3          6           0       16.165671    1.525671   -0.045099
      4          6           0       15.570560   -3.320620    0.445336
      5          6           0       10.765395   -2.728657   -0.345906
      6          7           0       13.795039    1.604370   -0.292782
      7          6           0       12.755846    2.484845   -0.394102
      8          6           0       13.236842    3.852280   -0.474969
      9          6           0       14.751764    3.745928   -0.550604
     10          6           0       14.969106    2.187326   -0.315466
     11          6           0       15.481099    4.263942   -1.838109
     12          6           0       12.721971    4.719760    0.723746
     13          6           0       12.449399    6.237362    0.439919
     14          1           0       13.281346    6.906460   -0.671750
     15          7           0       15.582292   -0.814122    0.291418
     16          6           0       16.506786    0.214971    0.239497
     17          6           0       17.857799   -0.346535    0.441873
     18          6           0       17.698383   -1.791012    0.596365
     19          6           0       16.251044   -2.036836    0.472662
     20          6           0       19.141995    0.466562    0.436068
     21          6           0       18.763653   -2.803262    0.947591
     22          8           0       18.435137   -3.990245    1.119607
     23          6           0       20.209609   -2.499523    1.074125
     24          7           0       13.233730   -2.731363   -0.027588
     25          6           0       14.225638   -3.590292    0.224428
     26          6           0       13.688007   -5.026681    0.336064
     27          6           0       12.071860   -4.856986    0.336684
     28          6           0       12.016923   -3.315821    0.045890
     29          6           0       14.250221   -5.934089   -0.801256
     30          6           0       11.365041   -5.189877    1.679220
     31          6           0       10.473320   -6.440530    1.669995
     32          7           0       11.476528   -0.410945   -0.414242
     33          6           0       10.474925   -1.374420   -0.554019
     34          6           0        9.178726   -0.723089   -0.846216
     35          6           0        9.552324    0.641539   -0.840211
     36          6           0       10.943546    0.774463   -0.585507
     37          6           0        7.877749   -1.337656   -1.017306
     38          6           0        9.003202    2.011682   -0.905943
     39          8           0        7.875928    2.416548   -1.011192
     40          6           0       10.207508    3.003051   -0.725622
     41          6           0       10.213210    3.939018   -1.861273
     42          8           0       10.545275    3.549590   -2.992471
     43          8           0        9.970970    5.238225   -1.534859
     44          6           0       10.156224    6.264034   -2.556404
     45          1           0       17.002232    2.227003   -0.072830
     46          1           0       16.251625   -4.169249    0.539774
     47          1           0        9.927455   -3.428517   -0.328467
     48          1           0       12.862063    4.283341   -1.403956
     49          1           0       15.223803    4.163334    0.339570
     50          1           0       14.935907    4.722924   -2.663493
     51          1           0       16.047310    3.432691   -2.257547
     52          1           0       16.285691    4.968874   -1.627366
     53          1           0       13.384640    4.590579    1.579566
     54          1           0       11.851544    4.230941    1.160965
     55          1           0       12.587865    6.817968    1.352401
     56          1           0       11.447445    6.423577    0.054382
     57          1           0       18.972169    1.541999    0.397224
     58          1           0       19.745478    0.240559   -0.443491
     59          1           0       19.643462    0.379335    1.399760
     60          1           0       20.685336   -3.416458    1.420685
     61          1           0       20.424600   -1.680777    1.762055
     62          1           0       20.586551   -2.127465    0.121297
     63          1           0       13.931788   -5.376371    1.339336
     64          1           0       11.596239   -5.384745   -0.489895
     65          1           0       14.659381   -6.878290   -0.441604
     66          1           0       15.054548   -5.429978   -1.337702
     67          1           0       13.406732   -6.054158   -1.481533
     68          1           0       10.732958   -4.381616    2.045129
     69          1           0       12.079849   -5.331639    2.490105
     70          1           0       10.845308   -7.145395    0.926339
     71          1           0        9.469234   -6.133792    1.378736
     72          1           0       10.426227   -6.795405    2.698709
     73          1           0        7.056925   -0.633819   -0.881396
     74          1           0        7.707658   -2.180642   -0.347860
     75          1           0        7.762671   -1.574096   -2.075213
     76          1           0        9.945531    3.472164    0.223353
     77          1           0        9.453001    6.201750   -3.387333
     78          1           0       11.192603    6.298186   -2.892208
     79          1           0        9.954657    7.244641   -2.125546
     80         12           0      -13.176638   -0.753164   -0.270156
     81          6           0      -11.831070    2.192959    1.149264
     82          6           0      -15.400737    1.205516   -1.986557
     83          6           0      -14.833613   -3.505449   -1.074633
     84          6           0      -11.165541   -2.606617    1.914257
     85          7           0      -13.672179    1.447422   -0.273191
     86          6           0      -12.893046    2.448889    0.312262
     87          6           0      -13.291123    3.830525   -0.262941
     88          6           0      -14.458627    3.483741   -1.257482
     89          6           0      -14.529830    1.931670   -1.235334
     90          6           0      -15.750843    4.267887   -1.109832
     91          6           0      -12.168452    4.650462   -0.917588
     92          6           0      -12.005708    6.078701   -0.328748
     93          1           0      -12.096053    7.209092   -1.329761
     94          7           0      -14.844595   -1.080326   -1.459738
     95          6           0      -15.661483   -0.169048   -2.061973
     96          6           0      -16.584934   -0.895174   -2.900877
     97          6           0      -16.525670   -2.305179   -2.525352
     98          6           0      -15.376485   -2.303344   -1.633162
     99          6           0      -17.681327   -0.154924   -3.828499
    100          6           0      -17.486953   -3.402776   -2.687967
    101          8           0      -17.353656   -4.544729   -2.351177
    102          6           0      -18.811263   -3.035441   -3.350755
    103          7           0      -13.132997   -2.764651    0.519499
    104          6           0      -13.890155   -3.726654   -0.043048
    105          6           0      -13.426031   -5.113647    0.407687
    106          6           0      -12.061678   -4.822197    1.052921
    107          6           0      -12.071005   -3.312897    1.149329
    108          6           0      -14.456735   -5.767493    1.438107
    109          6           0      -10.903524   -5.309942    0.041826
    110          6           0      -10.703013   -4.434985   -1.225641
    111          7           0      -11.671294   -0.390199    1.172835
    112          6           0      -10.962014   -1.231131    1.942873
    113          6           0      -10.066109   -0.450166    2.752797
    114          6           0      -10.336787    0.868626    2.439509
    115          6           0      -11.378558    0.888298    1.508104
    116          6           0       -9.044938   -0.916321    3.772939
    117          6           0       -9.938529    2.224131    2.828478
    118          8           0       -9.234607    2.755041    3.640632
    119          6           0      -10.832489    3.141907    1.953312
    120          6           0      -11.587996    3.989491    2.908915
    121          8           0      -12.249722    3.504874    3.792214
    122          8           0      -11.377563    5.347262    2.729741
    123          6           0      -11.860608    6.247363    3.829846
    124          1           0      -15.957168    1.840033   -2.679717
    125          1           0      -15.267266   -4.454391   -1.398191
    126          1           0      -10.361181   -3.098088    2.465595
    127          1           0      -13.753545    4.417615    0.530800
    128          1           0      -14.155978    3.808058   -2.253325
    129          1           0      -15.798011    4.771417   -0.145391
    130          1           0      -16.648796    3.665396   -1.249198
    131          1           0      -15.698286    5.066432   -1.849447
    132          1           0      -12.242444    4.859118   -1.984883
    133          1           0      -11.211766    4.136965   -0.824527
    134          1           0      -11.119963    6.152119    0.302173
    135          1           0      -12.848348    6.254281    0.338793
    136          1           0      -17.637767   -0.607181   -4.819228
    137          1           0      -17.525657    0.908912   -4.003691
    138          1           0      -18.719088   -0.131863   -3.495987
    139          1           0      -18.509125   -2.703240   -4.344237
    140          1           0      -19.208409   -2.223407   -2.742497
    141          1           0      -19.498898   -3.870293   -3.489467
    142          1           0      -13.236442   -5.799805   -0.418432
    143          1           0      -11.840586   -5.178587    2.059250
    144          1           0      -14.379323   -6.848359    1.317564
    145          1           0      -15.516916   -5.533423    1.335775
    146          1           0      -14.069836   -5.478550    2.415186
    147          1           0      -11.028728   -6.344954   -0.275650
    148          1           0       -9.929658   -5.172476    0.511909
    149          1           0      -10.046000   -4.855818   -1.986044
    150          1           0      -10.258684   -3.492669   -0.904754
    151          1           0      -11.689819   -4.232813   -1.643380
    152          1           0       -8.241969   -1.525874    3.359090
    153          1           0       -9.630262   -1.531525    4.455829
    154          1           0       -8.647621   -0.099029    4.374805
    155          1           0      -10.108072    3.755231    1.417743
    156          1           0      -12.318912    7.023510    3.216942
    157          1           0      -11.049610    6.675580    4.418633
    158          1           0      -12.561611    5.875635    4.576766
 ---------------------------------------------------------------------

 SCF Done:  E(RPBE1PBE) =  -4067.42307152     A.U. after   16 cycles

 Excitation energies and oscillator strengths:

 Excited State   1:      Singlet-A      1.7548 eV  706.56 nm  f=0.0000  <S**2>=0.000
     312 -> 313        0.70710
 This state for optimization and/or second-order correction.
 Total Energy, E(TD-HF/TD-DFT) =  -4067.35858498
 Copying the excited state density for this state as the 1-particle RhoCI density.

 Excited State   2:      Singlet-A      1.8677 eV  663.84 nm  f=0.4576  <S**2>=0.000
     309 -> 316        0.16711
     311 -> 313        0.69076
     311 <- 313       -0.11101

 Excited State   3:      Singlet-A      1.8900 eV  656.00 nm  f=0.3099  <S**2>=0.000
     310 -> 315       -0.17918
     312 -> 314        0.68573
     312 <- 314       -0.10381

 Excited State   4:      Singlet-A      2.1432 eV  578.49 nm  f=0.0000  <S**2>=0.000
     311 -> 314        0.70709

 Excited State   5:      Singlet-A      2.2023 eV  562.97 nm  f=0.1244  <S**2>=0.000
     309 -> 313        0.66412
     311 -> 316       -0.22438

 The electronic state is 1-A.
 Alpha  occ. eigenvalues --  -46.92890 -46.92276 -19.26572 -19.25724 -19.19732
 Alpha  occ. eigenvalues --  -19.19521 -19.19416 -19.19254 -19.18600 -19.18560
 Alpha  occ. eigenvalues --  -14.41650 -14.41344 -14.41313 -14.41218 -14.39396
 Alpha  occ. eigenvalues --  -14.39180 -14.38894 -14.38824 -10.36546 -10.35733
 Alpha  occ. eigenvalues --  -10.32226 -10.32048 -10.32016 -10.31462 -10.29523
 Alpha  occ. eigenvalues --  -10.29190 -10.28979 -10.28739 -10.28497 -10.28468
 Alpha  occ. eigenvalues --  -10.28422 -10.28323 -10.28322 -10.28118 -10.27926
 Alpha  occ. eigenvalues --  -10.27824 -10.27703 -10.27670 -10.27667 -10.27382
 Alpha  occ. eigenvalues --  -10.26959 -10.26814 -10.26796 -10.26760 -10.26487
 Alpha  occ. eigenvalues --  -10.26372 -10.26075 -10.26060 -10.25809 -10.25800
 Alpha  occ. eigenvalues --  -10.25800 -10.25777 -10.25703 -10.25635 -10.25601
 Alpha  occ. eigenvalues --  -10.25502 -10.25340 -10.25290 -10.25248 -10.25218
 Alpha  occ. eigenvalues --  -10.25075 -10.24987 -10.24850 -10.24772 -10.24717
 Alpha  occ. eigenvalues --  -10.24673 -10.24622 -10.24176 -10.24162 -10.24114
 Alpha  occ. eigenvalues --  -10.24062 -10.23900 -10.23693 -10.23667 -10.23533
 Alpha  occ. eigenvalues --  -10.23519 -10.23497 -10.23457 -10.23398 -10.23337
 Alpha  occ. eigenvalues --  -10.23015 -10.23014 -10.22992 -10.22802 -10.22662
 Alpha  occ. eigenvalues --  -10.22331  -3.14878  -3.14283  -1.87700  -1.87265
 Alpha  occ. eigenvalues --   -1.87146  -1.87093  -1.86640  -1.86513  -1.11183
 Alpha  occ. eigenvalues --   -1.10354  -1.06352  -1.05809  -1.05704  -1.03595
 Alpha  occ. eigenvalues --   -1.02377  -1.01900  -0.99775  -0.99737  -0.98925
 Alpha  occ. eigenvalues --   -0.98716  -0.98496  -0.98055  -0.96570  -0.95594
 Alpha  occ. eigenvalues --   -0.86833  -0.86649  -0.83415  -0.83144  -0.83030
 Alpha  occ. eigenvalues --   -0.82578  -0.82538  -0.82042  -0.82015  -0.81508
 Alpha  occ. eigenvalues --   -0.81072  -0.80816  -0.80571  -0.80457  -0.78670
 Alpha  occ. eigenvalues --   -0.78246  -0.77831  -0.77718  -0.76719  -0.76578
 Alpha  occ. eigenvalues --   -0.75995  -0.75514  -0.75445  -0.75145  -0.74897
 Alpha  occ. eigenvalues --   -0.74388  -0.72754  -0.72633  -0.71851  -0.71661
 Alpha  occ. eigenvalues --   -0.71611  -0.71001  -0.70544  -0.70408  -0.69549
 Alpha  occ. eigenvalues --   -0.69243  -0.67510  -0.67062  -0.66191  -0.65978
 Alpha  occ. eigenvalues --   -0.63652  -0.63591  -0.63545  -0.62744  -0.62470
 Alpha  occ. eigenvalues --   -0.62464  -0.61587  -0.61360  -0.60256  -0.59868
 Alpha  occ. eigenvalues --   -0.59851  -0.59797  -0.59607  -0.59604  -0.59015
 Alpha  occ. eigenvalues --   -0.58880  -0.57311  -0.56794  -0.54979  -0.54391
 Alpha  occ. eigenvalues --   -0.54229  -0.54110  -0.53811  -0.53775  -0.53314
 Alpha  occ. eigenvalues --   -0.53215  -0.52904  -0.52572  -0.52115  -0.51863
 Alpha  occ. eigenvalues --   -0.50686  -0.50574  -0.50313  -0.49913  -0.49854
 Alpha  occ. eigenvalues --   -0.49668  -0.49265  -0.49182  -0.48621  -0.48515
 Alpha  occ. eigenvalues --   -0.48061  -0.47973  -0.47610  -0.47518  -0.47362
 Alpha  occ. eigenvalues --   -0.47052  -0.46932  -0.46895  -0.46658  -0.46604
 Alpha  occ. eigenvalues --   -0.46505  -0.46251  -0.46113  -0.46081  -0.45816
 Alpha  occ. eigenvalues --   -0.45725  -0.45675  -0.45283  -0.44865  -0.44601
 Alpha  occ. eigenvalues --   -0.44517  -0.44413  -0.44348  -0.44027  -0.43991
 Alpha  occ. eigenvalues --   -0.43923  -0.43878  -0.43613  -0.43549  -0.43141
 Alpha  occ. eigenvalues --   -0.43047  -0.43026  -0.42896  -0.42759  -0.42591
 Alpha  occ. eigenvalues --   -0.42520  -0.42221  -0.42117  -0.42001  -0.41856
 Alpha  occ. eigenvalues --   -0.41768  -0.41620  -0.41354  -0.41057  -0.40955
 Alpha  occ. eigenvalues --   -0.40856  -0.40733  -0.40649  -0.40555  -0.40452
 Alpha  occ. eigenvalues --   -0.40272  -0.40269  -0.40048  -0.39911  -0.39765
 Alpha  occ. eigenvalues --   -0.39739  -0.39316  -0.39276  -0.39133  -0.38873
 Alpha  occ. eigenvalues --   -0.38597  -0.38460  -0.38422  -0.38315  -0.38118
 Alpha  occ. eigenvalues --   -0.38061  -0.37979  -0.37827  -0.37764  -0.37671
 Alpha  occ. eigenvalues --   -0.37516  -0.37299  -0.37104  -0.36971  -0.36937
 Alpha  occ. eigenvalues --   -0.36829  -0.36597  -0.36345  -0.36275  -0.36256
 Alpha  occ. eigenvalues --   -0.35977  -0.35756  -0.35694  -0.35539  -0.35267
 Alpha  occ. eigenvalues --   -0.35199  -0.34857  -0.34633  -0.34514  -0.33954
 Alpha  occ. eigenvalues --   -0.33255  -0.33158  -0.33009  -0.32777  -0.32474
 Alpha  occ. eigenvalues --   -0.32185  -0.32059  -0.31719  -0.31654  -0.31315
 Alpha  occ. eigenvalues --   -0.31151  -0.31073  -0.29555  -0.29257  -0.29076
 Alpha  occ. eigenvalues --   -0.28913  -0.28702  -0.28490  -0.27199  -0.26688
 Alpha  occ. eigenvalues --   -0.26104  -0.25956  -0.25794  -0.25708  -0.25669
 Alpha  occ. eigenvalues --   -0.25541  -0.25120  -0.25080  -0.21089  -0.20808
 Alpha  occ. eigenvalues --   -0.19151  -0.18494
 Alpha virt. eigenvalues --   -0.11547  -0.10778  -0.05208  -0.04960  -0.03645
 Alpha virt. eigenvalues --   -0.03643  -0.01891  -0.01816  -0.01081  -0.00227
 Alpha virt. eigenvalues --    0.00355   0.00856   0.01197   0.01328   0.01948

 Mulliken charges:
               1
     1  Mg  12.000000
     2  C    6.000000
     3  C    6.000000
     4  C    6.000000
     5  C    6.000000
     6  N    7.000000
     7  C    6.000000
     8  C    6.000000
     9  C    6.000000
    10  C    6.000000
    11  C    6.000000
    12  C    6.000000
    13  C    6.000000
    14  H    1.000000
    15  N    7.000000
    16  C    6.000000
    17  C    6.000000
    18  C    6.000000
    19  C    6.000000
    20  C    6.000000
    21  C    6.000000
    22  O    8.000000
    23  C    6.000000
    24  N    7.000000
    25  C    6.000000
    26  C    6.000000
    27  C    6.000000
    28  C    6.000000
    29  C    6.000000
    30  C    6.000000
    31  C    6.000000
    32  N    7.000000
    33  C    6.000000
    34  C    6.000000
    35  C    6.000000
    36  C    6.000000
    37  C    6.000000
    38  C    6.000000
    39  O    8.000000
    40  C    6.000000
    41  C    6.000000
    42  O    8.000000
    43  O    8.000000
    44  C    6.000000
    45  H    1.000000
    46  H    1.000000
    47  H    1.000000
    48  H    1.000000
    49  H    1.000000
    50  H    1.000000
    51  H    1.000000
    52  H    1.000000
    53  H    1.000000
    54  H    1.000000
    55  H    1.000000
    56  H    1.000000
    57  H    1.000000
    58  H    1.000000
    59  H    1.000000
    60  H    1.000000
    61  H    1.000000
    62  H    1.000000
    63  H    1.000000
    64  H    1.000000
    65  H    1.000000
    66  H    1.000000
    67  H    1.000000
    68  H    1.000000
    69  H    1.000000
    70  H    1.000000
    71  H    1.000000
    72  H    1.000000
    73  H    1.000000
    74  H    1.000000
    75  H    1.000000
    76  H    1.000000
    77  H    1.000000
    78  H    1.000000
    79  H    1.000000
    80  Mg  12.000000
    81  C    6.000000
    82  C    6.000000
    83  C    6.000000
    84  C    6.000000
    85  N    7.000000
    86  C    6.000000
    87  C    6.000000
    88  C    6.000000
    89  C    6.000000
    90  C    6.000000
    91  C    6.000000
    92  C    6.000000
    93  H    1.000000
    94  N    7.000000
    95  C    6.000000
    96  C    6.000000
    97  C    6.000000
    98  C    6.000000
    99  C    6.000000
   100  C    6.000000
   101  O    8.000000
   102  C    6.000000
   103  N    7.000000
   104  C    6.000000
   105  C    6.000000
   106  C    6.000000
   107  C    6.000000
   108  C    6.000000
   109  C    6.000000
   110  C    6.000000
   111  N    7.000000
   112  C    6.000000
   113  C    6.000000
   114  C    6.000000
   115  C    6.000000
   116  C    6.000000
   117  C    6.000000
   118  O    8.000000
   119  C    6.000000
   120  C    6.000000
   121  O    8.000000
   122  O    8.000000
   123  C    6.000000
   124  H    1.000000
   125  H    1.000000
   126  H    1.000000
   127  H    1.000000
   128  H    1.000000
   129  H    1.000000
   130  H    1.000000
   131  H    1.000000
   132  H    1.000000
   133  H    1.000000
   134  H    1.000000
   135  H    1.000000
   136  H    1.000000
   137  H    1.000000
   138  H    1.000000
   139  H    1.000000
   140  H    1.000000
   141  H    1.000000
   142  H    1.000000
   143  H    1.000000
   144  H    1.000000
   145  H    1.000000
   146  H    1.000000
   147  H    1.000000
   148  H    1.000000
   149  H    1.000000
   150  H    1.000000
   151  H    1.000000
   152  H    1.000000
   153  H    1.000000
   154  H    1.000000
   155  H    1.000000
   156  H    1.000000
   157  H    1.000000
   158  H    1.000000
 Sum of Mulliken charges = 624.00000

 Dipole moment (field-independent basis, Debye):
    X=              0.0000    Y=              0.0000    Z=              0.0000  Tot=              0.0000
 Quadrupole moment (field-independent basis, Debye-Ang):
   XX=              0.0000   YY=             -0.0000   ZZ=              0.0000
   XY=             -0.0000   XZ=              0.0000   YZ=             -0.0000

 Normal termination of Gaussian 16 at Fri Oct 15 02:28:23 2021.
