 Gaussian 16, Revision A.03,
 Gaussian 16:  ES64L-G16RevA.03 25-Dec-2016

 --------------------------------------------------------
 #p PBE1PBE/Def2SVP td=(nstates=5) density=(transition=1)
 --------------------------------------------------------

 --------------------------------
 TDDFT excited states in gaussian
 --------------------------------
 Symbolic Z-matrix:
 Charge =  0 Multiplicity = 1

                         Standard orientation:
 ---------------------------------------------------------------------
 Center     Atomic      Atomic             Coordinates (Angstroms)
 Number     Number       Type             X           Y           Z
 ---------------------------------------------------------------------
      1         12           0       25.513034   -0.524229    0.265352
      2          6           0       24.071108    2.751418    0.474995
      3          6           0       26.665559    0.315733   -2.874342
      4          6           0       26.256585   -3.679832   -0.140248
      5          6           0       24.060953   -1.181627    3.342644
      6          7           0       25.133612    1.290201   -1.200653
      7          6           0       24.623648    2.490493   -0.785502
      8          6           0       24.961104    3.585988   -1.832122
      9          6           0       25.751714    2.794677   -2.956432
     10          6           0       25.869995    1.344238   -2.361281
     11          6           0       25.118038    2.740023   -4.409931
     12          6           0       25.786790    4.783861   -1.291611
     13          6           0       25.365460    6.153267   -1.690689
     14          1           0       24.440773    6.452309   -2.931946
     15          7           0       26.360745   -1.604657   -1.325107
     16          6           0       26.904749   -1.081820   -2.498010
     17          6           0       27.418827   -2.193572   -3.320706
     18          6           0       27.398660   -3.354732   -2.456231
     19          6           0       26.649836   -2.919446   -1.254455
     20          6           0       27.930203   -2.088498   -4.725579
     21          6           0       27.958058   -4.782450   -2.660034
     22          8           0       28.156820   -5.610768   -1.746428
     23          6           0       28.450460   -5.133954   -4.006162
     24          7           0       25.147041   -2.133052    1.390030
     25          6           0       25.522135   -3.379106    0.937916
     26          6           0       25.378055   -4.448445    2.056035
     27          6           0       25.009585   -3.527602    3.302299
     28          6           0       24.731419   -2.181282    2.656563
     29          6           0       24.360544   -5.639248    1.825968
     30          6           0       26.053021   -3.400657    4.400921
     31          6           0       25.657950   -3.995612    5.768772
     32          7           0       24.476425    0.583002    1.737879
     33          6           0       23.925166    0.164238    2.925687
     34          6           0       23.182364    1.266554    3.550521
     35          6           0       23.280157    2.298010    2.633510
     36          6           0       24.067758    1.844663    1.551818
     37          6           0       22.417409    1.280151    4.832694
     38          6           0       22.897730    3.651526    2.447904
     39          8           0       22.323286    4.482404    3.207626
     40          6           0       23.364340    3.996792    1.097409
     41          6           0       22.230157    4.560582    0.284899
     42          8           0       21.307741    3.943138   -0.125643
     43          8           0       22.450116    5.850695    0.032519
     44          6           0       21.382912    6.661564   -0.447138
     45          1           0       27.056078    0.493295   -3.878705
     46          1           0       26.484238   -4.748373   -0.115573
     47          1           0       23.543001   -1.422445    4.272460
     48          1           0       24.001078    3.952546   -2.197441
     49          1           0       26.758539    3.199161   -3.055897
     50          1           0       24.253459    3.384421   -4.566688
     51          1           0       24.737680    1.726688   -4.546698
     52          1           0       25.881474    2.927699   -5.165553
     53          1           0       26.833619    4.748196   -1.595491
     54          1           0       25.789021    4.837224   -0.203300
     55          1           0       26.242533    6.744640   -1.955340
     56          1           0       24.889450    6.609154   -0.822982
     57          1           0       27.395408   -2.796160   -5.358696
     58          1           0       28.981215   -2.375159   -4.689391
     59          1           0       27.966354   -1.052204   -5.063155
     60          1           0       27.600518   -5.089984   -4.687236
     61          1           0       28.750526   -6.179348   -3.938133
     62          1           0       29.341698   -4.568792   -4.277547
     63          1           0       26.382926   -4.844011    2.207303
     64          1           0       24.108699   -3.950078    3.747181
     65          1           0       23.882811   -5.540925    0.851840
     66          1           0       23.653231   -5.763239    2.646885
     67          1           0       24.937251   -6.563607    1.862372
     68          1           0       26.493890   -2.414125    4.544762
     69          1           0       26.910343   -3.993963    4.084726
     70          1           0       25.889770   -3.400898    6.652104
     71          1           0       26.330258   -4.835368    5.946635
     72          1           0       24.610098   -4.273291    5.874501
     73          1           0       22.687581    0.454022    5.491056
     74          1           0       21.365229    1.069832    4.641450
     75          1           0       22.495588    2.293336    5.226766
     76          1           0       24.133468    4.756342    1.235023
     77          1           0       20.724389    6.831463    0.405840
     78          1           0       20.768777    6.114845   -1.162860
     79          1           0       21.745937    7.634023   -0.780819
     80         12           0      -24.771715   -0.983024   -0.129267
     81          6           0      -26.326872    2.211449    0.773082
     82          6           0      -22.673077    0.874698   -2.231771
     83          6           0      -23.574423   -3.800200   -1.250692
     84          6           0      -26.807909   -2.571336    2.127524
     85          7           0      -24.668195    1.222205   -0.814727
     86          6           0      -25.308546    2.392670   -0.227475
     87          6           0      -24.874614    3.727890   -0.869431
     88          6           0      -23.825029    3.153548   -1.987019
     89          6           0      -23.691292    1.643984   -1.706134
     90          6           0      -24.226850    3.458251   -3.417055
     91          6           0      -24.312278    4.699817    0.211614
     92          6           0      -23.589018    5.901158   -0.318632
     93          1           0      -23.846207    7.261799    0.289793
     94          7           0      -23.319306   -1.445178   -1.581233
     95          6           0      -22.553712   -0.551526   -2.338754
     96          6           0      -21.616515   -1.295454   -3.178349
     97          6           0      -21.857749   -2.703316   -2.901467
     98          6           0      -22.957819   -2.737674   -1.868138
     99          6           0      -20.520325   -0.645839   -4.100225
    100          6           0      -21.263540   -3.935884   -3.481710
    101          8           0      -21.536215   -5.077153   -3.134001
    102          6           0      -20.179810   -3.835432   -4.473581
    103          7           0      -25.057822   -2.850694    0.412001
    104          6           0      -24.549732   -3.878404   -0.270608
    105          6           0      -24.986629   -5.248444    0.298983
    106          6           0      -25.629389   -4.827484    1.604239
    107          6           0      -25.925301   -3.296925    1.360412
    108          6           0      -25.939162   -6.006062   -0.618746
    109          6           0      -24.968011   -5.024729    2.943678
    110          6           0      -23.677586   -4.253382    3.120741
    111          7           0      -26.327299   -0.378539    1.116731
    112          6           0      -27.002034   -1.162874    2.069624
    113          6           0      -27.942534   -0.329714    2.777550
    114          6           0      -27.610308    0.969743    2.315385
    115          6           0      -26.638277    0.903813    1.298993
    116          6           0      -28.878001   -0.707261    3.888814
    117          6           0      -27.951543    2.402947    2.573444
    118          8           0      -28.669499    2.928117    3.451099
    119          6           0      -27.147566    3.208278    1.555117
    120          6           0      -28.085621    4.084040    0.721806
    121          8           0      -29.003720    3.759328   -0.087844
    122          8           0      -27.667760    5.372356    0.879909
    123          6           0      -28.395934    6.386282    0.083936
    124          1           0      -21.897642    1.465041   -2.722383
    125          1           0      -23.234402   -4.755502   -1.655835
    126          1           0      -27.504577   -3.011859    2.843958
    127          1           0      -25.797760    4.179250   -1.232872
    128          1           0      -22.827763    3.528718   -1.757128
    129          1           0      -23.426248    4.030761   -3.886299
    130          1           0      -25.122457    4.075661   -3.357623
    131          1           0      -24.651662    2.645466   -4.005741
    132          1           0      -23.746749    4.071546    0.900641
    133          1           0      -25.144193    5.061808    0.815875
    134          1           0      -23.748358    6.152062   -1.367073
    135          1           0      -22.521307    5.784396   -0.135239
    136          1           0      -19.572817   -0.991633   -3.685987
    137          1           0      -20.530733    0.443908   -4.085647
    138          1           0      -20.701215   -1.032879   -5.103092
    139          1           0      -20.350420   -3.077175   -5.238083
    140          1           0      -20.165817   -4.822447   -4.934529
    141          1           0      -19.337427   -3.454758   -3.896820
    142          1           0      -24.082073   -5.844354    0.421043
    143          1           0      -26.573553   -5.343441    1.780973
    144          1           0      -25.664510   -7.060178   -0.605563
    145          1           0      -25.871487   -5.643919   -1.644045
    146          1           0      -26.946263   -6.004433   -0.200249
    147          1           0      -24.859319   -6.097219    3.107412
    148          1           0      -25.571118   -4.595366    3.743512
    149          1           0      -22.888479   -4.870139    3.549316
    150          1           0      -23.774538   -3.425400    3.823342
    151          1           0      -23.263604   -3.851387    2.195929
    152          1           0      -28.730139   -0.036120    4.734514
    153          1           0      -28.864916   -1.711988    4.311179
    154          1           0      -29.890221   -0.568221    3.508528
    155          1           0      -26.514443    3.907853    2.101619
    156          1           0      -27.811703    6.651320   -0.797028
    157          1           0      -28.509680    7.149128    0.854163
    158          1           0      -29.414143    6.076416   -0.154769
 ---------------------------------------------------------------------

 SCF Done:  E(RPBE1PBE) =  -4067.38351190     A.U. after   17 cycles

 Excitation energies and oscillator strengths:

 Excited State   1:      Singlet-A      1.8175 eV  682.18 nm  f=0.3866  <S**2>=0.000
     309 -> 315       -0.16213
     311 -> 313        0.69597
     311 <- 313       -0.11404
 This state for optimization and/or second-order correction.
 Total Energy, E(TD-HF/TD-DFT) =  -4067.31672113
 Copying the excited state density for this state as the 1-particle RhoCI density.

 Excited State   2:      Singlet-A      1.8640 eV  665.15 nm  f=0.4053  <S**2>=0.000
     310 -> 316        0.17340
     312 -> 314        0.69405
     312 <- 314       -0.11115

 Excited State   3:      Singlet-A      1.9023 eV  651.76 nm  f=0.0000  <S**2>=0.000
     312 -> 313        0.70711

 Excited State   4:      Singlet-A      2.0264 eV  611.83 nm  f=0.0000  <S**2>=0.000
     311 -> 314        0.70711

 Excited State   5:      Singlet-A      2.1799 eV  568.77 nm  f=0.1273  <S**2>=0.000
     309 -> 313        0.66145
     311 -> 315        0.23366

 The electronic state is 1-A.
 Alpha  occ. eigenvalues --  -46.92326 -46.91164 -19.26515 -19.25555 -19.20011
 Alpha  occ. eigenvalues --  -19.19755 -19.19047 -19.19009 -19.18903 -19.18774
 Alpha  occ. eigenvalues --  -14.42088 -14.41660 -14.41554 -14.41180 -14.39521
 Alpha  occ. eigenvalues --  -14.39362 -14.39242 -14.38675 -10.37096 -10.35933
 Alpha  occ. eigenvalues --  -10.32318 -10.31989 -10.31613 -10.31600 -10.29914
 Alpha  occ. eigenvalues --  -10.29281 -10.29209 -10.29049 -10.28903 -10.28796
 Alpha  occ. eigenvalues --  -10.28659 -10.28651 -10.28575 -10.28567 -10.28277
 Alpha  occ. eigenvalues --  -10.28144 -10.27979 -10.27855 -10.27603 -10.27498
 Alpha  occ. eigenvalues --  -10.27316 -10.26835 -10.26804 -10.26763 -10.26741
 Alpha  occ. eigenvalues --  -10.26571 -10.26558 -10.26460 -10.26327 -10.26156
 Alpha  occ. eigenvalues --  -10.26112 -10.26099 -10.25881 -10.25830 -10.25818
 Alpha  occ. eigenvalues --  -10.25709 -10.25680 -10.25478 -10.25442 -10.25310
 Alpha  occ. eigenvalues --  -10.25132 -10.25127 -10.25095 -10.25016 -10.24845
 Alpha  occ. eigenvalues --  -10.24707 -10.24625 -10.24469 -10.24320 -10.24312
 Alpha  occ. eigenvalues --  -10.23830 -10.23710 -10.23692 -10.23549 -10.23467
 Alpha  occ. eigenvalues --  -10.23457 -10.23336 -10.23260 -10.23063 -10.23031
 Alpha  occ. eigenvalues --  -10.22942 -10.22922 -10.22885 -10.22724 -10.22617
 Alpha  occ. eigenvalues --  -10.21978  -3.14483  -3.13481  -1.87306  -1.86872
 Alpha  occ. eigenvalues --   -1.86705  -1.86328  -1.85868  -1.85706  -1.13332
 Alpha  occ. eigenvalues --   -1.10873  -1.04898  -1.04449  -1.03240  -1.02698
 Alpha  occ. eigenvalues --   -1.02564  -1.00657  -0.99661  -0.99364  -0.98385
 Alpha  occ. eigenvalues --   -0.97705  -0.97261  -0.96728  -0.96557  -0.95155
 Alpha  occ. eigenvalues --   -0.87803  -0.86767  -0.83994  -0.83494  -0.83129
 Alpha  occ. eigenvalues --   -0.82952  -0.82758  -0.82717  -0.81918  -0.81620
 Alpha  occ. eigenvalues --   -0.81315  -0.81081  -0.80651  -0.80340  -0.79018
 Alpha  occ. eigenvalues --   -0.78863  -0.78407  -0.77824  -0.77223  -0.76892
 Alpha  occ. eigenvalues --   -0.76369  -0.76307  -0.76053  -0.75813  -0.74876
 Alpha  occ. eigenvalues --   -0.74405  -0.72704  -0.72662  -0.72022  -0.71621
 Alpha  occ. eigenvalues --   -0.71478  -0.71205  -0.70627  -0.70328  -0.69809
 Alpha  occ. eigenvalues --   -0.69633  -0.67568  -0.67295  -0.66331  -0.65993
 Alpha  occ. eigenvalues --   -0.64588  -0.63817  -0.63754  -0.63414  -0.62056
 Alpha  occ. eigenvalues --   -0.61891  -0.61628  -0.60786  -0.60384  -0.59584
 Alpha  occ. eigenvalues --   -0.59466  -0.59269  -0.59231  -0.58989  -0.58755
 Alpha  occ. eigenvalues --   -0.58380  -0.57538  -0.56584  -0.54761  -0.54669
 Alpha  occ. eigenvalues --   -0.54503  -0.53933  -0.53795  -0.53710  -0.53512
 Alpha  occ. eigenvalues --   -0.52915  -0.52821  -0.52391  -0.52287  -0.51949
 Alpha  occ. eigenvalues --   -0.50901  -0.50816  -0.50760  -0.50452  -0.49989
 Alpha  occ. eigenvalues --   -0.49787  -0.49668  -0.49525  -0.49353  -0.48945
 Alpha  occ. eigenvalues --   -0.48348  -0.48003  -0.47859  -0.47778  -0.47659
 Alpha  occ. eigenvalues --   -0.47494  -0.47346  -0.47332  -0.47080  -0.46990
 Alpha  occ. eigenvalues --   -0.46808  -0.46227  -0.46152  -0.45960  -0.45845
 Alpha  occ. eigenvalues --   -0.45823  -0.45418  -0.45168  -0.45002  -0.44810
 Alpha  occ. eigenvalues --   -0.44773  -0.44632  -0.44495  -0.44400  -0.43942
 Alpha  occ. eigenvalues --   -0.43902  -0.43734  -0.43512  -0.43477  -0.43427
 Alpha  occ. eigenvalues --   -0.43283  -0.43219  -0.42999  -0.42957  -0.42940
 Alpha  occ. eigenvalues --   -0.42752  -0.42427  -0.42422  -0.42159  -0.42123
 Alpha  occ. eigenvalues --   -0.41733  -0.41571  -0.41522  -0.41484  -0.41328
 Alpha  occ. eigenvalues --   -0.40953  -0.40920  -0.40903  -0.40705  -0.40641
 Alpha  occ. eigenvalues --   -0.40497  -0.40471  -0.40201  -0.40088  -0.39694
 Alpha  occ. eigenvalues --   -0.39564  -0.39298  -0.39253  -0.39147  -0.39117
 Alpha  occ. eigenvalues --   -0.39088  -0.38844  -0.38483  -0.38360  -0.38337
 Alpha  occ. eigenvalues --   -0.38032  -0.37910  -0.37626  -0.37480  -0.37447
 Alpha  occ. eigenvalues --   -0.37353  -0.37047  -0.36870  -0.36690  -0.36625
 Alpha  occ. eigenvalues --   -0.36527  -0.36483  -0.36322  -0.36147  -0.36083
 Alpha  occ. eigenvalues --   -0.35847  -0.35736  -0.35355  -0.35214  -0.34978
 Alpha  occ. eigenvalues --   -0.34847  -0.34659  -0.34201  -0.34002  -0.33959
 Alpha  occ. eigenvalues --   -0.33848  -0.33222  -0.32890  -0.32334  -0.32177
 Alpha  occ. eigenvalues --   -0.32014  -0.31817  -0.31585  -0.31396  -0.31267
 Alpha  occ. eigenvalues --   -0.31186  -0.30919  -0.29534  -0.29508  -0.29274
 Alpha  occ. eigenvalues --   -0.29132  -0.28618  -0.28517  -0.27115  -0.27081
 Alpha  occ. eigenvalues --   -0.26149  -0.26049  -0.25854  -0.25785  -0.25697
 Alpha  occ. eigenvalues --   -0.25386  -0.25343  -0.25015  -0.21162  -0.21030
 Alpha  occ. eigenvalues --   -0.19107  -0.18953
 Alpha virt. eigenvalues --   -0.11697  -0.11397  -0.05236  -0.05067  -0.04378
 Alpha virt. eigenvalues --   -0.03873  -0.02410  -0.02205  -0.00533  -0.00327
 Alpha virt. eigenvalues --    0.00092   0.01157   0.01470   0.01636   0.01714

 Mulliken charges:
               1
     1  Mg  12.000003
     2  C    5.999929
     3  C    5.999963
     4  C    6.000030
     5  C    6.000040
     6  N    6.999983
     7  C    6.000011
     8  C    5.999992
     9  C    6.000019
    10  C    6.000008
    11  C    5.999996
    12  C    6.000001
    13  C    5.999993
    14  H    0.999969
    15  N    7.000018
    16  C    6.000039
    17  C    5.999996
    18  C    6.000002
    19  C    5.999968
    20  C    5.999969
    21  C    6.000001
    22  O    8.000002
    23  C    5.999995
    24  N    6.999985
    25  C    5.999963
    26  C    6.000010
    27  C    5.999989
    28  C    5.999997
    29  C    5.999997
    30  C    5.999993
    31  C    5.999997
    32  N    7.000003
    33  C    5.999994
    34  C    6.000037
    35  C    5.999987
    36  C    6.000011
    37  C    6.000021
    38  C    5.999962
    39  O    8.000025
    40  C    6.000024
    41  C    5.999994
    42  O    7.999973
    43  O    8.000015
    44  C    6.000007
    45  H    0.999999
    46  H    0.999998
    47  H    0.999999
    48  H    0.999974
    49  H    1.000019
    50  H    0.999972
    51  H    0.999974
    52  H    1.000012
    53  H    1.000027
    54  H    1.000016
    55  H    1.000029
    56  H    1.000008
    57  H    0.999978
    58  H    1.000023
    59  H    1.000004
    60  H    0.999974
    61  H    1.000003
    62  H    1.000024
    63  H    1.000023
    64  H    0.999989
    65  H    0.999967
    66  H    0.999987
    67  H    1.000011
    68  H    1.000021
    69  H    1.000019
    70  H    1.000025
    71  H    1.000018
    72  H    0.999981
    73  H    1.000015
    74  H    0.999969
    75  H    1.000024
    76  H    1.000026
    77  H    0.999997
    78  H    0.999963
    79  H    1.000018
    80  Mg  11.997802
    81  C    6.016092
    82  C    5.994020
    83  C    5.985565
    84  C    6.009669
    85  N    7.005756
    86  C    5.968597
    87  C    6.010420
    88  C    5.992280
    89  C    6.024298
    90  C    5.993316
    91  C    6.002999
    92  C    5.999597
    93  H    0.999495
    94  N    6.995710
    95  C    6.035615
    96  C    6.021760
    97  C    6.015212
    98  C    6.029076
    99  C    6.001383
   100  C    6.011947
   101  O    8.030320
   102  C    5.996822
   103  N    7.001285
   104  C    6.033230
   105  C    5.992560
   106  C    6.001703
   107  C    5.967495
   108  C    5.998310
   109  C    6.006987
   110  C    6.005009
   111  N    7.001414
   112  C    5.960655
   113  C    5.978249
   114  C    5.993964
   115  C    5.967603
   116  C    6.002753
   117  C    5.980818
   118  O    7.969331
   119  C    6.001970
   120  C    5.997210
   121  O    7.994462
   122  O    7.998170
   123  C    6.001133
   124  H    1.010628
   125  H    1.006302
   126  H    0.990741
   127  H    1.000043
   128  H    0.999933
   129  H    1.001293
   130  H    1.012767
   131  H    0.997972
   132  H    0.997598
   133  H    1.005780
   134  H    0.995364
   135  H    0.994910
   136  H    1.015300
   137  H    1.016870
   138  H    1.014867
   139  H    1.006824
   140  H    1.013815
   141  H    1.007820
   142  H    0.998498
   143  H    0.999691
   144  H    1.002414
   145  H    0.994726
   146  H    1.012519
   147  H    0.989939
   148  H    1.004429
   149  H    0.994251
   150  H    1.005478
   151  H    0.985270
   152  H    0.985677
   153  H    0.982600
   154  H    0.983275
   155  H    0.991875
   156  H    0.993473
   157  H    0.997108
   158  H    0.997889
 Sum of Mulliken charges = 624.00000

 Dipole moment (field-independent basis, Debye):
    X=              7.2462    Y=             -3.1931    Z=             -7.0351  Tot=             10.5923
 Quadrupole moment (field-independent basis, Debye-Ang):
   XX=           -357.9675   YY=              2.2830   ZZ=              3.9167
   XY=             74.0036   XZ=            171.4048   YZ=              7.9721

 Normal termination of Gaussian 16 at Fri Oct 15 09:59:47 2021.
