 Gaussian 16, Revision A.03,
 Gaussian 16:  ES64L-G16RevA.03 25-Dec-2016

 --------------------------------------------------------
 #p PBE1PBE/Def2SVP td=(nstates=5) density=(transition=1)
 --------------------------------------------------------

 --------------------------------
 TDDFT excited states in gaussian
 --------------------------------
 Symbolic Z-matrix:
 Charge =  0 Multiplicity = 1

                         Standard orientation:
 ---------------------------------------------------------------------
 Center     Atomic      Atomic             Coordinates (Angstroms)
 Number     Number       Type             X           Y           Z
 ---------------------------------------------------------------------
      1         12           0       17.525840   -0.690996    0.085253
      2          6           0       15.752215    2.413387    0.349877
      3          6           0       20.425357    1.046343    0.767886
      4          6           0       19.162863   -3.384933   -0.773855
      5          6           0       14.507444   -2.152372   -0.788872
      6          7           0       18.076477    1.601637    0.246259
      7          6           0       17.140272    2.582188    0.433764
      8          6           0       17.830573    3.857996    0.986212
      9          6           0       19.360057    3.446684    1.068745
     10          6           0       19.348862    1.930558    0.652566
     11          6           0       20.394083    4.252162    0.174771
     12          6           0       17.299941    4.354886    2.357466
     13          6           0       17.050274    5.812263    2.518009
     14          1           0       17.676357    6.911375    1.577178
     15          7           0       19.573050   -1.153999   -0.015062
     16          6           0       20.633635   -0.366361    0.431912
     17          6           0       21.896763   -1.092164    0.197786
     18          6           0       21.507185   -2.442625   -0.149348
     19          6           0       20.039357   -2.376875   -0.338116
     20          6           0       23.278264   -0.539774    0.378163
     21          6           0       22.351165   -3.723464   -0.349322
     22          8           0       21.897735   -4.887374   -0.346814
     23          6           0       23.819041   -3.572976   -0.377004
     24          7           0       16.919468   -2.421729   -0.704708
     25          6           0       17.850364   -3.381047   -1.037715
     26          6           0       17.164128   -4.728548   -1.395141
     27          6           0       15.650168   -4.397946   -1.027009
     28          6           0       15.676733   -2.895319   -0.807158
     29          6           0       17.349584   -5.297062   -2.860974
     30          6           0       15.058499   -5.115058    0.176122
     31          6           0       13.908972   -6.097526   -0.131147
     32          7           0       15.499778   -0.092710    0.007916
     33          6           0       14.390516   -0.797686   -0.395426
     34          6           0       13.214009    0.081496   -0.407318
     35          6           0       13.720066    1.322250   -0.062628
     36          6           0       15.104397    1.175406    0.178121
     37          6           0       11.803825   -0.236066   -0.781277
     38          6           0       13.305286    2.658594    0.171567
     39          8           0       12.162514    3.196946    0.213661
     40          6           0       14.546349    3.401767    0.432769
     41          6           0       14.636267    4.597469   -0.476413
     42          8           0       14.833177    4.558603   -1.642753
     43          8           0       14.531063    5.718665    0.236554
     44          6           0       14.279856    6.950912   -0.430504
     45          1           0       21.390149    1.518955    0.964339
     46          1           0       19.567424   -4.361826   -1.049944
     47          1           0       13.578334   -2.603959   -1.140511
     48          1           0       17.662153    4.633563    0.238145
     49          1           0       19.705279    3.508415    2.100350
     50          1           0       19.993514    5.136434   -0.320129
     51          1           0       20.687389    3.587294   -0.638953
     52          1           0       21.283358    4.503284    0.753692
     53          1           0       17.977199    4.127199    3.181449
     54          1           0       16.340215    3.912674    2.623264
     55          1           0       17.429653    6.145369    3.484514
     56          1           0       15.970481    5.957511    2.501177
     57          1           0       23.845770   -0.678174   -0.541842
     58          1           0       23.741751   -1.130528    1.168289
     59          1           0       23.256656    0.465854    0.799372
     60          1           0       24.068909   -2.961143   -1.243851
     61          1           0       24.206519   -4.572958   -0.570424
     62          1           0       24.218007   -3.263289    0.588544
     63          1           0       17.544582   -5.447049   -0.668413
     64          1           0       15.051859   -4.662765   -1.898731
     65          1           0       17.979445   -4.627508   -3.445604
     66          1           0       16.405097   -5.541992   -3.348340
     67          1           0       17.832506   -6.269891   -2.767459
     68          1           0       14.790812   -4.495040    1.031822
     69          1           0       15.850196   -5.743051    0.583348
     70          1           0       13.043794   -6.068764    0.530926
     71          1           0       14.279194   -7.093276    0.114294
     72          1           0       13.502383   -6.042968   -1.140100
     73          1           0       11.598481   -1.306894   -0.772195
     74          1           0       11.631745    0.008833   -1.829277
     75          1           0       11.171279    0.410045   -0.172694
     76          1           0       14.482156    3.730194    1.469797
     77          1           0       13.233244    6.921811   -0.736850
     78          1           0       14.837511    7.009245   -1.365351
     79          1           0       14.400761    7.797264    0.246162
     80         12           0      -17.341811   -0.813160    0.229901
     81          6           0      -17.671606    2.391165   -1.200396
     82          6           0      -16.470756    0.778655    3.171332
     83          6           0      -16.865893   -3.849478    1.716125
     84          6           0      -17.868440   -2.225123   -2.769815
     85          7           0      -17.131007    1.369654    0.922535
     86          6           0      -17.445473    2.524541    0.216456
     87          6           0      -17.479353    3.720646    1.146483
     88          6           0      -16.739692    3.206819    2.434906
     89          6           0      -16.802012    1.720234    2.164873
     90          6           0      -15.296701    3.799522    2.679313
     91          6           0      -18.904060    4.166750    1.507534
     92          6           0      -19.104476    5.679723    1.645795
     93          1           0      -18.445989    6.407539    2.850682
     94          7           0      -16.842191   -1.456182    2.180937
     95          6           0      -16.495387   -0.611460    3.179269
     96          6           0      -16.080139   -1.384102    4.304654
     97          6           0      -16.301842   -2.775101    4.016551
     98          6           0      -16.628034   -2.735966    2.601933
     99          6           0      -15.566286   -0.747844    5.566287
    100          6           0      -16.100015   -4.036051    4.857081
    101          8           0      -16.512725   -5.153603    4.475899
    102          6           0      -15.320134   -4.033365    6.166983
    103          7           0      -17.453272   -2.735250   -0.407404
    104          6           0      -17.150089   -3.863006    0.349465
    105          6           0      -17.224428   -5.071160   -0.526697
    106          6           0      -17.614364   -4.634909   -1.984742
    107          6           0      -17.703938   -3.119360   -1.743333
    108          6           0      -15.999519   -6.028729   -0.421008
    109          6           0      -18.938271   -5.218893   -2.523618
    110          6           0      -18.746344   -6.473595   -3.397311
    111          7           0      -17.648817   -0.139836   -1.604038
    112          6           0      -17.925446   -0.811761   -2.793875
    113          6           0      -18.233439    0.128286   -3.934593
    114          6           0      -18.095051    1.372802   -3.298853
    115          6           0      -17.802911    1.172473   -1.911422
    116          6           0      -18.585270   -0.253737   -5.360800
    117          6           0      -18.181450    2.799430   -3.572052
    118          8           0      -18.398148    3.409873   -4.619644
    119          6           0      -18.022531    3.495967   -2.154312
    120          6           0      -16.921638    4.557527   -2.346433
    121          8           0      -15.902252    4.431005   -2.992983
    122          8           0      -17.362324    5.758221   -1.793114
    123          6           0      -16.387827    6.841043   -1.928375
    124          1           0      -16.277988    1.312988    4.103749
    125          1           0      -16.747853   -4.868736    2.089196
    126          1           0      -17.906336   -2.754893   -3.723580
    127          1           0      -16.938987    4.594216    0.782647
    128          1           0      -17.247003    3.434947    3.372331
    129          1           0      -14.990449    4.589692    1.993186
    130          1           0      -14.463819    3.100341    2.608725
    131          1           0      -15.237689    4.278567    3.656637
    132          1           0      -19.239134    3.708656    2.437828
    133          1           0      -19.607064    3.882231    0.724377
    134          1           0      -20.158592    5.954952    1.614239
    135          1           0      -18.739767    6.208432    0.765384
    136          1           0      -14.828070   -0.047501    5.175287
    137          1           0      -15.036473   -1.383213    6.275862
    138          1           0      -16.308300   -0.180781    6.127921
    139          1           0      -14.356891   -3.537870    6.044425
    140          1           0      -15.226421   -5.099284    6.374163
    141          1           0      -15.859511   -3.492108    6.944286
    142          1           0      -17.962583   -5.735126   -0.075808
    143          1           0      -16.838473   -4.784680   -2.736624
    144          1           0      -15.277331   -5.568517    0.253694
    145          1           0      -15.541511   -6.122301   -1.405314
    146          1           0      -16.418868   -6.945722   -0.005690
    147          1           0      -19.484840   -4.400878   -2.992366
    148          1           0      -19.546045   -5.616403   -1.710491
    149          1           0      -17.804059   -6.959317   -3.143028
    150          1           0      -18.645563   -6.310914   -4.470542
    151          1           0      -19.545988   -7.174687   -3.156438
    152          1           0      -19.597688   -0.657661   -5.344471
    153          1           0      -17.956929   -1.021460   -5.811907
    154          1           0      -18.546384    0.674361   -5.930861
    155          1           0      -18.916590    3.981943   -1.764143
    156          1           0      -15.678059    6.923577   -1.104707
    157          1           0      -17.006188    7.733685   -2.021784
    158          1           0      -15.707150    6.840775   -2.779699
 ---------------------------------------------------------------------

 SCF Done:  E(RPBE1PBE) =  -4067.40420325     A.U. after   16 cycles

 Excitation energies and oscillator strengths:

 Excited State   1:      Singlet-A      1.8492 eV  670.48 nm  f=0.3698  <S**2>=0.000
     310 -> 315       -0.18112
     312 -> 314        0.69126
     312 <- 314       -0.10445
 This state for optimization and/or second-order correction.
 Total Energy, E(TD-HF/TD-DFT) =  -4067.33624658
 Copying the excited state density for this state as the 1-particle RhoCI density.

 Excited State   2:      Singlet-A      1.8640 eV  665.15 nm  f=0.4017  <S**2>=0.000
     309 -> 316        0.17333
     311 -> 313        0.69395
     311 <- 313       -0.11113

 Excited State   3:      Singlet-A      1.8818 eV  658.85 nm  f=0.0000  <S**2>=0.000
     312 -> 313        0.70710

 Excited State   4:      Singlet-A      2.0449 eV  606.31 nm  f=0.0000  <S**2>=0.000
     311 -> 314        0.70710

 Excited State   5:      Singlet-A      2.2041 eV  562.53 nm  f=0.1187  <S**2>=0.000
     309 -> 313        0.66060
     311 -> 316       -0.24066

 The electronic state is 1-A.
 Alpha  occ. eigenvalues --  -46.92311 -46.91055 -19.26385 -19.25538 -19.20594
 Alpha  occ. eigenvalues --  -19.19737 -19.19349 -19.19318 -19.19032 -19.18994
 Alpha  occ. eigenvalues --  -14.42014 -14.41539 -14.41164 -14.40947 -14.39576
 Alpha  occ. eigenvalues --  -14.39346 -14.39226 -14.39050 -10.36685 -10.35915
 Alpha  occ. eigenvalues --  -10.32880 -10.32303 -10.32257 -10.31584 -10.29281
 Alpha  occ. eigenvalues --  -10.29266 -10.28888 -10.28685 -10.28641 -10.28552
 Alpha  occ. eigenvalues --  -10.28440 -10.28350 -10.28262 -10.28207 -10.28177
 Alpha  occ. eigenvalues --  -10.28143 -10.27963 -10.27587 -10.27482 -10.27059
 Alpha  occ. eigenvalues --  -10.27055 -10.26748 -10.26725 -10.26608 -10.26582
 Alpha  occ. eigenvalues --  -10.26442 -10.26378 -10.26159 -10.26141 -10.26134
 Alpha  occ. eigenvalues --  -10.26117 -10.26096 -10.26084 -10.25866 -10.25816
 Alpha  occ. eigenvalues --  -10.25744 -10.25664 -10.25426 -10.25295 -10.25117
 Alpha  occ. eigenvalues --  -10.25097 -10.25023 -10.25001 -10.24960 -10.24610
 Alpha  occ. eigenvalues --  -10.24484 -10.24306 -10.24297 -10.24296 -10.24025
 Alpha  occ. eigenvalues --  -10.24008 -10.23918 -10.23816 -10.23765 -10.23722
 Alpha  occ. eigenvalues --  -10.23693 -10.23592 -10.23487 -10.23451 -10.23440
 Alpha  occ. eigenvalues --  -10.23152 -10.23019 -10.23017 -10.22926 -10.22871
 Alpha  occ. eigenvalues --  -10.22601  -3.14468  -3.13411  -1.87291  -1.86856
 Alpha  occ. eigenvalues --   -1.86689  -1.86252  -1.85763  -1.85680  -1.13314
 Alpha  occ. eigenvalues --   -1.11027  -1.04432  -1.03984  -1.03525  -1.03226
 Alpha  occ. eigenvalues --   -1.02975  -1.02548  -0.99348  -0.99239  -0.98370
 Alpha  occ. eigenvalues --   -0.98223  -0.97792  -0.97246  -0.96542  -0.96080
 Alpha  occ. eigenvalues --   -0.87788  -0.86918  -0.83659  -0.83479  -0.83301
 Alpha  occ. eigenvalues --   -0.82743  -0.82702  -0.82569  -0.81902  -0.81804
 Alpha  occ. eigenvalues --   -0.81300  -0.81202  -0.80635  -0.80481  -0.78847
 Alpha  occ. eigenvalues --   -0.78623  -0.77877  -0.77809  -0.76876  -0.76560
 Alpha  occ. eigenvalues --   -0.76354  -0.76037  -0.75826  -0.75238  -0.74860
 Alpha  occ. eigenvalues --   -0.74371  -0.72689  -0.72681  -0.72006  -0.71775
 Alpha  occ. eigenvalues --   -0.71547  -0.71463  -0.70611  -0.70443  -0.69617
 Alpha  occ. eigenvalues --   -0.69392  -0.67552  -0.67141  -0.66057  -0.65977
 Alpha  occ. eigenvalues --   -0.63738  -0.63692  -0.63399  -0.63245  -0.62626
 Alpha  occ. eigenvalues --   -0.61876  -0.61655  -0.60771  -0.60368  -0.60160
 Alpha  occ. eigenvalues --   -0.59908  -0.59450  -0.59253  -0.58989  -0.58973
 Alpha  occ. eigenvalues --   -0.58754  -0.57521  -0.57129  -0.54878  -0.54745
 Alpha  occ. eigenvalues --   -0.54608  -0.54487  -0.53917  -0.53496  -0.53495
 Alpha  occ. eigenvalues --   -0.53144  -0.52805  -0.52375  -0.52262  -0.52016
 Alpha  occ. eigenvalues --   -0.50885  -0.50745  -0.50606  -0.49995  -0.49710
 Alpha  occ. eigenvalues --   -0.49652  -0.49509  -0.49037  -0.48362  -0.48332
 Alpha  occ. eigenvalues --   -0.48072  -0.47988  -0.47762  -0.47680  -0.47644
 Alpha  occ. eigenvalues --   -0.47469  -0.47318  -0.47136  -0.46975  -0.46676
 Alpha  occ. eigenvalues --   -0.46405  -0.46212  -0.46187  -0.46136  -0.45944
 Alpha  occ. eigenvalues --   -0.45830  -0.45789  -0.45112  -0.44758  -0.44617
 Alpha  occ. eigenvalues --   -0.44613  -0.44557  -0.44385  -0.44383  -0.43983
 Alpha  occ. eigenvalues --   -0.43887  -0.43718  -0.43676  -0.43498  -0.43412
 Alpha  occ. eigenvalues --   -0.43267  -0.43130  -0.42984  -0.42942  -0.42778
 Alpha  occ. eigenvalues --   -0.42692  -0.42411  -0.42176  -0.42108  -0.42088
 Alpha  occ. eigenvalues --   -0.41555  -0.41506  -0.41476  -0.41364  -0.41227
 Alpha  occ. eigenvalues --   -0.40968  -0.40938  -0.40905  -0.40624  -0.40614
 Alpha  occ. eigenvalues --   -0.40455  -0.40234  -0.40072  -0.39714  -0.39548
 Alpha  occ. eigenvalues --   -0.39390  -0.39282  -0.39278  -0.39172  -0.39101
 Alpha  occ. eigenvalues --   -0.39010  -0.38468  -0.38383  -0.38321  -0.38290
 Alpha  occ. eigenvalues --   -0.38016  -0.37941  -0.37909  -0.37611  -0.37458
 Alpha  occ. eigenvalues --   -0.37432  -0.37144  -0.36855  -0.36744  -0.36608
 Alpha  occ. eigenvalues --   -0.36541  -0.36512  -0.36391  -0.36306  -0.36132
 Alpha  occ. eigenvalues --   -0.36055  -0.35872  -0.35831  -0.35435  -0.35199
 Alpha  occ. eigenvalues --   -0.35160  -0.34962  -0.34648  -0.34644  -0.33945
 Alpha  occ. eigenvalues --   -0.33685  -0.33311  -0.33207  -0.32919  -0.32874
 Alpha  occ. eigenvalues --   -0.32208  -0.31999  -0.31841  -0.31654  -0.31379
 Alpha  occ. eigenvalues --   -0.31252  -0.30904  -0.30333  -0.29839  -0.29492
 Alpha  occ. eigenvalues --   -0.29258  -0.28501  -0.28422  -0.27100  -0.26685
 Alpha  occ. eigenvalues --   -0.26302  -0.26133  -0.26046  -0.26033  -0.25774
 Alpha  occ. eigenvalues --   -0.25683  -0.25514  -0.25328  -0.21014  -0.20841
 Alpha  occ. eigenvalues --   -0.18937  -0.18682
 Alpha virt. eigenvalues --   -0.11381  -0.11044  -0.05229  -0.05052  -0.04363
 Alpha virt. eigenvalues --   -0.04211  -0.02617  -0.02394  -0.00519   0.00323
 Alpha virt. eigenvalues --    0.00534   0.01171   0.01351   0.01652   0.01670

 Mulliken charges:
               1
     1  Mg  12.000006
     2  C    5.999629
     3  C    6.000071
     4  C    6.000512
     5  C    6.000037
     6  N    6.999955
     7  C    6.000497
     8  C    5.999814
     9  C    6.000078
    10  C    5.999468
    11  C    6.000069
    12  C    5.999944
    13  C    6.000000
    14  H    1.000002
    15  N    7.000043
    16  C    5.999233
    17  C    5.999648
    18  C    5.999787
    19  C    5.999406
    20  C    6.000114
    21  C    5.999762
    22  O    7.999496
    23  C    6.000182
    24  N    7.000088
    25  C    5.999269
    26  C    6.000236
    27  C    5.999901
    28  C    6.000436
    29  C    5.999966
    30  C    5.999800
    31  C    5.999940
    32  N    6.999985
    33  C    6.000534
    34  C    6.000670
    35  C    5.999984
    36  C    6.000658
    37  C    5.999870
    38  C    6.000276
    39  O    8.000588
    40  C    5.999880
    41  C    6.000100
    42  O    7.999998
    43  O    8.000048
    44  C    5.999987
    45  H    0.999829
    46  H    0.999909
    47  H    1.000209
    48  H    0.999943
    49  H    1.000017
    50  H    0.999748
    51  H    1.000048
    52  H    0.999984
    53  H    1.000189
    54  H    0.999917
    55  H    1.000096
    56  H    0.999928
    57  H    0.999645
    58  H    0.999695
    59  H    0.999689
    60  H    0.999810
    61  H    0.999703
    62  H    0.999877
    63  H    1.000048
    64  H    0.999988
    65  H    1.000011
    66  H    0.999814
    67  H    1.000022
    68  H    1.000033
    69  H    1.000265
    70  H    1.000110
    71  H    1.000144
    72  H    0.999968
    73  H    1.000380
    74  H    1.000307
    75  H    1.000339
    76  H    1.000235
    77  H    0.999983
    78  H    1.000034
    79  H    1.000114
    80  Mg  11.999541
    81  C    5.982608
    82  C    6.010415
    83  C    6.017612
    84  C    5.990892
    85  N    6.993474
    86  C    6.031554
    87  C    5.990741
    88  C    6.010566
    89  C    5.968125
    90  C    6.003005
    91  C    5.996881
    92  C    5.998646
    93  H    1.009286
    94  N    7.003785
    95  C    5.965161
    96  C    5.975421
    97  C    5.986818
    98  C    5.971573
    99  C    6.002157
   100  C    5.989082
   101  O    7.973332
   102  C    6.003317
   103  N    7.005921
   104  C    5.967446
   105  C    6.008558
   106  C    5.988696
   107  C    6.030597
   108  C    6.001956
   109  C    5.996308
   110  C    6.000029
   111  N    7.000357
   112  C    6.034254
   113  C    6.031872
   114  C    5.999542
   115  C    6.029502
   116  C    6.000588
   117  C    6.016586
   118  O    8.028870
   119  C    6.000055
   120  C    6.006106
   121  O    8.002419
   122  O    8.002189
   123  C    5.997655
   124  H    0.990437
   125  H    0.993811
   126  H    1.009307
   127  H    1.000345
   128  H    0.999146
   129  H    0.986853
   130  H    1.000970
   131  H    0.997769
   132  H    1.011476
   133  H    0.993453
   134  H    1.000426
   135  H    0.996135
   136  H    0.984616
   137  H    0.985073
   138  H    0.979404
   139  H    0.993465
   140  H    0.987375
   141  H    0.992559
   142  H    0.999161
   143  H    1.001327
   144  H    1.004928
   145  H    0.989795
   146  H    0.998673
   147  H    0.994343
   148  H    1.009898
   149  H    1.005918
   150  H    0.998347
   151  H    1.004147
   152  H    1.017887
   153  H    1.017735
   154  H    1.011538
   155  H    1.007854
   156  H    1.007045
   157  H    1.003559
   158  H    1.001728
 Sum of Mulliken charges = 624.00000

 Dipole moment (field-independent basis, Debye):
    X=             -2.7585    Y=              3.3269    Z=             -9.3168  Tot=             10.2703
 Quadrupole moment (field-independent basis, Debye-Ang):
   XX=             81.4407   YY=             -1.5792   ZZ=             -5.5948
   XY=            -53.6222   XZ=            158.7423   YZ=              8.1172

 Normal termination of Gaussian 16 at Fri Oct 15 11:19:13 2021.
