 Gaussian 16, Revision A.03,
 Gaussian 16:  ES64L-G16RevA.03 25-Dec-2016

 --------------------------------------------------------
 #p PBE1PBE/Def2SVP td=(nstates=5) density=(transition=1)
 --------------------------------------------------------

 --------------------------------
 TDDFT excited states in gaussian
 --------------------------------
 Symbolic Z-matrix:
 Charge =  0 Multiplicity = 1

                         Standard orientation:
 ---------------------------------------------------------------------
 Center     Atomic      Atomic             Coordinates (Angstroms)
 Number     Number       Type             X           Y           Z
 ---------------------------------------------------------------------
      1         12           0       25.513023   -0.550678    0.037391
      2          6           0       24.388862    2.587553    1.002865
      3          6           0       26.095414    0.599304   -3.079095
      4          6           0       26.405150   -3.660988   -0.819909
      5          6           0       24.724209   -1.688448    3.253791
      6          7           0       25.268525    1.429312   -0.860016
      7          6           0       24.900675    2.556166   -0.298645
      8          6           0       25.005727    3.702596   -1.406856
      9          6           0       24.773181    2.839435   -2.628876
     10          6           0       25.466195    1.508356   -2.196112
     11          6           0       23.264180    2.752133   -2.943525
     12          6           0       26.343230    4.540505   -1.221786
     13          6           0       26.329394    5.919379   -1.888784
     14          1           0       25.192736    6.263009   -2.835944
     15          7           0       26.318386   -1.362571   -1.631672
     16          6           0       26.556141   -0.676816   -2.820515
     17          6           0       27.353495   -1.576845   -3.706705
     18          6           0       27.400825   -2.889350   -3.069829
     19          6           0       26.614307   -2.650626   -1.830543
     20          6           0       27.906307   -1.132203   -5.040092
     21          6           0       28.127409   -4.246378   -3.499733
     22          8           0       28.136755   -5.268828   -2.805908
     23          6           0       28.849901   -4.232188   -4.830678
     24          7           0       25.455032   -2.381187    1.000578
     25          6           0       25.856810   -3.523449    0.449621
     26          6           0       25.613195   -4.758051    1.371424
     27          6           0       25.321529   -4.046564    2.700429
     28          6           0       25.208599   -2.598525    2.340269
     29          6           0       24.485793   -5.714307    0.891600
     30          6           0       26.233527   -4.390284    3.960962
     31          6           0       27.272422   -3.391234    4.351904
     32          7           0       24.532323    0.181309    1.731950
     33          6           0       24.343673   -0.351820    2.962436
     34          6           0       23.699819    0.535897    3.863739
     35          6           0       23.692704    1.759785    3.123369
     36          6           0       24.209277    1.442640    1.887855
     37          6           0       23.131753    0.391805    5.251815
     38          6           0       23.369390    3.155429    3.116210
     39          8           0       22.875398    3.877898    3.954838
     40          6           0       23.937089    3.808779    1.815935
     41          6           0       22.889546    4.603950    1.168264
     42          8           0       21.850340    4.109093    0.758942
     43          8           0       23.112380    6.003462    1.227351
     44          6           0       22.033834    6.851881    0.696563
     45          1           0       26.207238    0.992278   -4.090674
     46          1           0       26.663005   -4.670610   -1.144098
     47          1           0       24.445366   -2.090988    4.229482
     48          1           0       24.218904    4.439194   -1.249947
     49          1           0       25.318389    3.160084   -3.516234
     50          1           0       23.197318    3.290734   -3.889399
     51          1           0       22.642514    3.231165   -2.185967
     52          1           0       23.062983    1.700588   -3.146963
     53          1           0       27.188880    3.992716   -1.638563
     54          1           0       26.413056    4.720334   -0.148738
     55          1           0       27.276443    6.016393   -2.418729
     56          1           0       26.351759    6.655880   -1.085936
     57          1           0       28.186855   -0.078432   -5.023779
     58          1           0       27.278101   -1.290092   -5.916150
     59          1           0       28.841902   -1.662639   -5.216666
     60          1           0       28.095369   -3.860112   -5.523341
     61          1           0       29.147630   -5.214421   -5.196518
     62          1           0       29.749644   -3.621249   -4.755932
     63          1           0       26.507512   -5.375663    1.452762
     64          1           0       24.278772   -4.270276    2.922639
     65          1           0       23.926775   -5.965357    1.793357
     66          1           0       24.793986   -6.619831    0.371270
     67          1           0       23.889758   -5.179131    0.152343
     68          1           0       26.649455   -5.388140    3.821242
     69          1           0       25.606346   -4.416970    4.851756
     70          1           0       26.970537   -2.967133    5.309852
     71          1           0       27.310038   -2.477769    3.757103
     72          1           0       28.268826   -3.807864    4.499616
     73          1           0       23.162321   -0.638206    5.608870
     74          1           0       22.142633    0.849944    5.278129
     75          1           0       23.694930    0.860750    6.058963
     76          1           0       24.783520    4.461692    2.027264
     77          1           0       22.287609    7.906058    0.587924
     78          1           0       21.237666    6.723105    1.430302
     79          1           0       21.722266    6.373230   -0.231089
     80         12           0      -24.639112   -0.732904    0.062788
     81          6           0      -25.796622    2.630897    0.503946
     82          6           0      -23.056450    0.218385   -2.652320
     83          6           0      -24.365431   -3.969197   -0.597466
     84          6           0      -26.804555   -1.581130    2.912368
     85          7           0      -24.420294    1.222202   -0.920048
     86          6           0      -24.991795    2.473027   -0.612855
     87          6           0      -24.596126    3.617623   -1.620567
     88          6           0      -23.618255    2.727975   -2.607442
     89          6           0      -23.660673    1.306041   -2.056708
     90          6           0      -24.100694    2.758365   -4.120976
     91          6           0      -23.943621    4.893705   -0.983536
     92          6           0      -23.195191    5.806563   -1.947485
     93          1           0      -23.832856    7.193993   -2.144974
     94          7           0      -23.730928   -1.733087   -1.380912
     95          6           0      -23.070029   -1.213876   -2.469281
     96          6           0      -22.476379   -2.242649   -3.296958
     97          6           0      -22.873438   -3.479500   -2.650298
     98          6           0      -23.646500   -3.065172   -1.425673
     99          6           0      -21.621048   -2.043900   -4.458545
    100          6           0      -22.564857   -4.919047   -3.023609
    101          8           0      -22.849556   -5.865375   -2.344546
    102          6           0      -21.937784   -5.096606   -4.380886
    103          7           0      -25.523127   -2.530569    0.988555
    104          6           0      -25.194888   -3.756746    0.509128
    105          6           0      -25.803710   -4.879492    1.391108
    106          6           0      -26.453420   -4.068011    2.565378
    107          6           0      -26.210580   -2.623691    2.171730
    108          6           0      -26.810196   -5.878981    0.725823
    109          6           0      -25.882169   -4.349525    3.999827
    110          6           0      -26.397648   -5.669025    4.615785
    111          7           0      -26.026127    0.226120    1.425592
    112          6           0      -26.732096   -0.206351    2.524492
    113          6           0      -27.334552    0.904069    3.148026
    114          6           0      -27.074549    2.000701    2.414993
    115          6           0      -26.268829    1.568165    1.318395
    116          6           0      -28.069560    0.761661    4.474457
    117          6           0      -27.281376    3.435048    2.191056
    118          8           0      -27.923945    4.240130    2.814405
    119          6           0      -26.449898    3.876567    0.893900
    120          6           0      -27.441314    4.224588   -0.170215
    121          8           0      -28.010207    3.546442   -0.995753
    122          8           0      -27.584506    5.594904   -0.078805
    123          6           0      -28.507965    6.241195   -1.041498
    124          1           0      -22.544304    0.426908   -3.593831
    125          1           0      -24.364536   -5.002990   -0.951260
    126          1           0      -27.308993   -1.982471    3.794386
    127          1           0      -25.480934    3.858453   -2.210051
    128          1           0      -22.624956    3.176894   -2.585666
    129          1           0      -23.238747    2.906493   -4.771334
    130          1           0      -24.883710    3.457390   -4.413617
    131          1           0      -24.449813    1.771972   -4.424790
    132          1           0      -23.328363    4.422028   -0.216219
    133          1           0      -24.570996    5.552420   -0.382638
    134          1           0      -23.138833    5.323449   -2.922540
    135          1           0      -22.230437    6.059007   -1.508329
    136          1           0      -20.692873   -2.458685   -4.065487
    137          1           0      -21.573685   -0.990989   -4.736883
    138          1           0      -21.860801   -2.590301   -5.370496
    139          1           0      -20.853286   -5.122997   -4.275589
    140          1           0      -22.443457   -4.542775   -5.172409
    141          1           0      -22.376972   -6.031293   -4.728425
    142          1           0      -24.949686   -5.335535    1.892763
    143          1           0      -27.537538   -4.166450    2.505459
    144          1           0      -27.807563   -5.924075    1.164191
    145          1           0      -26.413251   -6.869676    0.946194
    146          1           0      -26.967609   -5.741278   -0.343919
    147          1           0      -26.186275   -3.547554    4.671547
    148          1           0      -24.798405   -4.316902    3.879707
    149          1           0      -27.328347   -5.974373    4.137205
    150          1           0      -26.502800   -5.476306    5.683382
    151          1           0      -25.734358   -6.521362    4.465578
    152          1           0      -28.054786    1.696026    5.035675
    153          1           0      -27.620105   -0.056301    5.037602
    154          1           0      -29.088626    0.412013    4.307586
    155          1           0      -25.770170    4.700760    1.111478
    156          1           0      -29.034360    7.005654   -0.470135
    157          1           0      -29.228497    5.562459   -1.497602
    158          1           0      -27.775017    6.649451   -1.738045
 ---------------------------------------------------------------------

 SCF Done:  E(RPBE1PBE) =  -4067.39474731     A.U. after   16 cycles

 Excitation energies and oscillator strengths:

 Excited State   1:      Singlet-A      1.8601 eV  666.54 nm  f=0.3791  <S**2>=0.000
     310 -> 316        0.16838
     312 -> 314        0.69336
     312 <- 314       -0.10831
 This state for optimization and/or second-order correction.
 Total Energy, E(TD-HF/TD-DFT) =  -4067.32638910
 Copying the excited state density for this state as the 1-particle RhoCI density.

 Excited State   2:      Singlet-A      1.8723 eV  662.21 nm  f=0.3844  <S**2>=0.000
     309 -> 315        0.17570
     311 -> 313        0.69310
     311 <- 313       -0.10656

 Excited State   3:      Singlet-A      1.9078 eV  649.87 nm  f=0.0000  <S**2>=0.000
     312 -> 313        0.70711

 Excited State   4:      Singlet-A      2.1131 eV  586.75 nm  f=0.0000  <S**2>=0.000
     311 -> 314        0.70711

 Excited State   5:      Singlet-A      2.2175 eV  559.13 nm  f=0.1389  <S**2>=0.000
     309 -> 313        0.66471
     311 -> 315       -0.23652

 The electronic state is 1-A.
 Alpha  occ. eigenvalues --  -46.91974 -46.91197 -19.24644 -19.24477 -19.20507
 Alpha  occ. eigenvalues --  -19.20063 -19.19747 -19.19274 -19.19159 -19.18360
 Alpha  occ. eigenvalues --  -14.41688 -14.41404 -14.41116 -14.40855 -14.39657
 Alpha  occ. eigenvalues --  -14.39260 -14.38501 -14.38448 -10.35940 -10.35918
 Alpha  occ. eigenvalues --  -10.34211 -10.32393 -10.31882 -10.31450 -10.28898
 Alpha  occ. eigenvalues --  -10.28659 -10.28591 -10.28556 -10.28419 -10.28393
 Alpha  occ. eigenvalues --  -10.28350 -10.28338 -10.28173 -10.28098 -10.27945
 Alpha  occ. eigenvalues --  -10.27843 -10.27833 -10.27807 -10.27672 -10.26869
 Alpha  occ. eigenvalues --  -10.26853 -10.26779 -10.26723 -10.26671 -10.26498
 Alpha  occ. eigenvalues --  -10.26428 -10.26177 -10.26166 -10.26057 -10.25937
 Alpha  occ. eigenvalues --  -10.25778 -10.25493 -10.25400 -10.25390 -10.25342
 Alpha  occ. eigenvalues --  -10.25327 -10.25270 -10.25062 -10.24796 -10.24743
 Alpha  occ. eigenvalues --  -10.24716 -10.24693 -10.24681 -10.24653 -10.24575
 Alpha  occ. eigenvalues --  -10.24420 -10.24414 -10.24413 -10.24378 -10.24364
 Alpha  occ. eigenvalues --  -10.24296 -10.24049 -10.23775 -10.23641 -10.23451
 Alpha  occ. eigenvalues --  -10.23373 -10.23298 -10.23246 -10.23242 -10.23100
 Alpha  occ. eigenvalues --  -10.23009 -10.23000 -10.22995 -10.22377 -10.22210
 Alpha  occ. eigenvalues --  -10.22029  -3.14096  -3.13536  -1.86932  -1.86450
 Alpha  occ. eigenvalues --   -1.86391  -1.86343  -1.85876  -1.85809  -1.10390
 Alpha  occ. eigenvalues --   -1.09283  -1.06118  -1.05508  -1.05032  -1.04542
 Alpha  occ. eigenvalues --   -1.02235  -1.01629  -1.00395  -0.99455  -0.98810
 Alpha  occ. eigenvalues --   -0.98454  -0.97977  -0.97734  -0.97114  -0.96187
 Alpha  occ. eigenvalues --   -0.87332  -0.86622  -0.83567  -0.83208  -0.82829
 Alpha  occ. eigenvalues --   -0.82537  -0.82522  -0.82290  -0.81600  -0.81469
 Alpha  occ. eigenvalues --   -0.81299  -0.81175  -0.80770  -0.80359  -0.78540
 Alpha  occ. eigenvalues --   -0.78178  -0.78041  -0.77448  -0.77034  -0.76605
 Alpha  occ. eigenvalues --   -0.76428  -0.76213  -0.75356  -0.75028  -0.74468
 Alpha  occ. eigenvalues --   -0.74411  -0.72765  -0.72416  -0.71626  -0.71277
 Alpha  occ. eigenvalues --   -0.71039  -0.70910  -0.70157  -0.69829  -0.69448
 Alpha  occ. eigenvalues --   -0.69187  -0.67360  -0.67192  -0.65719  -0.65643
 Alpha  occ. eigenvalues --   -0.63946  -0.63713  -0.63168  -0.63109  -0.62383
 Alpha  occ. eigenvalues --   -0.62176  -0.61424  -0.60904  -0.59606  -0.59511
 Alpha  occ. eigenvalues --   -0.59188  -0.59123  -0.58798  -0.58793  -0.58444
 Alpha  occ. eigenvalues --   -0.58434  -0.55999  -0.55916  -0.55077  -0.54619
 Alpha  occ. eigenvalues --   -0.54232  -0.54055  -0.53763  -0.53341  -0.52716
 Alpha  occ. eigenvalues --   -0.52651  -0.52568  -0.52478  -0.52121  -0.51513
 Alpha  occ. eigenvalues --   -0.50688  -0.50416  -0.50255  -0.50146  -0.50030
 Alpha  occ. eigenvalues --   -0.49578  -0.49345  -0.49001  -0.48806  -0.48509
 Alpha  occ. eigenvalues --   -0.48445  -0.48251  -0.48234  -0.47748  -0.47477
 Alpha  occ. eigenvalues --   -0.47288  -0.47154  -0.46944  -0.46937  -0.46655
 Alpha  occ. eigenvalues --   -0.46511  -0.46462  -0.46227  -0.45908  -0.45863
 Alpha  occ. eigenvalues --   -0.45457  -0.45214  -0.45113  -0.45111  -0.45060
 Alpha  occ. eigenvalues --   -0.44813  -0.44410  -0.44409  -0.44225  -0.44112
 Alpha  occ. eigenvalues --   -0.44045  -0.43895  -0.43745  -0.43619  -0.43500
 Alpha  occ. eigenvalues --   -0.43390  -0.43245  -0.43116  -0.43063  -0.42639
 Alpha  occ. eigenvalues --   -0.42468  -0.42399  -0.42356  -0.42022  -0.41752
 Alpha  occ. eigenvalues --   -0.41686  -0.41410  -0.41277  -0.41154  -0.41002
 Alpha  occ. eigenvalues --   -0.40772  -0.40570  -0.40533  -0.40498  -0.40391
 Alpha  occ. eigenvalues --   -0.40210  -0.39977  -0.39905  -0.39759  -0.39692
 Alpha  occ. eigenvalues --   -0.39616  -0.39474  -0.39455  -0.39154  -0.38847
 Alpha  occ. eigenvalues --   -0.38718  -0.38631  -0.38561  -0.38360  -0.38268
 Alpha  occ. eigenvalues --   -0.38091  -0.37995  -0.37953  -0.37797  -0.37616
 Alpha  occ. eigenvalues --   -0.37424  -0.37413  -0.36996  -0.36910  -0.36713
 Alpha  occ. eigenvalues --   -0.36687  -0.36429  -0.36282  -0.35931  -0.35924
 Alpha  occ. eigenvalues --   -0.35835  -0.35770  -0.35605  -0.35523  -0.35350
 Alpha  occ. eigenvalues --   -0.35000  -0.34892  -0.34335  -0.34130  -0.33773
 Alpha  occ. eigenvalues --   -0.33189  -0.33085  -0.33066  -0.32759  -0.32574
 Alpha  occ. eigenvalues --   -0.32064  -0.31718  -0.31480  -0.31412  -0.31241
 Alpha  occ. eigenvalues --   -0.30644  -0.30584  -0.29711  -0.29388  -0.29110
 Alpha  occ. eigenvalues --   -0.29047  -0.28593  -0.28243  -0.26865  -0.26853
 Alpha  occ. eigenvalues --   -0.26639  -0.26016  -0.25762  -0.25740  -0.25485
 Alpha  occ. eigenvalues --   -0.25467  -0.25339  -0.25268  -0.20854  -0.20554
 Alpha  occ. eigenvalues --   -0.18988  -0.18582
 Alpha virt. eigenvalues --   -0.11310  -0.10960  -0.04819  -0.04705  -0.04212
 Alpha virt. eigenvalues --   -0.03295  -0.02045  -0.01758  -0.00220   0.00110
 Alpha virt. eigenvalues --    0.00834   0.00854   0.01391   0.01421   0.02017

 Mulliken charges:
               1
     1  Mg  11.999982
     2  C    6.000086
     3  C    5.999964
     4  C    5.999892
     5  C    5.999970
     6  N    7.000038
     7  C    5.999798
     8  C    6.000019
     9  C    5.999987
    10  C    6.000191
    11  C    6.000019
    12  C    6.000014
    13  C    6.000007
    14  H    0.999996
    15  N    7.000006
    16  C    6.000252
    17  C    6.000149
    18  C    6.000123
    19  C    6.000180
    20  C    5.999955
    21  C    6.000155
    22  O    8.000208
    23  C    5.999950
    24  N    7.000008
    25  C    6.000175
    26  C    5.999926
    27  C    6.000075
    28  C    5.999815
    29  C    5.999990
    30  C    5.999999
    31  C    6.000025
    32  N    6.999944
    33  C    5.999847
    34  C    5.999770
    35  C    6.000006
    36  C    5.999871
    37  C    6.000038
    38  C    5.999836
    39  O    7.999777
    40  C    6.000006
    41  C    5.999951
    42  O    7.999990
    43  O    7.999979
    44  C    6.000006
    45  H    1.000093
    46  H    1.000040
    47  H    0.999905
    48  H    1.000023
    49  H    0.999978
    50  H    1.000032
    51  H    1.000116
    52  H    1.000002
    53  H    0.999900
    54  H    1.000044
    55  H    0.999956
    56  H    1.000004
    57  H    1.000112
    58  H    1.000188
    59  H    1.000107
    60  H    1.000054
    61  H    1.000119
    62  H    1.000047
    63  H    0.999973
    64  H    1.000008
    65  H    1.000091
    66  H    0.999987
    67  H    1.000012
    68  H    0.999917
    69  H    1.000006
    70  H    1.000003
    71  H    1.000009
    72  H    0.999905
    73  H    0.999867
    74  H    0.999877
    75  H    0.999799
    76  H    0.999924
    77  H    0.999941
    78  H    1.000005
    79  H    0.999976
    80  Mg  12.001095
    81  C    5.976088
    82  C    6.005255
    83  C    6.016947
    84  C    5.992197
    85  N    6.989756
    86  C    6.030451
    87  C    5.984799
    88  C    6.013367
    89  C    5.973271
    90  C    6.000321
    91  C    5.997287
    92  C    6.001683
    93  H    0.999608
    94  N    7.004452
    95  C    5.961883
    96  C    5.983160
    97  C    5.981799
    98  C    5.972160
    99  C    6.004354
   100  C    5.985178
   101  O    7.970305
   102  C    6.008638
   103  N    7.002016
   104  C    5.967399
   105  C    6.011564
   106  C    5.990613
   107  C    6.029581
   108  C    6.000501
   109  C    5.993490
   110  C    6.001928
   111  N    6.999594
   112  C    6.031160
   113  C    6.028213
   114  C    6.000035
   115  C    6.038310
   116  C    5.999380
   117  C    6.019083
   118  O    8.028762
   119  C    6.005610
   120  C    5.999890
   121  O    8.008440
   122  O    8.000912
   123  C    5.998212
   124  H    0.990423
   125  H    0.995448
   126  H    1.010740
   127  H    1.004455
   128  H    0.995652
   129  H    0.999859
   130  H    0.988627
   131  H    1.005626
   132  H    1.001643
   133  H    0.994994
   134  H    1.006868
   135  H    1.002148
   136  H    0.983338
   137  H    0.983056
   138  H    0.981536
   139  H    0.989483
   140  H    0.993228
   141  H    0.985688
   142  H    1.000090
   143  H    0.999541
   144  H    0.991443
   145  H    0.999450
   146  H    1.004694
   147  H    0.994670
   148  H    1.008713
   149  H    1.002775
   150  H    1.000070
   151  H    1.006821
   152  H    1.013835
   153  H    1.016285
   154  H    1.019956
   155  H    1.008280
   156  H    1.002509
   157  H    1.003170
   158  H    1.006134
 Sum of Mulliken charges = 624.00000

 Dipole moment (field-independent basis, Debye):
    X=             -5.5967    Y=              5.2249    Z=              6.9907  Tot=             10.3679
 Quadrupole moment (field-independent basis, Debye-Ang):
   XX=            282.2305   YY=             -5.4438   ZZ=             -1.2614
   XY=           -128.5812   XZ=           -176.4973   YZ=             -8.5896

 Normal termination of Gaussian 16 at Fri Oct 15 18:36:23 2021.
