 Gaussian 16, Revision A.03,
 Gaussian 16:  ES64L-G16RevA.03 25-Dec-2016

 --------------------------------------------------------
 #p PBE1PBE/Def2SVP td=(nstates=5) density=(transition=1)
 --------------------------------------------------------

 --------------------------------
 TDDFT excited states in gaussian
 --------------------------------
 Symbolic Z-matrix:
 Charge =  0 Multiplicity = 1

                         Standard orientation:
 ---------------------------------------------------------------------
 Center     Atomic      Atomic             Coordinates (Angstroms)
 Number     Number       Type             X           Y           Z
 ---------------------------------------------------------------------
      1         12           0       23.768274    0.561574   -0.612373
      2          6           0       22.805399   -2.600234    0.981824
      3          6           0       20.394637    1.321270   -0.467055
      4          6           0       24.624785    3.611951   -0.974947
      5          6           0       27.153958   -0.537534   -0.121581
      6          7           0       21.797623   -0.554659    0.349569
      7          6           0       21.652549   -1.802232    0.915942
      8          6           0       20.170267   -1.980518    1.409729
      9          6           0       19.388942   -0.863513    0.696261
     10          6           0       20.580033    0.019545    0.162047
     11          6           0       18.437402   -1.255054   -0.509622
     12          6           0       20.022323   -1.989072    2.969834
     13          6           0       19.023724   -2.970001    3.545499
     14          1           0       17.646184   -2.387973    3.992925
     15          7           0       22.690054    2.206760   -0.831717
     16          6           0       21.328273    2.339049   -0.855744
     17          6           0       20.963662    3.762377   -1.094467
     18          6           0       22.210566    4.429120   -1.216717
     19          6           0       23.236727    3.420600   -0.964086
     20          6           0       19.550933    4.368682   -1.111976
     21          6           0       22.481725    5.932978   -1.316795
     22          8           0       21.506941    6.674141   -1.409433
     23          6           0       23.761845    6.522726   -1.342845
     24          7           0       25.666487    1.448986   -0.283434
     25          6           0       25.727620    2.734560   -0.783506
     26          6           0       27.245878    3.156766   -0.860605
     27          6           0       28.005580    1.909011   -0.283205
     28          6           0       26.880925    0.846880   -0.327196
     29          6           0       27.753146    3.594017   -2.262216
     30          6           0       28.703578    2.026174    1.131503
     31          6           0       30.074731    2.720136    1.206421
     32          7           0       24.860239   -1.191054    0.191263
     33          6           0       26.203134   -1.511371    0.188275
     34          6           0       26.430804   -2.879551    0.585840
     35          6           0       25.102748   -3.357517    0.895995
     36          6           0       24.137958   -2.306741    0.709756
     37          6           0       27.785419   -3.506938    0.705762
     38          6           0       24.408635   -4.457188    1.399223
     39          8           0       24.807948   -5.499026    1.901501
     40          6           0       22.934309   -4.004305    1.606519
     41          6           0       22.117242   -5.004219    0.822078
     42          8           0       21.132266   -5.586999    1.282274
     43          8           0       22.460272   -5.124879   -0.584615
     44          6           0       21.426075   -5.815128   -1.353716
     45          1           0       19.329784    1.558711   -0.501359
     46          1           0       25.065636    4.566819   -1.268755
     47          1           0       28.224126   -0.754110   -0.110802
     48          1           0       19.758926   -2.878402    0.946328
     49          1           0       18.855810   -0.227040    1.402492
     50          1           0       17.429995   -1.159581   -0.105059
     51          1           0       18.568218   -2.299401   -0.791560
     52          1           0       18.584400   -0.688390   -1.429012
     53          1           0       19.629332   -1.064994    3.394561
     54          1           0       20.973839   -2.240322    3.438933
     55          1           0       19.536184   -3.513695    4.339171
     56          1           0       18.792567   -3.696774    2.766087
     57          1           0       19.478565    5.112123   -1.906247
     58          1           0       19.427898    4.769156   -0.105771
     59          1           0       18.803713    3.612468   -1.348740
     60          1           0       24.250979    6.224207   -2.270613
     61          1           0       24.372274    6.332925   -0.459924
     62          1           0       23.500148    7.578116   -1.259518
     63          1           0       27.500848    3.995624   -0.213854
     64          1           0       28.746663    1.534314   -0.988833
     65          1           0       28.587056    2.927497   -2.482754
     66          1           0       28.105254    4.622695   -2.191715
     67          1           0       26.876043    3.470168   -2.898575
     68          1           0       28.812179    0.986881    1.443336
     69          1           0       28.098583    2.620259    1.816761
     70          1           0       30.262911    2.905221    0.148471
     71          1           0       30.854948    2.021632    1.512190
     72          1           0       30.133086    3.645136    1.779557
     73          1           0       28.332420   -2.875070    1.404267
     74          1           0       28.372500   -3.452919   -0.210861
     75          1           0       27.762402   -4.474690    1.206932
     76          1           0       22.711110   -4.134454    2.665280
     77          1           0       21.678572   -5.353085   -2.308859
     78          1           0       20.435773   -5.692798   -0.915092
     79          1           0       21.740764   -6.856638   -1.420665
     80         12           0      -23.866787    0.520235    0.333179
     81          6           0      -23.139756   -2.425471   -1.460269
     82          6           0      -22.275938    2.249932   -2.200982
     83          6           0      -24.393895    3.443366    2.016049
     84          6           0      -25.076990   -1.306418    2.876410
     85          7           0      -22.844637   -0.034007   -1.650978
     86          6           0      -22.778738   -1.281824   -2.259099
     87          6           0      -22.317887   -1.146297   -3.696463
     88          6           0      -21.717511    0.305318   -3.755738
     89          6           0      -22.323273    0.862434   -2.487113
     90          6           0      -20.144416    0.392822   -3.860465
     91          6           0      -23.460963   -1.278471   -4.713843
     92          6           0      -23.100255   -1.995902   -6.019045
     93          1           0      -22.140536   -1.286133   -7.014152
     94          7           0      -23.487893    2.561014   -0.068440
     95          6           0      -22.792120    2.993078   -1.145341
     96          6           0      -22.597861    4.401568   -1.025675
     97          6           0      -23.319518    4.870751    0.125895
     98          6           0      -23.712346    3.623361    0.757385
     99          6           0      -21.801337    5.187541   -2.029857
    100          6           0      -23.518305    6.271807    0.704468
    101          8           0      -24.327596    6.491378    1.632577
    102          6           0      -22.695409    7.471983    0.250062
    103          7           0      -24.699720    0.995606    2.120149
    104          6           0      -24.762808    2.269851    2.675956
    105          6           0      -25.324883    2.170819    4.056929
    106          6           0      -25.639205    0.667000    4.385548
    107          6           0      -25.166792    0.049630    3.059325
    108          6           0      -24.515798    2.937561    5.145965
    109          6           0      -27.119606    0.345297    4.683995
    110          6           0      -27.449890    0.309793    6.188690
    111          7           0      -24.046905   -1.412323    0.712294
    112          6           0      -24.629803   -2.086655    1.784313
    113          6           0      -24.665752   -3.582276    1.580332
    114          6           0      -24.048529   -3.694595    0.323926
    115          6           0      -23.746672   -2.388808   -0.180300
    116          6           0      -25.232921   -4.618711    2.533178
    117          6           0      -23.642116   -4.694045   -0.652444
    118          8           0      -23.703303   -5.923864   -0.623278
    119          6           0      -23.143625   -3.858669   -1.907058
    120          6           0      -21.754501   -4.432486   -2.248899
    121          8           0      -20.896376   -4.764737   -1.457437
    122          8           0      -21.698502   -4.670115   -3.620915
    123          6           0      -20.415491   -5.225170   -4.052472
    124          1           0      -21.838765    2.770923   -3.055102
    125          1           0      -24.618860    4.313769    2.635558
    126          1           0      -25.369759   -1.826330    3.790597
    127          1           0      -21.530398   -1.840720   -3.988242
    128          1           0      -22.041189    0.897011   -4.612070
    129          1           0      -19.628142   -0.558675   -3.991024
    130          1           0      -19.621700    0.820773   -3.005389
    131          1           0      -19.848275    0.962321   -4.741430
    132          1           0      -23.868404   -0.303749   -4.981201
    133          1           0      -24.274074   -1.878060   -4.304155
    134          1           0      -23.987169   -2.314003   -6.566863
    135          1           0      -22.636489   -2.962460   -5.823198
    136          1           0      -20.892968    4.589893   -2.107365
    137          1           0      -21.481743    6.191428   -1.750642
    138          1           0      -22.250640    5.252596   -3.020551
    139          1           0      -21.630597    7.238602    0.259136
    140          1           0      -22.971668    8.225303    0.987679
    141          1           0      -22.949368    7.758842   -0.770381
    142          1           0      -26.215923    2.799139    4.073864
    143          1           0      -25.023914    0.225590    5.170620
    144          1           0      -23.630275    3.355688    4.666808
    145          1           0      -24.193677    2.228296    5.907913
    146          1           0      -25.202191    3.714774    5.483642
    147          1           0      -27.372447   -0.556955    4.127558
    148          1           0      -27.768180    1.152329    4.342481
    149          1           0      -26.725796    0.910563    6.739371
    150          1           0      -27.376118   -0.659368    6.682381
    151          1           0      -28.426675    0.773976    6.327990
    152          1           0      -26.318747   -4.529578    2.495139
    153          1           0      -24.952810   -4.500304    3.579708
    154          1           0      -24.908396   -5.583514    2.143706
    155          1           0      -23.775883   -3.914626   -2.792984
    156          1           0      -19.664885   -4.483302   -4.326756
    157          1           0      -20.681472   -5.863521   -4.894891
    158          1           0      -19.843051   -5.842339   -3.360022
 ---------------------------------------------------------------------

 SCF Done:  E(RPBE1PBE) =  -4067.35777624     A.U. after   16 cycles

 Excitation energies and oscillator strengths:

 Excited State   1:      Singlet-A      1.8492 eV  670.48 nm  f=0.3579  <S**2>=0.000
     310 -> 316        0.18106
     312 -> 314        0.69131
     312 <- 314       -0.10446
 This state for optimization and/or second-order correction.
 Total Energy, E(TD-HF/TD-DFT) =  -4067.28982031
 Copying the excited state density for this state as the 1-particle RhoCI density.

 Excited State   2:      Singlet-A      1.8703 eV  662.91 nm  f=0.3483  <S**2>=0.000
     309 -> 315       -0.19143
     311 -> 313        0.68640

 Excited State   3:      Singlet-A      1.9267 eV  643.51 nm  f=0.0000  <S**2>=0.000
     312 -> 313        0.70711

 Excited State   4:      Singlet-A      2.1162 eV  585.87 nm  f=0.0000  <S**2>=0.000
     311 -> 314        0.70711

 Excited State   5:      Singlet-A      2.2265 eV  556.85 nm  f=0.0983  <S**2>=0.000
     310 -> 314        0.64897
     312 -> 316       -0.27350

 The electronic state is 1-A.
 Alpha  occ. eigenvalues --  -46.94146 -46.91076 -19.26409 -19.24386 -19.20618
 Alpha  occ. eigenvalues --  -19.20340 -19.19370 -19.19337 -19.18942 -19.18190
 Alpha  occ. eigenvalues --  -14.42089 -14.42035 -14.41646 -14.40968 -14.40335
 Alpha  occ. eigenvalues --  -14.39597 -14.39070 -14.38919 -10.36709 -10.36467
 Alpha  occ. eigenvalues --  -10.32899 -10.32278 -10.31983 -10.30711 -10.29936
 Alpha  occ. eigenvalues --  -10.29567 -10.29474 -10.29302 -10.29084 -10.28877
 Alpha  occ. eigenvalues --  -10.28796 -10.28710 -10.28462 -10.28370 -10.28228
 Alpha  occ. eigenvalues --  -10.28197 -10.28164 -10.28010 -10.27254 -10.27158
 Alpha  occ. eigenvalues --  -10.27140 -10.27080 -10.27076 -10.26687 -10.26670
 Alpha  occ. eigenvalues --  -10.26657 -10.26629 -10.26604 -10.26463 -10.26401
 Alpha  occ. eigenvalues --  -10.26205 -10.26181 -10.26156 -10.26137 -10.26130
 Alpha  occ. eigenvalues --  -10.26013 -10.25975 -10.25974 -10.25825 -10.25762
 Alpha  occ. eigenvalues --  -10.25118 -10.25079 -10.25059 -10.25041 -10.24981
 Alpha  occ. eigenvalues --  -10.24663 -10.24535 -10.24506 -10.24442 -10.24418
 Alpha  occ. eigenvalues --  -10.24318 -10.24109 -10.24050 -10.24025 -10.23966
 Alpha  occ. eigenvalues --  -10.23938 -10.23785 -10.23759 -10.23742 -10.23611
 Alpha  occ. eigenvalues --  -10.23521 -10.23508 -10.23311 -10.23170 -10.23091
 Alpha  occ. eigenvalues --  -10.23035  -3.16139  -3.13432  -1.88921  -1.88564
 Alpha  occ. eigenvalues --   -1.88326  -1.86273  -1.85783  -1.85700  -1.11051
 Alpha  occ. eigenvalues --   -1.08677  -1.05117  -1.04005  -1.03805  -1.03545
 Alpha  occ. eigenvalues --   -1.02999  -1.01190  -0.99576  -0.99260  -0.98244
 Alpha  occ. eigenvalues --   -0.98015  -0.97906  -0.97813  -0.96100  -0.95850
 Alpha  occ. eigenvalues --   -0.87324  -0.86940  -0.83681  -0.83320  -0.83262
 Alpha  occ. eigenvalues --   -0.83209  -0.82783  -0.82588  -0.81824  -0.81280
 Alpha  occ. eigenvalues --   -0.81223  -0.81133  -0.80502  -0.80358  -0.79245
 Alpha  occ. eigenvalues --   -0.78645  -0.78131  -0.77938  -0.77896  -0.76845
 Alpha  occ. eigenvalues --   -0.76582  -0.75846  -0.75541  -0.75259  -0.74393
 Alpha  occ. eigenvalues --   -0.74245  -0.72702  -0.72526  -0.71795  -0.71679
 Alpha  occ. eigenvalues --   -0.71569  -0.71327  -0.70465  -0.70146  -0.69622
 Alpha  occ. eigenvalues --   -0.69412  -0.67351  -0.67162  -0.66394  -0.66078
 Alpha  occ. eigenvalues --   -0.63713  -0.63514  -0.63264  -0.63053  -0.62647
 Alpha  occ. eigenvalues --   -0.62167  -0.61676  -0.61392  -0.60182  -0.60023
 Alpha  occ. eigenvalues --   -0.59928  -0.59847  -0.59485  -0.59009  -0.58776
 Alpha  occ. eigenvalues --   -0.58617  -0.57152  -0.56412  -0.54900  -0.54894
 Alpha  occ. eigenvalues --   -0.54629  -0.54438  -0.53787  -0.53525  -0.53516
 Alpha  occ. eigenvalues --   -0.53164  -0.52284  -0.52038  -0.51862  -0.51558
 Alpha  occ. eigenvalues --   -0.51226  -0.50627  -0.50285  -0.50016  -0.49732
 Alpha  occ. eigenvalues --   -0.49365  -0.49061  -0.48746  -0.48436  -0.48384
 Alpha  occ. eigenvalues --   -0.48309  -0.48128  -0.48093  -0.47861  -0.47699
 Alpha  occ. eigenvalues --   -0.47490  -0.47480  -0.47156  -0.47129  -0.46697
 Alpha  occ. eigenvalues --   -0.46609  -0.46427  -0.46420  -0.46207  -0.45922
 Alpha  occ. eigenvalues --   -0.45811  -0.45605  -0.45252  -0.45133  -0.44634
 Alpha  occ. eigenvalues --   -0.44577  -0.44524  -0.44506  -0.44404  -0.44071
 Alpha  occ. eigenvalues --   -0.44003  -0.43882  -0.43696  -0.43633  -0.43518
 Alpha  occ. eigenvalues --   -0.43313  -0.43151  -0.43047  -0.42859  -0.42798
 Alpha  occ. eigenvalues --   -0.42715  -0.42643  -0.42416  -0.42197  -0.42109
 Alpha  occ. eigenvalues --   -0.41880  -0.41499  -0.41473  -0.41385  -0.41248
 Alpha  occ. eigenvalues --   -0.41150  -0.40989  -0.40921  -0.40636  -0.40616
 Alpha  occ. eigenvalues --   -0.40255  -0.40169  -0.39759  -0.39735  -0.39505
 Alpha  occ. eigenvalues --   -0.39411  -0.39300  -0.39283  -0.39193  -0.39159
 Alpha  occ. eigenvalues --   -0.39030  -0.38947  -0.38738  -0.38492  -0.38404
 Alpha  occ. eigenvalues --   -0.38307  -0.38060  -0.37964  -0.37931  -0.37479
 Alpha  occ. eigenvalues --   -0.37421  -0.37371  -0.37166  -0.37156  -0.36856
 Alpha  occ. eigenvalues --   -0.36764  -0.36748  -0.36561  -0.36412  -0.36376
 Alpha  occ. eigenvalues --   -0.36178  -0.36076  -0.35892  -0.35454  -0.35194
 Alpha  occ. eigenvalues --   -0.35182  -0.35072  -0.34852  -0.34667  -0.34271
 Alpha  occ. eigenvalues --   -0.33814  -0.33704  -0.33331  -0.32940  -0.32892
 Alpha  occ. eigenvalues --   -0.32570  -0.32231  -0.32174  -0.31863  -0.31675
 Alpha  occ. eigenvalues --   -0.31359  -0.30354  -0.30267  -0.29863  -0.29680
 Alpha  occ. eigenvalues --   -0.29236  -0.28443  -0.28421  -0.27120  -0.26706
 Alpha  occ. eigenvalues --   -0.26666  -0.26323  -0.26088  -0.26065  -0.25795
 Alpha  occ. eigenvalues --   -0.25535  -0.25176  -0.24446  -0.21393  -0.20861
 Alpha  occ. eigenvalues --   -0.19120  -0.18703
 Alpha virt. eigenvalues --   -0.11343  -0.11065  -0.06121  -0.05250  -0.04386
 Alpha virt. eigenvalues --   -0.04232  -0.02637  -0.02430  -0.02164   0.00083
 Alpha virt. eigenvalues --    0.00130   0.00299   0.00513   0.01331   0.01369

 Mulliken charges:
               1
     1  Mg  12.000061
     2  C    5.999715
     3  C    6.000023
     4  C    6.000501
     5  C    5.999856
     6  N    6.999832
     7  C    6.000453
     8  C    5.999913
     9  C    6.000063
    10  C    5.999644
    11  C    6.000102
    12  C    5.999980
    13  C    5.999969
    14  H    1.000110
    15  N    7.000065
    16  C    5.999542
    17  C    5.999610
    18  C    6.000015
    19  C    5.999387
    20  C    6.000044
    21  C    5.999799
    22  O    7.999705
    23  C    6.000074
    24  N    7.000014
    25  C    5.999401
    26  C    6.000168
    27  C    5.999910
    28  C    6.000424
    29  C    6.000009
    30  C    5.999962
    31  C    6.000019
    32  N    6.999957
    33  C    6.000415
    34  C    6.000552
    35  C    5.999879
    36  C    6.000613
    37  C    5.999943
    38  C    6.000251
    39  O    8.000423
    40  C    5.999979
    41  C    6.000048
    42  O    8.000146
    43  O    7.999958
    44  C    5.999978
    45  H    0.999810
    46  H    0.999873
    47  H    1.000126
    48  H    1.000008
    49  H    0.999984
    50  H    0.999909
    51  H    0.999839
    52  H    1.000025
    53  H    1.000100
    54  H    0.999906
    55  H    0.999986
    56  H    1.000009
    57  H    0.999764
    58  H    0.999737
    59  H    0.999776
    60  H    0.999884
    61  H    0.999859
    62  H    0.999817
    63  H    0.999931
    64  H    0.999973
    65  H    0.999866
    66  H    0.999981
    67  H    1.000038
    68  H    0.999915
    69  H    1.000119
    70  H    1.000058
    71  H    1.000000
    72  H    1.000063
    73  H    1.000290
    74  H    1.000300
    75  H    1.000214
    76  H    1.000125
    77  H    1.000052
    78  H    1.000095
    79  H    1.000057
    80  Mg  12.000493
    81  C    6.017227
    82  C    5.989652
    83  C    5.982615
    84  C    6.008980
    85  N    7.006348
    86  C    5.968269
    87  C    6.009358
    88  C    5.989598
    89  C    6.031775
    90  C    5.996987
    91  C    6.003094
    92  C    6.001249
    93  H    0.990728
    94  N    6.996263
    95  C    6.034612
    96  C    6.024440
    97  C    6.013224
    98  C    6.028602
    99  C    5.997895
   100  C    6.011100
   101  O    8.026465
   102  C    5.996734
   103  N    6.994141
   104  C    6.032240
   105  C    5.991169
   106  C    6.011212
   107  C    5.969627
   108  C    5.998080
   109  C    6.003701
   110  C    6.000045
   111  N    6.999597
   112  C    5.965922
   113  C    5.967740
   114  C    6.000923
   115  C    5.970900
   116  C    5.999380
   117  C    5.983529
   118  O    7.970894
   119  C    5.999853
   120  C    5.993654
   121  O    7.997875
   122  O    7.997649
   123  C    6.002332
   124  H    1.009596
   125  H    1.006195
   126  H    0.990711
   127  H    0.999568
   128  H    1.000859
   129  H    1.013098
   130  H    0.999034
   131  H    1.002219
   132  H    0.988550
   133  H    1.006505
   134  H    0.999574
   135  H    1.003882
   136  H    1.015379
   137  H    1.014947
   138  H    1.020634
   139  H    1.006524
   140  H    1.012576
   141  H    1.007430
   142  H    1.000979
   143  H    0.998699
   144  H    0.995139
   145  H    1.010243
   146  H    1.001361
   147  H    1.005624
   148  H    0.990128
   149  H    0.994097
   150  H    1.001640
   151  H    0.995852
   152  H    0.982140
   153  H    0.982290
   154  H    0.988485
   155  H    0.992119
   156  H    0.992995
   157  H    0.996462
   158  H    0.998293
 Sum of Mulliken charges = 624.00000

 Dipole moment (field-independent basis, Debye):
    X=              1.9774    Y=              9.7701    Z=             -1.6477  Tot=             10.1034
 Quadrupole moment (field-independent basis, Debye-Ang):
   XX=            -86.7924   YY=             10.4728   ZZ=             -3.3073
   XY=           -235.1080   XZ=             41.9605   YZ=              0.8648

 Normal termination of Gaussian 16 at Fri Oct 15 08:36:58 2021.
