 Gaussian 16, Revision A.03,
 Gaussian 16:  ES64L-G16RevA.03 25-Dec-2016

 --------------------------------------------------------
 #p PBE1PBE/Def2SVP td=(nstates=5) density=(transition=1)
 --------------------------------------------------------

 --------------------------------
 TDDFT excited states in gaussian
 --------------------------------
 Symbolic Z-matrix:
 Charge =  0 Multiplicity = 1

                         Standard orientation:
 ---------------------------------------------------------------------
 Center     Atomic      Atomic             Coordinates (Angstroms)
 Number     Number       Type             X           Y           Z
 ---------------------------------------------------------------------
      1         12           0       -9.098948   -0.981532    0.635641
      2          6           0      -10.046014    2.287873   -0.195925
      3          6           0       -6.569101    0.388761    2.699173
      4          6           0       -7.935720   -4.123113    1.189584
      5          6           0      -11.086708   -2.139310   -1.939118
      6          7           0       -8.546961    1.067875    1.273729
      7          6           0       -9.231421    2.230389    0.907569
      8          6           0       -8.857929    3.383793    1.906985
      9          6           0       -7.713402    2.764404    2.717386
     10          6           0       -7.554534    1.304820    2.165275
     11          6           0       -6.413053    3.593498    2.538692
     12          6           0      -10.106471    3.772846    2.689149
     13          6           0      -10.209676    5.197833    3.207752
     14          1           0       -8.936451    6.073729    3.198070
     15          7           0       -7.498400   -1.806496    1.780685
     16          6           0       -6.558397   -1.073465    2.529771
     17          6           0       -5.586543   -1.963125    3.140841
     18          6           0       -5.966330   -3.319948    2.796713
     19          6           0       -7.164006   -3.120348    1.872728
     20          6           0       -4.504187   -1.513013    4.130359
     21          6           0       -5.370018   -4.652727    3.207019
     22          8           0       -5.865133   -5.699225    2.810277
     23          6           0       -4.324400   -4.669451    4.254952
     24          7           0       -9.538378   -2.877581   -0.235016
     25          6           0       -8.987233   -4.029840    0.238215
     26          6           0       -9.675270   -5.250625   -0.426856
     27          6           0      -10.749019   -4.626180   -1.400038
     28          6           0      -10.554905   -3.112130   -1.127229
     29          6           0       -8.631824   -6.133835   -1.134159
     30          6           0      -12.216841   -5.030928   -1.100388
     31          6           0      -12.652319   -6.106273   -2.090998
     32          7           0      -10.269766   -0.172360   -0.898005
     33          6           0      -10.969010   -0.719577   -1.921525
     34          6           0      -11.415795    0.391866   -2.796079
     35          6           0      -11.183018    1.559515   -2.130223
     36          6           0      -10.436937    1.155094   -0.993823
     37          6           0      -12.184138    0.131159   -4.080764
     38          6           0      -11.367463    3.016749   -2.110348
     39          8           0      -11.905948    3.740121   -2.939569
     40          6           0      -10.715469    3.486165   -0.824142
     41          6           0       -9.822853    4.588478   -1.215637
     42          8           0       -8.703383    4.562703   -1.744654
     43          8           0      -10.487309    5.769654   -0.956074
     44          6           0       -9.812205    6.992365   -1.333354
     45          1           0       -5.855911    0.846424    3.387583
     46          1           0       -7.569737   -5.102609    1.504493
     47          1           0      -11.619353   -2.578642   -2.785216
     48          1           0       -8.519419    4.147191    1.205417
     49          1           0       -7.975766    2.916244    3.764341
     50          1           0       -5.623694    3.094742    1.976068
     51          1           0       -5.935773    3.617741    3.517933
     52          1           0       -6.597962    4.550111    2.050405
     53          1           0      -10.168942    3.023913    3.479226
     54          1           0      -10.983593    3.552054    2.082007
     55          1           0      -10.629606    5.171602    4.212365
     56          1           0      -10.974381    5.605984    2.545955
     57          1           0       -4.414217   -0.430744    4.225546
     58          1           0       -3.532107   -1.894272    3.814783
     59          1           0       -4.683278   -2.003954    5.086189
     60          1           0       -4.765364   -4.322705    5.189853
     61          1           0       -3.410076   -4.190421    3.904830
     62          1           0       -4.012145   -5.684907    4.498965
     63          1           0      -10.105035   -5.857918    0.369432
     64          1           0      -10.392522   -4.863658   -2.403196
     65          1           0       -8.784183   -6.312499   -2.198174
     66          1           0       -8.817265   -7.070141   -0.608246
     67          1           0       -7.614819   -5.743434   -1.109642
     68          1           0      -12.895324   -4.227710   -1.388345
     69          1           0      -12.376913   -5.381614   -0.080654
     70          1           0      -13.124848   -6.858770   -1.459865
     71          1           0      -11.829226   -6.661811   -2.539785
     72          1           0      -13.337231   -5.774717   -2.871923
     73          1           0      -12.178556   -0.903089   -4.425833
     74          1           0      -11.841085    0.751724   -4.907695
     75          1           0      -13.246245    0.266922   -3.873784
     76          1           0      -11.508158    3.818050   -0.154410
     77          1           0       -9.497686    6.887060   -2.371981
     78          1           0       -8.934025    7.210693   -0.725313
     79          1           0      -10.615012    7.715892   -1.471045
     80         12           0        9.360604   -0.317412   -0.181051
     81          6           0        7.231080    2.436343   -0.278455
     82          6           0       11.923162    1.731690    0.853033
     83          6           0       11.357967   -3.030865   -0.404804
     84          6           0        6.735823   -2.258271   -1.634770
     85          7           0        9.540168    1.829687    0.117641
     86          6           0        8.556337    2.767559    0.055189
     87          6           0        9.059326    4.139102    0.523757
     88          6           0       10.612950    3.854796    0.728110
     89          6           0       10.683040    2.333364    0.560138
     90          6           0       11.468534    4.574657   -0.307333
     91          6           0        8.491934    4.646077    1.897325
     92          6           0        8.413889    6.136082    2.106407
     93          1           0        9.154285    7.030888    1.216539
     94          7           0       11.304981   -0.613626    0.255954
     95          6           0       12.210516    0.384306    0.668405
     96          6           0       13.426475   -0.298804    1.024557
     97          6           0       13.298936   -1.679971    0.730627
     98          6           0       11.938014   -1.835983    0.160677
     99          6           0       14.699285    0.423661    1.411072
    100          6           0       14.221738   -2.806704    0.938934
    101          8           0       14.051090   -3.905504    0.455320
    102          6           0       15.588489   -2.588394    1.683810
    103          7           0        9.071883   -2.462806   -0.764705
    104          6           0       10.047609   -3.320941   -0.781127
    105          6           0        9.581692   -4.703252   -1.329468
    106          6           0        8.111880   -4.507085   -1.653722
    107          6           0        7.913182   -2.969250   -1.400726
    108          6           0       10.539413   -5.184742   -2.518650
    109          6           0        7.182272   -5.428139   -0.835569
    110          6           0        6.718904   -6.770517   -1.515427
    111          7           0        7.385376   -0.116717   -0.581066
    112          6           0        6.431415   -0.981115   -1.173318
    113          6           0        5.170302   -0.353003   -1.284608
    114          6           0        5.495181    1.042641   -1.007465
    115          6           0        6.847012    1.068110   -0.559866
    116          6           0        3.939988   -0.934914   -1.956422
    117          6           0        4.894023    2.324851   -1.034747
    118          8           0        3.756704    2.695129   -1.297558
    119          6           0        6.072039    3.340645   -0.433582
    120          6           0        6.196825    4.438248   -1.449093
    121          8           0        6.493440    4.263156   -2.635606
    122          8           0        5.802685    5.709546   -0.935950
    123          6           0        5.889088    6.853772   -1.896442
    124          1           0       12.689000    2.440742    1.176505
    125          1           0       12.104564   -3.797369   -0.621132
    126          1           0        5.884893   -2.817041   -2.029027
    127          1           0        8.875463    4.826914   -0.301897
    128          1           0       10.979865    4.180872    1.701238
    129          1           0       10.898129    5.346968   -0.822641
    130          1           0       11.957811    3.889717   -1.000374
    131          1           0       12.242595    5.208570    0.125260
    132          1           0        9.093559    4.194515    2.685377
    133          1           0        7.522227    4.164830    2.026353
    134          1           0        8.856388    6.340931    3.081008
    135          1           0        7.369190    6.445250    2.071990
    136          1           0       15.495328    0.314772    0.674562
    137          1           0       15.006747    0.060976    2.392795
    138          1           0       14.626040    1.506819    1.507220
    139          1           0       16.270014   -2.180465    0.936888
    140          1           0       16.034571   -3.550042    1.937837
    141          1           0       15.480560   -1.865787    2.491776
    142          1           0        9.735973   -5.365784   -0.477589
    143          1           0        7.918487   -4.590505   -2.722072
    144          1           0        9.961241   -5.378801   -3.421960
    145          1           0       11.015851   -6.147344   -2.331844
    146          1           0       11.219141   -4.346091   -2.674965
    147          1           0        6.294119   -4.835540   -0.613413
    148          1           0        7.692349   -5.624567    0.107597
    149          1           0        5.836964   -6.547311   -2.116848
    150          1           0        6.549254   -7.647812   -0.890896
    151          1           0        7.532003   -6.919885   -2.225019
    152          1           0        3.480807   -1.523191   -1.162382
    153          1           0        4.210324   -1.591253   -2.782762
    154          1           0        3.311359   -0.235154   -2.508613
    155          1           0        5.761848    3.691976    0.551294
    156          1           0        5.212947    6.721331   -2.740300
    157          1           0        6.862020    7.102722   -2.320984
    158          1           0        5.493986    7.641489   -1.254964
 ---------------------------------------------------------------------

 SCF Done:  E(RPBE1PBE) =  -4067.40183198     A.U. after   16 cycles

 Excitation energies and oscillator strengths:

 Excited State   1:      Singlet-A      1.6740 eV  740.65 nm  f=0.0000  <S**2>=0.000
     312 -> 313        0.70706
 This state for optimization and/or second-order correction.
 Total Energy, E(TD-HF/TD-DFT) =  -4067.34031376
 Copying the excited state density for this state as the 1-particle RhoCI density.

 Excited State   2:      Singlet-A      1.8250 eV  679.36 nm  f=0.5224  <S**2>=0.000
     310 -> 316       -0.15702
     311 -> 313        0.15323
     312 -> 314        0.67748
     312 <- 314       -0.10851

 Excited State   3:      Singlet-A      1.8467 eV  671.39 nm  f=0.2329  <S**2>=0.000
     309 -> 315       -0.17060
     311 -> 313        0.67515
     312 -> 314       -0.15319
     311 <- 313       -0.10205

 Excited State   4:      Singlet-A      2.0222 eV  613.10 nm  f=0.0000  <S**2>=0.000
     311 -> 314        0.70706

 Excited State   5:      Singlet-A      2.2001 eV  563.53 nm  f=0.0799  <S**2>=0.000
     310 -> 314        0.64947
     312 -> 316        0.24192

 The electronic state is 1-A.
 Alpha  occ. eigenvalues --  -46.92356 -46.91407 -19.24983 -19.24896 -19.19886
 Alpha  occ. eigenvalues --  -19.19757 -19.19482 -19.19181 -19.19092 -19.18872
 Alpha  occ. eigenvalues --  -14.42145 -14.41550 -14.41209 -14.41106 -14.39740
 Alpha  occ. eigenvalues --  -14.39529 -14.39217 -14.38774 -10.36235 -10.36181
 Alpha  occ. eigenvalues --  -10.32505 -10.32299 -10.32268 -10.31807 -10.29408
 Alpha  occ. eigenvalues --  -10.29092 -10.29010 -10.28807 -10.28781 -10.28684
 Alpha  occ. eigenvalues --  -10.28480 -10.28467 -10.28395 -10.28381 -10.28370
 Alpha  occ. eigenvalues --  -10.28323 -10.28044 -10.27858 -10.27197 -10.27114
 Alpha  occ. eigenvalues --  -10.26897 -10.26859 -10.26811 -10.26399 -10.26340
 Alpha  occ. eigenvalues --  -10.26015 -10.25995 -10.25919 -10.25855 -10.25798
 Alpha  occ. eigenvalues --  -10.25635 -10.25630 -10.25534 -10.25496 -10.25443
 Alpha  occ. eigenvalues --  -10.25426 -10.25410 -10.25378 -10.25377 -10.25324
 Alpha  occ. eigenvalues --  -10.25260 -10.25240 -10.25145 -10.25048 -10.24898
 Alpha  occ. eigenvalues --  -10.24696 -10.24609 -10.24524 -10.24235 -10.24103
 Alpha  occ. eigenvalues --  -10.24068 -10.23936 -10.23863 -10.23707 -10.23571
 Alpha  occ. eigenvalues --  -10.23497 -10.23463 -10.23392 -10.23297 -10.23239
 Alpha  occ. eigenvalues --  -10.22923 -10.22773 -10.22741 -10.22622 -10.22521
 Alpha  occ. eigenvalues --  -10.22375  -3.14337  -3.13680  -1.87191  -1.86670
 Alpha  occ. eigenvalues --   -1.86591  -1.86534  -1.86047  -1.85924  -1.10418
 Alpha  occ. eigenvalues --   -1.08256  -1.05572  -1.04867  -1.04700  -1.03738
 Alpha  occ. eigenvalues --   -1.01533  -1.00732  -0.99807  -0.99000  -0.98745
 Alpha  occ. eigenvalues --   -0.98169  -0.97246  -0.97041  -0.96854  -0.96018
 Alpha  occ. eigenvalues --   -0.87661  -0.86622  -0.83577  -0.83351  -0.83249
 Alpha  occ. eigenvalues --   -0.82951  -0.82659  -0.82059  -0.82032  -0.81753
 Alpha  occ. eigenvalues --   -0.81295  -0.80907  -0.80746  -0.79793  -0.78563
 Alpha  occ. eigenvalues --   -0.78435  -0.78000  -0.77383  -0.76876  -0.76480
 Alpha  occ. eigenvalues --   -0.76296  -0.75731  -0.75104  -0.74598  -0.74304
 Alpha  occ. eigenvalues --   -0.74225  -0.72851  -0.72098  -0.71659  -0.71467
 Alpha  occ. eigenvalues --   -0.71193  -0.70958  -0.70210  -0.70138  -0.69414
 Alpha  occ. eigenvalues --   -0.68747  -0.67655  -0.66861  -0.66059  -0.65294
 Alpha  occ. eigenvalues --   -0.63839  -0.63378  -0.63311  -0.62753  -0.62602
 Alpha  occ. eigenvalues --   -0.62200  -0.61677  -0.61280  -0.60203  -0.59734
 Alpha  occ. eigenvalues --   -0.59671  -0.59487  -0.59246  -0.59147  -0.59012
 Alpha  occ. eigenvalues --   -0.58307  -0.56583  -0.56066  -0.54802  -0.54420
 Alpha  occ. eigenvalues --   -0.54276  -0.54081  -0.53948  -0.53425  -0.53246
 Alpha  occ. eigenvalues --   -0.53166  -0.52847  -0.52422  -0.52110  -0.51883
 Alpha  occ. eigenvalues --   -0.50828  -0.50370  -0.50152  -0.49548  -0.49487
 Alpha  occ. eigenvalues --   -0.49219  -0.49155  -0.48631  -0.48052  -0.47886
 Alpha  occ. eigenvalues --   -0.47853  -0.47733  -0.47714  -0.47600  -0.47381
 Alpha  occ. eigenvalues --   -0.47363  -0.47290  -0.47054  -0.46851  -0.46758
 Alpha  occ. eigenvalues --   -0.46669  -0.46352  -0.46218  -0.46213  -0.45857
 Alpha  occ. eigenvalues --   -0.45762  -0.45285  -0.45256  -0.44687  -0.44671
 Alpha  occ. eigenvalues --   -0.44451  -0.44195  -0.44175  -0.43989  -0.43888
 Alpha  occ. eigenvalues --   -0.43888  -0.43852  -0.43645  -0.43609  -0.43492
 Alpha  occ. eigenvalues --   -0.43167  -0.43092  -0.43037  -0.42864  -0.42735
 Alpha  occ. eigenvalues --   -0.42375  -0.42337  -0.42245  -0.41914  -0.41909
 Alpha  occ. eigenvalues --   -0.41785  -0.41668  -0.41572  -0.41556  -0.41316
 Alpha  occ. eigenvalues --   -0.40916  -0.40654  -0.40501  -0.40421  -0.39987
 Alpha  occ. eigenvalues --   -0.39861  -0.39829  -0.39520  -0.39509  -0.39325
 Alpha  occ. eigenvalues --   -0.39284  -0.39080  -0.39022  -0.38906  -0.38893
 Alpha  occ. eigenvalues --   -0.38836  -0.38732  -0.38277  -0.38277  -0.38020
 Alpha  occ. eigenvalues --   -0.37943  -0.37790  -0.37772  -0.37674  -0.37567
 Alpha  occ. eigenvalues --   -0.37513  -0.37194  -0.37115  -0.37045  -0.36860
 Alpha  occ. eigenvalues --   -0.36741  -0.36628  -0.36497  -0.36233  -0.36206
 Alpha  occ. eigenvalues --   -0.35994  -0.35726  -0.35672  -0.35106  -0.35097
 Alpha  occ. eigenvalues --   -0.34745  -0.34660  -0.34431  -0.33714  -0.33611
 Alpha  occ. eigenvalues --   -0.33334  -0.32862  -0.32818  -0.32784  -0.32602
 Alpha  occ. eigenvalues --   -0.32305  -0.32064  -0.31407  -0.31258  -0.31081
 Alpha  occ. eigenvalues --   -0.30776  -0.30749  -0.29727  -0.29221  -0.29199
 Alpha  occ. eigenvalues --   -0.28908  -0.28573  -0.28085  -0.27013  -0.26761
 Alpha  occ. eigenvalues --   -0.26279  -0.26048  -0.26014  -0.25776  -0.25726
 Alpha  occ. eigenvalues --   -0.25507  -0.25381  -0.25089  -0.21122  -0.20565
 Alpha  occ. eigenvalues --   -0.19153  -0.18413
 Alpha virt. eigenvalues --   -0.11550  -0.10953  -0.05249  -0.04895  -0.03992
 Alpha virt. eigenvalues --   -0.03871  -0.02282  -0.02050  -0.00279   0.00001
 Alpha virt. eigenvalues --    0.00746   0.01112   0.01248   0.01303   0.01652

 Mulliken charges:
               1
     1  Mg  12.000000
     2  C    6.000000
     3  C    6.000000
     4  C    6.000000
     5  C    6.000000
     6  N    7.000000
     7  C    6.000000
     8  C    6.000000
     9  C    6.000000
    10  C    6.000000
    11  C    6.000000
    12  C    6.000000
    13  C    6.000000
    14  H    1.000000
    15  N    7.000000
    16  C    6.000000
    17  C    6.000000
    18  C    6.000000
    19  C    6.000000
    20  C    6.000000
    21  C    6.000000
    22  O    8.000000
    23  C    6.000000
    24  N    7.000000
    25  C    6.000000
    26  C    6.000000
    27  C    6.000000
    28  C    6.000000
    29  C    6.000000
    30  C    6.000000
    31  C    6.000000
    32  N    7.000000
    33  C    6.000000
    34  C    6.000000
    35  C    6.000000
    36  C    6.000000
    37  C    6.000000
    38  C    6.000000
    39  O    8.000000
    40  C    6.000000
    41  C    6.000000
    42  O    8.000000
    43  O    8.000000
    44  C    6.000000
    45  H    1.000000
    46  H    1.000000
    47  H    1.000000
    48  H    1.000000
    49  H    1.000000
    50  H    1.000000
    51  H    1.000000
    52  H    1.000000
    53  H    1.000000
    54  H    1.000000
    55  H    1.000000
    56  H    1.000000
    57  H    1.000000
    58  H    1.000000
    59  H    1.000000
    60  H    1.000000
    61  H    1.000000
    62  H    1.000000
    63  H    1.000000
    64  H    1.000000
    65  H    1.000000
    66  H    1.000000
    67  H    1.000000
    68  H    1.000000
    69  H    1.000000
    70  H    1.000000
    71  H    1.000000
    72  H    1.000000
    73  H    1.000000
    74  H    1.000000
    75  H    1.000000
    76  H    1.000000
    77  H    1.000000
    78  H    1.000000
    79  H    1.000000
    80  Mg  12.000000
    81  C    6.000000
    82  C    6.000000
    83  C    6.000000
    84  C    6.000000
    85  N    7.000000
    86  C    6.000000
    87  C    6.000000
    88  C    6.000000
    89  C    6.000000
    90  C    6.000000
    91  C    6.000000
    92  C    6.000000
    93  H    1.000000
    94  N    7.000000
    95  C    6.000000
    96  C    6.000000
    97  C    6.000000
    98  C    6.000000
    99  C    6.000000
   100  C    6.000000
   101  O    8.000000
   102  C    6.000000
   103  N    7.000000
   104  C    6.000000
   105  C    6.000000
   106  C    6.000000
   107  C    6.000000
   108  C    6.000000
   109  C    6.000000
   110  C    6.000000
   111  N    7.000000
   112  C    6.000000
   113  C    6.000000
   114  C    6.000000
   115  C    6.000000
   116  C    6.000000
   117  C    6.000000
   118  O    8.000000
   119  C    6.000000
   120  C    6.000000
   121  O    8.000000
   122  O    8.000000
   123  C    6.000000
   124  H    1.000000
   125  H    1.000000
   126  H    1.000000
   127  H    1.000000
   128  H    1.000000
   129  H    1.000000
   130  H    1.000000
   131  H    1.000000
   132  H    1.000000
   133  H    1.000000
   134  H    1.000000
   135  H    1.000000
   136  H    1.000000
   137  H    1.000000
   138  H    1.000000
   139  H    1.000000
   140  H    1.000000
   141  H    1.000000
   142  H    1.000000
   143  H    1.000000
   144  H    1.000000
   145  H    1.000000
   146  H    1.000000
   147  H    1.000000
   148  H    1.000000
   149  H    1.000000
   150  H    1.000000
   151  H    1.000000
   152  H    1.000000
   153  H    1.000000
   154  H    1.000000
   155  H    1.000000
   156  H    1.000000
   157  H    1.000000
   158  H    1.000000
 Sum of Mulliken charges = 624.00000

 Dipole moment (field-independent basis, Debye):
    X=              0.0000    Y=             -0.0000    Z=              0.0000  Tot=              0.0000
 Quadrupole moment (field-independent basis, Debye-Ang):
   XX=             -0.0000   YY=              0.0000   ZZ=              0.0000
   XY=              0.0000   XZ=             -0.0000   YZ=             -0.0000

 Normal termination of Gaussian 16 at Fri Oct 15 03:26:51 2021.
