 Gaussian 16, Revision A.03,
 Gaussian 16:  ES64L-G16RevA.03 25-Dec-2016

 --------------------------------------------------------
 #p PBE1PBE/Def2SVP td=(nstates=5) density=(transition=1)
 --------------------------------------------------------

 --------------------------------
 TDDFT excited states in gaussian
 --------------------------------
 Symbolic Z-matrix:
 Charge =  0 Multiplicity = 1

                         Standard orientation:
 ---------------------------------------------------------------------
 Center     Atomic      Atomic             Coordinates (Angstroms)
 Number     Number       Type             X           Y           Z
 ---------------------------------------------------------------------
      1         12           0       12.845753   -0.090124    0.466817
      2          6           0        9.338586   -0.504579   -0.515735
      3          6           0       13.292127    1.540951   -2.601778
      4          6           0       16.041870    0.006927    1.101638
      5          6           0       12.135757   -1.552674    3.486549
      6          7           0       11.543223    0.264405   -1.409704
      7          6           0       10.098931    0.133758   -1.557532
      8          6           0        9.566958    0.612589   -2.925356
      9          6           0       10.980700    1.072902   -3.610882
     10          6           0       12.046535    0.954638   -2.503826
     11          6           0       11.335632    0.294176   -4.862648
     12          6           0        8.470958    1.704685   -2.736587
     13          6           0        8.092671    2.456207   -3.977393
     14          1           0        6.634877    2.725772   -4.277129
     15          7           0       14.497337    0.652217   -0.606721
     16          6           0       14.489184    1.298292   -1.848134
     17          6           0       15.847346    1.711025   -2.197033
     18          6           0       16.696384    1.270508   -1.100670
     19          6           0       15.775465    0.600816   -0.109447
     20          6           0       16.235937    2.550848   -3.468719
     21          6           0       18.167506    1.347465   -0.903521
     22          8           0       18.763060    0.960943    0.093306
     23          6           0       19.010011    2.030708   -1.899380
     24          7           0       13.894790   -0.585276    2.053438
     25          6           0       15.229023   -0.576015    2.059430
     26          6           0       15.824111   -1.089481    3.391549
     27          6           0       14.583822   -1.148401    4.258873
     28          6           0       13.421832   -1.161638    3.191525
     29          6           0       16.524413   -2.436856    3.258545
     30          6           0       14.290482   -0.138399    5.337888
     31          6           0       14.089635    1.273830    4.831139
     32          7           0       11.152583   -0.964293    1.307506
     33          6           0       11.009642   -1.437571    2.624332
     34          6           0        9.649745   -1.877577    2.816506
     35          6           0        9.014091   -1.439710    1.626221
     36          6           0        9.955353   -0.903871    0.726696
     37          6           0        9.014187   -2.446525    4.051378
     38          6           0        7.650267   -1.348209    1.018997
     39          8           0        6.522894   -1.595898    1.497768
     40          6           0        7.859399   -0.773776   -0.380366
     41          6           0        7.265198   -1.717510   -1.428032
     42          8           0        7.589535   -2.901219   -1.740309
     43          8           0        6.349264   -0.996247   -2.135285
     44          6           0        5.708203   -1.704617   -3.266263
     45          1           0       13.382825    2.218050   -3.452552
     46          1           0       17.113792   -0.028915    1.306716
     47          1           0       11.842519   -2.048889    4.414163
     48          1           0        9.061618   -0.254455   -3.350656
     49          1           0       10.947258    2.146432   -3.796777
     50          1           0       11.438428    0.997519   -5.689487
     51          1           0       10.494085   -0.369412   -5.058330
     52          1           0       12.106036   -0.472014   -4.778598
     53          1           0        8.809742    2.313817   -1.897845
     54          1           0        7.567816    1.225007   -2.359104
     55          1           0        8.382468    2.015271   -4.930893
     56          1           0        8.488063    3.469644   -3.915070
     57          1           0       16.642938    3.480600   -3.070158
     58          1           0       15.386354    2.787805   -4.108976
     59          1           0       16.984716    1.963970   -4.000852
     60          1           0       18.758440    1.786891   -2.931752
     61          1           0       20.012909    1.670540   -1.672797
     62          1           0       18.734744    3.079588   -1.793296
     63          1           0       16.558561   -0.352236    3.716022
     64          1           0       14.535045   -2.068524    4.841871
     65          1           0       17.431342   -2.414588    3.861664
     66          1           0       16.801831   -2.637450    2.224250
     67          1           0       15.928844   -3.219021    3.730680
     68          1           0       15.071387   -0.221874    6.094246
     69          1           0       13.320143   -0.328156    5.796430
     70          1           0       14.638202    2.003208    5.425981
     71          1           0       13.052884    1.603562    4.902041
     72          1           0       14.414300    1.432883    3.802765
     73          1           0        8.115844   -1.879469    4.294128
     74          1           0        9.573280   -2.516059    4.984449
     75          1           0        8.724361   -3.470038    3.812715
     76          1           0        7.276029    0.144015   -0.459459
     77          1           0        6.179373   -1.405321   -4.202260
     78          1           0        4.680256   -1.382094   -3.100658
     79          1           0        5.688125   -2.785799   -3.123472
     80         12           0      -12.284813   -0.469860   -0.365641
     81          6           0      -12.084625    2.789983    0.777546
     82          6           0       -8.888472   -0.421603   -1.018553
     83          6           0      -12.408224   -3.823012   -0.734397
     84          6           0      -15.649515   -0.415537    0.689573
     85          7           0      -10.614240    0.938752    0.127592
     86          6           0      -10.846985    2.226072    0.398620
     87          6           0       -9.496933    2.994224    0.543495
     88          6           0       -8.516599    2.046543   -0.296322
     89          6           0       -9.408631    0.761356   -0.491831
     90          6           0       -7.968106    2.726993   -1.573684
     91          6           0       -9.068304    3.039194    1.992518
     92          6           0       -8.468400    4.356837    2.457857
     93          1           0       -7.268986    4.435953    3.475834
     94          7           0      -10.819599   -1.888451   -0.997704
     95          6           0       -9.494135   -1.720452   -1.144955
     96          6           0       -8.948279   -2.966694   -1.575168
     97          6           0       -9.984360   -3.944094   -1.675707
     98          6           0      -11.168065   -3.244859   -1.160578
     99          6           0       -7.542707   -3.082493   -2.036985
    100          6           0       -9.753211   -5.374641   -2.011152
    101          8           0       -8.638421   -5.758882   -2.323441
    102          6           0      -10.896414   -6.381880   -2.044883
    103          7           0      -13.919596   -1.945496   -0.127977
    104          6           0      -13.626553   -3.266435   -0.287668
    105          6           0      -14.752198   -4.119176    0.200554
    106          6           0      -15.793903   -2.995384    0.666714
    107          6           0      -15.156621   -1.665016    0.350845
    108          6           0      -15.283433   -5.137547   -0.825511
    109          6           0      -16.295931   -3.092312    2.175194
    110          6           0      -17.807689   -3.085063    2.502539
    111          7           0      -13.608183    0.860132    0.506454
    112          6           0      -14.932190    0.766856    0.800659
    113          6           0      -15.466581    2.038320    1.013590
    114          6           0      -14.397911    2.923852    0.999516
    115          6           0      -13.286935    2.153812    0.762562
    116          6           0      -16.960419    2.323696    1.346449
    117          6           0      -14.004135    4.249117    1.118153
    118          8           0      -14.685346    5.212875    1.450229
    119          6           0      -12.403260    4.303880    1.027049
    120          6           0      -11.960793    5.028932   -0.108924
    121          8           0      -11.925890    4.718588   -1.302056
    122          8           0      -11.513076    6.255929    0.370959
    123          6           0      -10.985681    7.261715   -0.535186
    124          1           0       -7.856989   -0.366191   -1.372058
    125          1           0      -12.601627   -4.895060   -0.816166
    126          1           0      -16.718444   -0.490572    0.900359
    127          1           0       -9.643181    4.001198    0.153690
    128          1           0       -7.686901    1.641768    0.282303
    129          1           0       -8.426662    3.701219   -1.741982
    130          1           0       -8.144317    2.080703   -2.434135
    131          1           0       -6.886668    2.804356   -1.463784
    132          1           0       -8.396837    2.256227    2.345516
    133          1           0       -9.965386    2.763601    2.546922
    134          1           0       -9.300789    4.965230    2.811126
    135          1           0       -8.147729    4.786041    1.508633
    136          1           0       -7.642422   -3.019603   -3.120430
    137          1           0       -7.091614   -4.021590   -1.715924
    138          1           0       -6.901963   -2.281409   -1.668299
    139          1           0      -11.075992   -6.656434   -1.005314
    140          1           0      -10.479776   -7.281678   -2.496859
    141          1           0      -11.768675   -5.960800   -2.544669
    142          1           0      -14.263112   -4.610798    1.040887
    143          1           0      -16.745884   -3.090363    0.144369
    144          1           0      -14.923166   -6.111059   -0.491331
    145          1           0      -14.967772   -4.917371   -1.845830
    146          1           0      -16.371509   -5.167268   -0.773389
    147          1           0      -15.875959   -2.251887    2.727646
    148          1           0      -15.982267   -4.013047    2.667583
    149          1           0      -17.960087   -2.011917    2.616842
    150          1           0      -17.990108   -3.568713    3.461304
    151          1           0      -18.537516   -3.322939    1.728788
    152          1           0      -17.148334    2.016332    2.374401
    153          1           0      -17.696352    1.758655    0.774079
    154          1           0      -17.182348    3.387610    1.258683
    155          1           0      -12.067983    4.710535    1.981281
    156          1           0      -11.222850    8.233353   -0.102956
    157          1           0      -11.287362    7.152558   -1.577243
    158          1           0       -9.898093    7.211667   -0.480878
 ---------------------------------------------------------------------

 SCF Done:  E(RPBE1PBE) =  -4067.36596197     A.U. after   16 cycles

 Excitation energies and oscillator strengths:

 Excited State   1:      Singlet-A      1.8173 eV  682.24 nm  f=0.4088  <S**2>=0.000
     310 -> 316       -0.16184
     312 -> 313        0.69499
     312 <- 313       -0.11386
 This state for optimization and/or second-order correction.
 Total Energy, E(TD-HF/TD-DFT) =  -4067.29917742
 Copying the excited state density for this state as the 1-particle RhoCI density.

 Excited State   2:      Singlet-A      1.8606 eV  666.35 nm  f=0.3750  <S**2>=0.000
     309 -> 315       -0.17768
     311 -> 314        0.69133
     311 <- 314       -0.11012

 Excited State   3:      Singlet-A      1.8820 eV  658.79 nm  f=0.0000  <S**2>=0.000
     311 -> 313        0.70709

 Excited State   4:      Singlet-A      1.9009 eV  652.22 nm  f=0.0000  <S**2>=0.000
     312 -> 314        0.70709

 Excited State   5:      Singlet-A      2.1798 eV  568.78 nm  f=0.1305  <S**2>=0.000
     310 -> 313        0.66139
     312 -> 316        0.23366

 The electronic state is 1-A.
 Alpha  occ. eigenvalues --  -46.93002 -46.91169 -19.26510 -19.25218 -19.20292
 Alpha  occ. eigenvalues --  -19.20005 -19.19458 -19.18906 -19.18780 -19.18531
 Alpha  occ. eigenvalues --  -14.42093 -14.41814 -14.41665 -14.41442 -14.39526
 Alpha  occ. eigenvalues --  -14.39404 -14.38819 -14.38679 -10.37092 -10.36468
 Alpha  occ. eigenvalues --  -10.32304 -10.31992 -10.31714 -10.31619 -10.29919
 Alpha  occ. eigenvalues --  -10.29208 -10.29199 -10.29085 -10.29054 -10.28981
 Alpha  occ. eigenvalues --  -10.28810 -10.28801 -10.28736 -10.28656 -10.28580
 Alpha  occ. eigenvalues --  -10.28564 -10.28149 -10.27861 -10.27420 -10.27321
 Alpha  occ. eigenvalues --  -10.27057 -10.26840 -10.26808 -10.26576 -10.26562
 Alpha  occ. eigenvalues --  -10.26472 -10.26329 -10.26275 -10.26234 -10.26148
 Alpha  occ. eigenvalues --  -10.26090 -10.26059 -10.25934 -10.25919 -10.25897
 Alpha  occ. eigenvalues --  -10.25824 -10.25714 -10.25600 -10.25482 -10.25409
 Alpha  occ. eigenvalues --  -10.25396 -10.25132 -10.25100 -10.25007 -10.24850
 Alpha  occ. eigenvalues --  -10.24712 -10.24563 -10.24479 -10.24406 -10.24304
 Alpha  occ. eigenvalues --  -10.24303 -10.23902 -10.23694 -10.23562 -10.23557
 Alpha  occ. eigenvalues --  -10.23339 -10.23305 -10.23283 -10.23265 -10.23249
 Alpha  occ. eigenvalues --  -10.23067 -10.22929 -10.22728 -10.22475 -10.22313
 Alpha  occ. eigenvalues --  -10.21987  -3.14911  -3.13486  -1.87764  -1.87280
 Alpha  occ. eigenvalues --   -1.87126  -1.86333  -1.85873  -1.85711  -1.10869
 Alpha  occ. eigenvalues --   -1.10385  -1.04904  -1.04738  -1.04681  -1.02701
 Alpha  occ. eigenvalues --   -1.02218  -1.00652  -1.00135  -0.99666  -0.98646
 Alpha  occ. eigenvalues --   -0.98422  -0.97710  -0.97247  -0.96733  -0.95160
 Alpha  occ. eigenvalues --   -0.88219  -0.86771  -0.84000  -0.83751  -0.83318
 Alpha  occ. eigenvalues --   -0.83134  -0.82959  -0.82634  -0.82184  -0.81625
 Alpha  occ. eigenvalues --   -0.81181  -0.81086  -0.80487  -0.80344  -0.79661
 Alpha  occ. eigenvalues --   -0.79023  -0.78842  -0.78412  -0.77272  -0.77227
 Alpha  occ. eigenvalues --   -0.76409  -0.76314  -0.75813  -0.75769  -0.75027
 Alpha  occ. eigenvalues --   -0.74410  -0.72668  -0.72466  -0.71874  -0.71625
 Alpha  occ. eigenvalues --   -0.71209  -0.70812  -0.70730  -0.70330  -0.69814
 Alpha  occ. eigenvalues --   -0.69474  -0.67877  -0.67300  -0.66813  -0.66335
 Alpha  occ. eigenvalues --   -0.64594  -0.64269  -0.63823  -0.63607  -0.62483
 Alpha  occ. eigenvalues --   -0.62062  -0.61704  -0.61632  -0.60499  -0.60267
 Alpha  occ. eigenvalues --   -0.60000  -0.59589  -0.59364  -0.59236  -0.58761
 Alpha  occ. eigenvalues --   -0.58382  -0.57188  -0.56584  -0.54997  -0.54674
 Alpha  occ. eigenvalues --   -0.54452  -0.53800  -0.53714  -0.53643  -0.53457
 Alpha  occ. eigenvalues --   -0.52920  -0.52766  -0.52557  -0.52289  -0.51952
 Alpha  occ. eigenvalues --   -0.50879  -0.50821  -0.50603  -0.50451  -0.50031
 Alpha  occ. eigenvalues --   -0.49992  -0.49792  -0.49353  -0.49315  -0.48951
 Alpha  occ. eigenvalues --   -0.48868  -0.48173  -0.47927  -0.47863  -0.47497
 Alpha  occ. eigenvalues --   -0.47352  -0.47108  -0.47086  -0.46844  -0.46813
 Alpha  occ. eigenvalues --   -0.46666  -0.46457  -0.46291  -0.46048  -0.45826
 Alpha  occ. eigenvalues --   -0.45784  -0.45423  -0.45174  -0.45008  -0.44950
 Alpha  occ. eigenvalues --   -0.44815  -0.44660  -0.44500  -0.44489  -0.44188
 Alpha  occ. eigenvalues --   -0.44018  -0.43948  -0.43656  -0.43611  -0.43513
 Alpha  occ. eigenvalues --   -0.43482  -0.43223  -0.42971  -0.42945  -0.42886
 Alpha  occ. eigenvalues --   -0.42758  -0.42425  -0.42164  -0.42152  -0.41741
 Alpha  occ. eigenvalues --   -0.41540  -0.41488  -0.41455  -0.41357  -0.41334
 Alpha  occ. eigenvalues --   -0.41276  -0.40907  -0.40770  -0.40711  -0.40624
 Alpha  occ. eigenvalues --   -0.40497  -0.40473  -0.40205  -0.40167  -0.40026
 Alpha  occ. eigenvalues --   -0.39735  -0.39698  -0.39429  -0.39256  -0.39242
 Alpha  occ. eigenvalues --   -0.39151  -0.39092  -0.38849  -0.38635  -0.38396
 Alpha  occ. eigenvalues --   -0.38364  -0.38208  -0.37916  -0.37912  -0.37723
 Alpha  occ. eigenvalues --   -0.37480  -0.37357  -0.37048  -0.36982  -0.36818
 Alpha  occ. eigenvalues --   -0.36743  -0.36696  -0.36609  -0.36488  -0.36322
 Alpha  occ. eigenvalues --   -0.36088  -0.35818  -0.35741  -0.35362  -0.35150
 Alpha  occ. eigenvalues --   -0.34855  -0.34584  -0.34207  -0.34007  -0.33855
 Alpha  occ. eigenvalues --   -0.33193  -0.33113  -0.32906  -0.32358  -0.32339
 Alpha  occ. eigenvalues --   -0.32183  -0.32176  -0.31819  -0.31589  -0.31190
 Alpha  occ. eigenvalues --   -0.31105  -0.30627  -0.29748  -0.29539  -0.29507
 Alpha  occ. eigenvalues --   -0.29132  -0.28979  -0.28620  -0.27379  -0.27085
 Alpha  occ. eigenvalues --   -0.26360  -0.25866  -0.25860  -0.25791  -0.25427
 Alpha  occ. eigenvalues --   -0.25389  -0.25023  -0.25019  -0.21445  -0.21167
 Alpha  occ. eigenvalues --   -0.19150  -0.19112
 Alpha virt. eigenvalues --   -0.11702  -0.11586  -0.05702  -0.05241  -0.04343
 Alpha virt. eigenvalues --   -0.03878  -0.02209  -0.02036  -0.00372  -0.00324
 Alpha virt. eigenvalues --   -0.00155   0.00087   0.00559   0.01444   0.01465

 Mulliken charges:
               1
     1  Mg  11.997784
     2  C    6.015872
     3  C    5.993735
     4  C    5.985532
     5  C    6.009668
     6  N    7.005721
     7  C    5.968887
     8  C    6.010477
     9  C    5.992360
    10  C    6.024210
    11  C    5.993318
    12  C    6.003019
    13  C    5.999629
    14  H    0.999444
    15  N    6.995501
    16  C    6.035547
    17  C    6.021902
    18  C    6.015104
    19  C    6.029354
    20  C    6.001457
    21  C    6.011941
    22  O    8.030010
    23  C    5.996839
    24  N    7.001514
    25  C    6.033013
    26  C    5.992513
    27  C    6.001640
    28  C    5.967626
    29  C    5.998387
    30  C    6.007007
    31  C    6.005005
    32  N    7.001367
    33  C    5.960697
    34  C    5.978467
    35  C    5.993864
    36  C    5.967609
    37  C    6.002694
    38  C    5.980856
    39  O    7.969364
    40  C    6.002047
    41  C    5.997434
    42  O    7.994168
    43  O    7.998270
    44  C    6.001050
    45  H    1.010792
    46  H    1.006269
    47  H    0.990689
    48  H    0.999997
    49  H    0.999962
    50  H    1.001289
    51  H    1.012735
    52  H    0.997998
    53  H    0.997574
    54  H    1.005703
    55  H    0.995380
    56  H    0.994917
    57  H    1.015311
    58  H    1.016866
    59  H    1.014875
    60  H    1.006902
    61  H    1.013812
    62  H    1.007877
    63  H    0.998496
    64  H    0.999642
    65  H    1.002417
    66  H    0.994760
    67  H    1.012477
    68  H    0.989942
    69  H    1.004380
    70  H    0.994302
    71  H    1.005480
    72  H    0.985318
    73  H    0.985680
    74  H    0.982607
    75  H    0.983283
    76  H    0.991856
    77  H    0.993557
    78  H    0.997078
    79  H    0.997872
    80  Mg  12.000023
    81  C    6.000091
    82  C    5.999070
    83  C    5.999606
    84  C    6.000796
    85  N    6.999452
    86  C    5.999020
    87  C    6.000342
    88  C    5.999572
    89  C    6.001804
    90  C    5.999863
    91  C    5.999986
    92  C    5.999956
    93  H    1.000162
    94  N    6.999844
    95  C    6.002134
    96  C    6.001497
    97  C    6.000507
    98  C    6.001784
    99  C    5.999682
   100  C    6.000526
   101  O    8.001224
   102  C    5.999834
   103  N    7.000326
   104  C    6.001313
   105  C    5.999505
   106  C    6.000494
   107  C    5.998260
   108  C    5.999850
   109  C    6.000239
   110  C    5.999885
   111  N    6.999903
   112  C    5.998511
   113  C    5.998193
   114  C    5.999774
   115  C    5.998999
   116  C    5.999925
   117  C    5.998988
   118  O    7.998043
   119  C    5.999859
   120  C    5.999951
   121  O    7.999359
   122  O    7.999918
   123  C    6.000219
   124  H    1.000748
   125  H    1.000471
   126  H    0.999418
   127  H    0.999967
   128  H    1.000494
   129  H    1.000364
   130  H    0.999674
   131  H    1.000589
   132  H    0.999835
   133  H    1.000195
   134  H    0.999972
   135  H    0.999783
   136  H    1.001029
   137  H    1.001357
   138  H    1.001672
   139  H    1.000543
   140  H    1.000609
   141  H    1.000185
   142  H    1.000025
   143  H    0.999749
   144  H    0.999931
   145  H    0.999869
   146  H    1.000352
   147  H    1.000301
   148  H    0.999472
   149  H    1.000335
   150  H    0.999744
   151  H    0.999670
   152  H    0.998874
   153  H    0.998800
   154  H    0.999209
   155  H    0.999514
   156  H    0.999607
   157  H    0.999614
   158  H    0.999743
 Sum of Mulliken charges = 624.00000

 Dipole moment (field-independent basis, Debye):
    X=              9.2356    Y=              3.1351    Z=             -4.8475  Tot=             10.8914
 Quadrupole moment (field-independent basis, Debye-Ang):
   XX=            214.6269   YY=             -0.3311   ZZ=             -4.1647
   XY=             50.0436   XZ=            -57.6309   YZ=              0.7138

 Normal termination of Gaussian 16 at Thu Oct 14 08:17:25 2021.
