 Gaussian 16, Revision A.03,
 Gaussian 16:  ES64L-G16RevA.03 25-Dec-2016

 --------------------------------------------------------
 #p PBE1PBE/Def2SVP td=(nstates=5) density=(transition=1)
 --------------------------------------------------------

 --------------------------------
 TDDFT excited states in gaussian
 --------------------------------
 Symbolic Z-matrix:
 Charge =  0 Multiplicity = 1

                         Standard orientation:
 ---------------------------------------------------------------------
 Center     Atomic      Atomic             Coordinates (Angstroms)
 Number     Number       Type             X           Y           Z
 ---------------------------------------------------------------------
      1         12           0       13.549271    0.574597   -0.153582
      2          6           0       11.679369   -1.684592    1.601829
      3          6           0       15.251168   -1.871647   -1.644132
      4          6           0       15.371541    2.883760   -1.557019
      5          6           0       12.090855    3.069387    1.932467
      6          7           0       13.596017   -1.581437    0.090150
      7          6           0       12.566665   -2.260061    0.655763
      8          6           0       12.515813   -3.690326    0.192697
      9          6           0       13.861083   -3.782660   -0.633449
     10          6           0       14.331452   -2.345002   -0.678940
     11          6           0       14.895960   -4.787481   -0.072801
     12          6           0       11.126179   -4.101633   -0.592882
     13          6           0       10.417099   -5.405571   -0.196401
     14          1           0       11.294953   -6.514498    0.464318
     15          7           0       14.919620    0.523927   -1.499209
     16          6           0       15.545086   -0.557825   -2.032412
     17          6           0       16.639659   -0.209686   -2.905301
     18          6           0       16.553524    1.142347   -3.047188
     19          6           0       15.667452    1.572943   -1.921444
     20          6           0       17.539521   -1.338739   -3.373339
     21          6           0       17.356808    2.069369   -3.980989
     22          8           0       17.252881    3.273848   -3.993260
     23          6           0       18.326206    1.345727   -4.868226
     24          7           0       13.802171    2.668913    0.299571
     25          6           0       14.550674    3.387266   -0.556744
     26          6           0       14.434067    4.885769   -0.260706
     27          6           0       13.151794    4.965795    0.635476
     28          6           0       13.001830    3.478508    1.015922
     29          6           0       15.685805    5.630632    0.371799
     30          6           0       11.834127    5.461748   -0.070861
     31          6           0       11.237695    4.766309   -1.266217
     32          7           0       12.105617    0.777756    1.397508
     33          6           0       11.666612    1.818135    2.222755
     34          6           0       10.680472    1.350063    3.205003
     35          6           0       10.645150   -0.035847    2.989962
     36          6           0       11.523597   -0.289408    1.889852
     37          6           0        9.857690    2.167695    4.167309
     38          6           0       10.096866   -1.244103    3.407976
     39          8           0        9.334446   -1.546231    4.312704
     40          6           0       10.547910   -2.325972    2.392753
     41          6           0       10.975430   -3.434639    3.276596
     42          8           0       12.057371   -3.504171    3.864639
     43          8           0        9.967414   -4.336486    3.459025
     44          6           0       10.080125   -5.338424    4.523697
     45          1           0       15.649159   -2.687347   -2.251702
     46          1           0       15.904239    3.714585   -2.022787
     47          1           0       11.698313    3.937797    2.467010
     48          1           0       12.659291   -4.371079    1.031868
     49          1           0       13.622414   -4.040164   -1.665126
     50          1           0       15.679323   -4.234125    0.444975
     51          1           0       15.349608   -5.318315   -0.909785
     52          1           0       14.354354   -5.437937    0.614086
     53          1           0       11.410704   -4.154387   -1.643839
     54          1           0       10.364308   -3.336837   -0.445426
     55          1           0       10.040928   -5.913880   -1.083819
     56          1           0        9.532717   -5.177947    0.398589
     57          1           0       18.062416   -1.873879   -2.580527
     58          1           0       18.449052   -1.124360   -3.934177
     59          1           0       16.839458   -1.923496   -3.970089
     60          1           0       17.813715    0.588780   -5.461458
     61          1           0       19.070250    1.002873   -4.149532
     62          1           0       18.833234    1.901390   -5.656253
     63          1           0       14.309064    5.296558   -1.263201
     64          1           0       13.397387    5.511002    1.547082
     65          1           0       16.502640    4.920887    0.500504
     66          1           0       15.472082    5.945609    1.392487
     67          1           0       16.042025    6.517121   -0.155145
     68          1           0       12.135764    6.480944   -0.313779
     69          1           0       10.990322    5.506101    0.616969
     70          1           0       11.933115    4.009691   -1.631907
     71          1           0       11.087805    5.471967   -2.083193
     72          1           0       10.318338    4.206897   -1.094333
     73          1           0       10.188268    2.052675    5.198631
     74          1           0        8.807347    1.888216    4.083294
     75          1           0       10.093697    3.192344    3.878994
     76          1           0        9.756046   -2.576730    1.686700
     77          1           0        9.104974   -5.683041    4.869842
     78          1           0       10.773347   -5.028313    5.304107
     79          1           0       10.599382   -6.239110    4.196737
     80         12           0      -13.550163    0.642001   -0.227155
     81          6           0      -11.147288   -1.655693   -1.139709
     82          6           0      -15.913992   -2.035559   -0.493384
     83          6           0      -15.970467    2.769003    0.293571
     84          6           0      -11.218675    3.194935   -0.336214
     85          7           0      -13.511859   -1.592738   -0.981443
     86          6           0      -12.393917   -2.294778   -1.060459
     87          6           0      -12.683044   -3.817926   -0.942059
     88          6           0      -14.207996   -3.828504   -1.309969
     89          6           0      -14.632766   -2.404771   -0.916052
     90          6           0      -14.454733   -4.126712   -2.831622
     91          6           0      -12.382083   -4.198003    0.524834
     92          6           0      -12.449148   -5.691143    0.873349
     93          1           0      -13.034429   -6.679277   -0.115510
     94          7           0      -15.609716    0.477857    0.003543
     95          6           0      -16.374574   -0.733543   -0.112405
     96          6           0      -17.722346   -0.398359    0.326474
     97          6           0      -17.715300    0.990800    0.665499
     98          6           0      -16.398302    1.505119    0.292646
     99          6           0      -18.909860   -1.425008    0.444717
    100          6           0      -18.873198    1.804707    1.332116
    101          8           0      -18.739411    2.993109    1.437100
    102          6           0      -20.121269    1.119454    1.785441
    103          7           0      -13.571858    2.706384    0.046134
    104          6           0      -14.714675    3.397522    0.257209
    105          6           0      -14.500096    4.908496    0.337243
    106          6           0      -12.958806    5.014784    0.272670
    107          6           0      -12.545641    3.517495   -0.031382
    108          6           0      -15.222768    5.758672   -0.771314
    109          6           0      -12.261782    5.695001    1.423243
    110          6           0      -12.607705    5.348617    2.891550
    111          7           0      -11.587039    0.835149   -0.652474
    112          6           0      -10.751839    1.915489   -0.652043
    113          6           0       -9.412626    1.418995   -0.888371
    114          6           0       -9.467690   -0.006463   -1.064333
    115          6           0      -10.852571   -0.293214   -0.918104
    116          6           0       -8.195182    2.288056   -0.944902
    117          6           0       -8.746381   -1.194970   -1.373959
    118          8           0       -7.543625   -1.417904   -1.632815
    119          6           0       -9.924550   -2.266740   -1.695380
    120          6           0       -9.442856   -3.614379   -1.155533
    121          8           0       -9.070578   -3.818110   -0.063669
    122          8           0       -9.482765   -4.515932   -2.180829
    123          6           0       -9.423996   -5.924926   -1.850197
    124          1           0      -16.636298   -2.840500   -0.641330
    125          1           0      -16.744635    3.529009    0.418248
    126          1           0      -10.438748    3.955239   -0.404077
    127          1           0      -12.145928   -4.399573   -1.691111
    128          1           0      -14.623681   -4.579568   -0.637815
    129          1           0      -14.807034   -5.151096   -2.946112
    130          1           0      -13.514828   -3.962954   -3.359098
    131          1           0      -15.241114   -3.514386   -3.273033
    132          1           0      -13.150651   -3.734057    1.142480
    133          1           0      -11.465947   -3.733918    0.888817
    134          1           0      -12.757218   -5.878012    1.902317
    135          1           0      -11.405807   -5.980128    1.001334
    136          1           0      -19.812727   -1.074663   -0.056353
    137          1           0      -19.045377   -1.591333    1.513274
    138          1           0      -18.592913   -2.393171    0.055149
    139          1           0      -20.444577    1.765591    2.601881
    140          1           0      -19.925727    0.154686    2.252109
    141          1           0      -20.858533    0.773193    1.061168
    142          1           0      -14.883335    5.193874    1.316676
    143          1           0      -12.603844    5.506340   -0.633104
    144          1           0      -14.546902    6.584896   -0.990290
    145          1           0      -16.118732    6.099251   -0.251902
    146          1           0      -15.524731    5.122587   -1.603311
    147          1           0      -12.702955    6.688218    1.346693
    148          1           0      -11.172901    5.747571    1.394951
    149          1           0      -13.012362    6.136319    3.525684
    150          1           0      -11.712142    5.107241    3.464045
    151          1           0      -13.339067    4.540385    2.905122
    152          1           0       -7.372094    1.620056   -1.197077
    153          1           0       -7.980671    2.694215    0.044503
    154          1           0       -8.282075    3.172443   -1.575413
    155          1           0      -10.046475   -2.227452   -2.778025
    156          1           0       -8.589625   -6.076102   -2.535234
    157          1           0      -10.365175   -6.452959   -2.004848
    158          1           0       -9.079605   -6.136559   -0.837584
 ---------------------------------------------------------------------

 SCF Done:  E(RPBE1PBE) =  -4067.36427530     A.U. after   16 cycles

 Excitation energies and oscillator strengths:

 Excited State   1:      Singlet-A      1.8382 eV  674.50 nm  f=0.0000  <S**2>=0.000
     312 -> 313        0.70709
 This state for optimization and/or second-order correction.
 Total Energy, E(TD-HF/TD-DFT) =  -4067.29672434
 Copying the excited state density for this state as the 1-particle RhoCI density.

 Excited State   2:      Singlet-A      1.8855 eV  657.57 nm  f=0.4877  <S**2>=0.000
     309 -> 315       -0.18620
     311 -> 313        0.67424
     312 -> 314       -0.13744

 Excited State   3:      Singlet-A      1.8952 eV  654.19 nm  f=0.2484  <S**2>=0.000
     310 -> 316       -0.18322
     311 -> 313        0.13713
     312 -> 314        0.67419

 Excited State   4:      Singlet-A      2.1423 eV  578.74 nm  f=0.0000  <S**2>=0.000
     311 -> 314        0.70710

 Excited State   5:      Singlet-A      2.2138 eV  560.06 nm  f=0.0882  <S**2>=0.000
     309 -> 313        0.64978
     311 -> 315        0.26393

 The electronic state is 1-A.
 Alpha  occ. eigenvalues --  -46.91639 -46.91263 -19.25000 -19.24505 -19.20371
 Alpha  occ. eigenvalues --  -19.19845 -19.19329 -19.19172 -19.18535 -19.17984
 Alpha  occ. eigenvalues --  -14.41227 -14.41150 -14.41079 -14.40470 -14.39443
 Alpha  occ. eigenvalues --  -14.38991 -14.38899 -14.38392 -10.35842 -10.35213
 Alpha  occ. eigenvalues --  -10.32816 -10.32439 -10.32131 -10.30718 -10.28643
 Alpha  occ. eigenvalues --  -10.28355 -10.28348 -10.28265 -10.28226 -10.28217
 Alpha  occ. eigenvalues --  -10.28197 -10.28133 -10.27980 -10.27814 -10.27735
 Alpha  occ. eigenvalues --  -10.27421 -10.27200 -10.26911 -10.26836 -10.26673
 Alpha  occ. eigenvalues --  -10.26632 -10.26423 -10.26252 -10.26237 -10.26200
 Alpha  occ. eigenvalues --  -10.26144 -10.25850 -10.25839 -10.25639 -10.25609
 Alpha  occ. eigenvalues --  -10.25602 -10.25593 -10.25399 -10.25381 -10.25322
 Alpha  occ. eigenvalues --  -10.25305 -10.25297 -10.25257 -10.25228 -10.25185
 Alpha  occ. eigenvalues --  -10.25139 -10.25092 -10.25030 -10.24927 -10.24926
 Alpha  occ. eigenvalues --  -10.24304 -10.24295 -10.24164 -10.24055 -10.23988
 Alpha  occ. eigenvalues --  -10.23883 -10.23796 -10.23738 -10.23577 -10.23521
 Alpha  occ. eigenvalues --  -10.23440 -10.23378 -10.23373 -10.23358 -10.23129
 Alpha  occ. eigenvalues --  -10.23040 -10.22659 -10.22634 -10.22615 -10.22549
 Alpha  occ. eigenvalues --  -10.21918  -3.13854  -3.13690  -1.86696  -1.86498
 Alpha  occ. eigenvalues --   -1.86245  -1.86081  -1.86068  -1.85947  -1.12319
 Alpha  occ. eigenvalues --   -1.09550  -1.06307  -1.05995  -1.04587  -1.03810
 Alpha  occ. eigenvalues --   -1.02649  -1.00675  -1.00046  -0.99852  -0.99180
 Alpha  occ. eigenvalues --   -0.98744  -0.98634  -0.97687  -0.97661  -0.96795
 Alpha  occ. eigenvalues --   -0.87313  -0.86717  -0.83701  -0.83636  -0.83029
 Alpha  occ. eigenvalues --   -0.82744  -0.82601  -0.82175  -0.82153  -0.81724
 Alpha  occ. eigenvalues --   -0.81628  -0.80919  -0.80681  -0.79926  -0.78536
 Alpha  occ. eigenvalues --   -0.78334  -0.77977  -0.77803  -0.76777  -0.76693
 Alpha  occ. eigenvalues --   -0.76632  -0.75939  -0.75708  -0.75302  -0.74729
 Alpha  occ. eigenvalues --   -0.74583  -0.73122  -0.72309  -0.71761  -0.71644
 Alpha  occ. eigenvalues --   -0.71218  -0.71051  -0.70157  -0.69930  -0.69874
 Alpha  occ. eigenvalues --   -0.69455  -0.67073  -0.67057  -0.66429  -0.66021
 Alpha  occ. eigenvalues --   -0.64610  -0.63905  -0.63338  -0.63271  -0.62533
 Alpha  occ. eigenvalues --   -0.62477  -0.61565  -0.60661  -0.59735  -0.59636
 Alpha  occ. eigenvalues --   -0.59396  -0.59386  -0.59160  -0.58797  -0.58607
 Alpha  occ. eigenvalues --   -0.58243  -0.56864  -0.56251  -0.55456  -0.55057
 Alpha  occ. eigenvalues --   -0.54173  -0.53823  -0.53714  -0.53695  -0.53352
 Alpha  occ. eigenvalues --   -0.52704  -0.52480  -0.52352  -0.52274  -0.52035
 Alpha  occ. eigenvalues --   -0.50750  -0.50736  -0.50562  -0.50220  -0.49829
 Alpha  occ. eigenvalues --   -0.49772  -0.49536  -0.49086  -0.48764  -0.48644
 Alpha  occ. eigenvalues --   -0.48253  -0.48118  -0.48047  -0.47716  -0.47643
 Alpha  occ. eigenvalues --   -0.47205  -0.46973  -0.46940  -0.46792  -0.46745
 Alpha  occ. eigenvalues --   -0.46716  -0.46575  -0.46235  -0.46056  -0.45735
 Alpha  occ. eigenvalues --   -0.45339  -0.45236  -0.45141  -0.44888  -0.44748
 Alpha  occ. eigenvalues --   -0.44747  -0.44606  -0.44245  -0.44092  -0.43913
 Alpha  occ. eigenvalues --   -0.43913  -0.43881  -0.43835  -0.43633  -0.43327
 Alpha  occ. eigenvalues --   -0.43317  -0.43066  -0.42892  -0.42769  -0.42629
 Alpha  occ. eigenvalues --   -0.42609  -0.42569  -0.42299  -0.42283  -0.41760
 Alpha  occ. eigenvalues --   -0.41515  -0.41401  -0.41397  -0.41244  -0.41229
 Alpha  occ. eigenvalues --   -0.41149  -0.40658  -0.40622  -0.40432  -0.40212
 Alpha  occ. eigenvalues --   -0.40161  -0.39956  -0.39911  -0.39670  -0.39572
 Alpha  occ. eigenvalues --   -0.39498  -0.39180  -0.38777  -0.38675  -0.38614
 Alpha  occ. eigenvalues --   -0.38526  -0.38168  -0.38140  -0.38029  -0.37846
 Alpha  occ. eigenvalues --   -0.37762  -0.37692  -0.37654  -0.37591  -0.37568
 Alpha  occ. eigenvalues --   -0.37198  -0.37123  -0.36969  -0.36923  -0.36797
 Alpha  occ. eigenvalues --   -0.36663  -0.36649  -0.36376  -0.36324  -0.36283
 Alpha  occ. eigenvalues --   -0.35997  -0.35825  -0.35809  -0.35538  -0.35312
 Alpha  occ. eigenvalues --   -0.35076  -0.34423  -0.34392  -0.34389  -0.34062
 Alpha  occ. eigenvalues --   -0.33375  -0.33304  -0.33092  -0.32779  -0.32512
 Alpha  occ. eigenvalues --   -0.32145  -0.31964  -0.31408  -0.31283  -0.31267
 Alpha  occ. eigenvalues --   -0.30857  -0.30108  -0.30009  -0.29486  -0.29105
 Alpha  occ. eigenvalues --   -0.28806  -0.28635  -0.27766  -0.27592  -0.26936
 Alpha  occ. eigenvalues --   -0.26259  -0.26053  -0.26013  -0.25600  -0.25428
 Alpha  occ. eigenvalues --   -0.25217  -0.25016  -0.24966  -0.20730  -0.20578
 Alpha  occ. eigenvalues --   -0.18709  -0.18180
 Alpha virt. eigenvalues --   -0.10920  -0.10350  -0.05325  -0.05133  -0.03987
 Alpha virt. eigenvalues --   -0.03836  -0.01785  -0.01771   0.00043   0.00306
 Alpha virt. eigenvalues --    0.01051   0.01314   0.01502   0.01766   0.01850

 Mulliken charges:
               1
     1  Mg  12.000000
     2  C    6.000000
     3  C    6.000000
     4  C    6.000000
     5  C    6.000000
     6  N    7.000000
     7  C    6.000000
     8  C    6.000000
     9  C    6.000000
    10  C    6.000000
    11  C    6.000000
    12  C    6.000000
    13  C    6.000000
    14  H    1.000000
    15  N    7.000000
    16  C    6.000000
    17  C    6.000000
    18  C    6.000000
    19  C    6.000000
    20  C    6.000000
    21  C    6.000000
    22  O    8.000000
    23  C    6.000000
    24  N    7.000000
    25  C    6.000000
    26  C    6.000000
    27  C    6.000000
    28  C    6.000000
    29  C    6.000000
    30  C    6.000000
    31  C    6.000000
    32  N    7.000000
    33  C    6.000000
    34  C    6.000000
    35  C    6.000000
    36  C    6.000000
    37  C    6.000000
    38  C    6.000000
    39  O    8.000000
    40  C    6.000000
    41  C    6.000000
    42  O    8.000000
    43  O    8.000000
    44  C    6.000000
    45  H    1.000000
    46  H    1.000000
    47  H    1.000000
    48  H    1.000000
    49  H    1.000000
    50  H    1.000000
    51  H    1.000000
    52  H    1.000000
    53  H    1.000000
    54  H    1.000000
    55  H    1.000000
    56  H    1.000000
    57  H    1.000000
    58  H    1.000000
    59  H    1.000000
    60  H    1.000000
    61  H    1.000000
    62  H    1.000000
    63  H    1.000000
    64  H    1.000000
    65  H    1.000000
    66  H    1.000000
    67  H    1.000000
    68  H    1.000000
    69  H    1.000000
    70  H    1.000000
    71  H    1.000000
    72  H    1.000000
    73  H    1.000000
    74  H    1.000000
    75  H    1.000000
    76  H    1.000000
    77  H    1.000000
    78  H    1.000000
    79  H    1.000000
    80  Mg  12.000000
    81  C    6.000000
    82  C    6.000000
    83  C    6.000000
    84  C    6.000000
    85  N    7.000000
    86  C    6.000000
    87  C    6.000000
    88  C    6.000000
    89  C    6.000000
    90  C    6.000000
    91  C    6.000000
    92  C    6.000000
    93  H    1.000000
    94  N    7.000000
    95  C    6.000000
    96  C    6.000000
    97  C    6.000000
    98  C    6.000000
    99  C    6.000000
   100  C    6.000000
   101  O    8.000000
   102  C    6.000000
   103  N    7.000000
   104  C    6.000000
   105  C    6.000000
   106  C    6.000000
   107  C    6.000000
   108  C    6.000000
   109  C    6.000000
   110  C    6.000000
   111  N    7.000000
   112  C    6.000000
   113  C    6.000000
   114  C    6.000000
   115  C    6.000000
   116  C    6.000000
   117  C    6.000000
   118  O    8.000000
   119  C    6.000000
   120  C    6.000000
   121  O    8.000000
   122  O    8.000000
   123  C    6.000000
   124  H    1.000000
   125  H    1.000000
   126  H    1.000000
   127  H    1.000000
   128  H    1.000000
   129  H    1.000000
   130  H    1.000000
   131  H    1.000000
   132  H    1.000000
   133  H    1.000000
   134  H    1.000000
   135  H    1.000000
   136  H    1.000000
   137  H    1.000000
   138  H    1.000000
   139  H    1.000000
   140  H    1.000000
   141  H    1.000000
   142  H    1.000000
   143  H    1.000000
   144  H    1.000000
   145  H    1.000000
   146  H    1.000000
   147  H    1.000000
   148  H    1.000000
   149  H    1.000000
   150  H    1.000000
   151  H    1.000000
   152  H    1.000000
   153  H    1.000000
   154  H    1.000000
   155  H    1.000000
   156  H    1.000000
   157  H    1.000000
   158  H    1.000000
 Sum of Mulliken charges = 624.00000

 Dipole moment (field-independent basis, Debye):
    X=             -0.0000    Y=             -0.0000    Z=             -0.0000  Tot=              0.0000
 Quadrupole moment (field-independent basis, Debye-Ang):
   XX=              0.0000   YY=             -0.0000   ZZ=             -0.0000
   XY=             -0.0000   XZ=             -0.0000   YZ=              0.0000

 Normal termination of Gaussian 16 at Wed Oct 13 20:50:02 2021.
