 Gaussian 16, Revision A.03,
 Gaussian 16:  ES64L-G16RevA.03 25-Dec-2016

 --------------------------------------------------------
 #p PBE1PBE/Def2SVP td=(nstates=5) density=(transition=1)
 --------------------------------------------------------

 --------------------------------
 TDDFT excited states in gaussian
 --------------------------------
 Symbolic Z-matrix:
 Charge =  0 Multiplicity = 1

                         Standard orientation:
 ---------------------------------------------------------------------
 Center     Atomic      Atomic             Coordinates (Angstroms)
 Number     Number       Type             X           Y           Z
 ---------------------------------------------------------------------
      1         12           0       -5.022473   -0.365424    0.905983
      2          6           0       -4.740503    3.107548    0.177265
      3          6           0       -2.426353   -0.021562    3.134101
      4          6           0       -5.389113   -3.611107    1.405982
      5          6           0       -7.365977   -0.680292   -1.801077
      6          7           0       -3.634354    1.383762    1.560451
      7          6           0       -3.833315    2.694586    1.167427
      8          6           0       -2.798694    3.551846    1.974106
      9          6           0       -1.996002    2.515054    2.926858
     10          6           0       -2.710931    1.226369    2.507984
     11          6           0       -0.458549    2.524554    2.797897
     12          6           0       -3.348161    4.847161    2.702829
     13          6           0       -2.706478    6.142538    2.298490
     14          1           0       -1.293918    6.251211    1.787937
     15          7           0       -4.082901   -1.672515    2.255503
     16          6           0       -3.044456   -1.327888    3.062138
     17          6           0       -2.815744   -2.464663    3.916529
     18          6           0       -3.571163   -3.529586    3.379961
     19          6           0       -4.411342   -3.001402    2.256369
     20          6           0       -1.760271   -2.388545    5.032614
     21          6           0       -3.476382   -4.979892    3.745756
     22          8           0       -4.114222   -5.858038    3.117848
     23          6           0       -2.563433   -5.396332    4.838708
     24          7           0       -6.204218   -1.917971   -0.157612
     25          6           0       -6.222532   -3.119704    0.304057
     26          6           0       -7.241591   -4.163177   -0.402945
     27          6           0       -7.848196   -3.205405   -1.439697
     28          6           0       -7.146403   -1.901400   -1.149114
     29          6           0       -6.429880   -5.372378   -0.996324
     30          6           0       -9.408911   -3.043269   -1.427032
     31          6           0      -10.012194   -2.245366   -0.246725
     32          7           0       -5.756310    0.869751   -0.548948
     33          6           0       -6.676726    0.570110   -1.580775
     34          6           0       -6.999816    1.825465   -2.272456
     35          6           0       -6.270637    2.842220   -1.610363
     36          6           0       -5.556145    2.215833   -0.533862
     37          6           0       -7.991162    1.971019   -3.465625
     38          6           0       -6.056120    4.191377   -1.627488
     39          8           0       -6.440781    5.070387   -2.371509
     40          6           0       -5.098481    4.491739   -0.440732
     41          6           0       -3.960153    5.224024   -0.945798
     42          8           0       -2.932105    4.706883   -1.397302
     43          8           0       -4.287614    6.579734   -1.066906
     44          6           0       -3.257795    7.397775   -1.754196
     45          1           0       -1.475394   -0.103193    3.665355
     46          1           0       -5.377675   -4.701100    1.472340
     47          1           0       -8.075352   -0.719403   -2.630302
     48          1           0       -2.243404    3.953840    1.127653
     49          1           0       -2.158269    2.797542    3.966087
     50          1           0        0.008280    2.702736    3.767464
     51          1           0       -0.030456    3.219053    2.075248
     52          1           0       -0.221381    1.518281    2.452539
     53          1           0       -3.261676    4.732070    3.783458
     54          1           0       -4.393791    4.920875    2.403852
     55          1           0       -2.522481    6.692979    3.221814
     56          1           0       -3.382530    6.647240    1.609230
     57          1           0       -1.488233   -1.360104    5.271219
     58          1           0       -0.868879   -2.937786    4.732268
     59          1           0       -2.238821   -2.862050    5.889266
     60          1           0       -2.873570   -4.854534    5.732244
     61          1           0       -1.533603   -5.103800    4.630265
     62          1           0       -2.561876   -6.480281    4.946100
     63          1           0       -8.002016   -4.511172    0.296601
     64          1           0       -7.460497   -3.448278   -2.429307
     65          1           0       -5.438277   -5.006830   -1.263011
     66          1           0       -6.920250   -5.689486   -1.917370
     67          1           0       -6.299575   -6.257024   -0.372475
     68          1           0       -9.881573   -4.010670   -1.593852
     69          1           0       -9.689329   -2.535330   -2.349250
     70          1           0       -9.491653   -2.311803    0.708056
     71          1           0      -11.066790   -2.510622   -0.163970
     72          1           0      -10.013852   -1.208632   -0.582939
     73          1           0       -8.718711    2.770184   -3.323454
     74          1           0       -8.512707    1.045825   -3.708188
     75          1           0       -7.467702    2.428897   -4.305311
     76          1           0       -5.723527    5.126631    0.186364
     77          1           0       -3.206033    7.139285   -2.811529
     78          1           0       -2.244529    7.255054   -1.380422
     79          1           0       -3.462559    8.434439   -1.486249
     80         12           0        4.274216   -0.794015   -1.246136
     81          6           0        7.361281    0.660770   -0.155971
     82          6           0        2.854822    2.395866   -0.742603
     83          6           0        1.279795   -2.084360   -1.515614
     84          6           0        5.785257   -3.839484   -1.312045
     85          7           0        5.065179    1.275816   -0.580103
     86          6           0        6.361747    1.565779   -0.315283
     87          6           0        6.498306    3.070332   -0.149428
     88          6           0        5.093635    3.705279   -0.351676
     89          6           0        4.285653    2.417636   -0.603320
     90          6           0        4.593544    4.606087    0.913430
     91          6           0        7.528709    3.710998   -1.174925
     92          6           0        8.561731    4.676800   -0.593515
     93          1           0        8.208214    5.604006    0.637809
     94          7           0        2.313282    0.042589   -1.089424
     95          6           0        1.985281    1.305857   -0.919328
     96          6           0        0.551394    1.378840   -0.909734
     97          6           0        0.001220    0.125462   -1.279832
     98          6           0        1.184070   -0.694848   -1.270238
     99          6           0       -0.207367    2.703132   -0.841240
    100          6           0       -1.383257   -0.347098   -1.694916
    101          8           0       -1.647509   -1.515696   -1.910710
    102          6           0       -2.417569    0.727211   -1.889853
    103          7           0        3.619219   -2.723846   -1.037289
    104          6           0        2.306141   -3.022951   -1.405337
    105          6           0        2.096790   -4.522621   -1.749815
    106          6           0        3.603812   -4.975399   -1.822158
    107          6           0        4.413386   -3.763318   -1.361534
    108          6           0        1.237432   -5.214660   -0.681852
    109          6           0        4.092683   -5.339803   -3.303202
    110          6           0        4.284779   -6.776797   -3.655555
    111          7           0        6.157051   -1.456575   -0.947345
    112          6           0        6.617736   -2.755023   -0.981148
    113          6           0        8.011940   -2.872535   -0.562054
    114          6           0        8.368929   -1.519191   -0.221178
    115          6           0        7.193230   -0.742872   -0.351340
    116          6           0        8.829924   -4.103521   -0.715398
    117          6           0        9.461401   -0.634939    0.154511
    118          8           0       10.651782   -0.948249    0.337961
    119          6           0        8.834361    0.870166    0.248757
    120          6           0        9.021021    1.264369    1.636168
    121          8           0        8.599180    0.630620    2.578695
    122          8           0        9.701777    2.412501    1.732774
    123          6           0       10.079328    3.008980    3.052403
    124          1           0        2.377686    3.375673   -0.674771
    125          1           0        0.417750   -2.529329   -2.018249
    126          1           0        6.245363   -4.822562   -1.429408
    127          1           0        6.812716    3.249931    0.878685
    128          1           0        5.088418    4.434747   -1.161761
    129          1           0        5.442262    4.948525    1.505552
    130          1           0        3.929292    3.949295    1.475718
    131          1           0        4.017594    5.457910    0.552165
    132          1           0        7.078921    4.194076   -2.041270
    133          1           0        8.133122    2.918274   -1.615640
    134          1           0        8.961960    5.344151   -1.357062
    135          1           0        9.392171    4.015413   -0.346431
    136          1           0       -0.517887    3.090598   -1.811716
    137          1           0        0.325073    3.441089   -0.240459
    138          1           0       -1.102534    2.505050   -0.252149
    139          1           0       -2.062390    1.629478   -2.388624
    140          1           0       -2.894210    1.074566   -0.974262
    141          1           0       -3.132812    0.394213   -2.641991
    142          1           0        1.586124   -4.564678   -2.711484
    143          1           0        3.720899   -5.847029   -1.178089
    144          1           0        0.765054   -4.535653    0.027879
    145          1           0        1.828542   -5.893372   -0.068006
    146          1           0        0.463269   -5.805266   -1.172800
    147          1           0        5.044759   -4.895322   -3.593129
    148          1           0        3.447280   -4.918016   -4.072809
    149          1           0        3.584722   -7.069572   -4.437011
    150          1           0        4.069503   -7.288252   -2.717198
    151          1           0        5.297976   -6.948754   -4.018696
    152          1           0        9.866444   -3.864639   -0.951004
    153          1           0        8.305039   -4.729299   -1.436964
    154          1           0        8.808040   -4.612553    0.249163
    155          1           0        9.365123    1.570047   -0.395253
    156          1           0       10.557137    2.247668    3.669288
    157          1           0        9.218502    3.390490    3.602070
    158          1           0       10.674665    3.917739    2.968326
 ---------------------------------------------------------------------

 SCF Done:  E(RPBE1PBE) =  -4067.37574754     A.U. after   16 cycles

 Excitation energies and oscillator strengths:

 Excited State   1:      Singlet-A      1.5651 eV  792.18 nm  f=0.0001  <S**2>=0.000
     312 -> 313        0.70663
 This state for optimization and/or second-order correction.
 Total Energy, E(TD-HF/TD-DFT) =  -4067.31823129
 Copying the excited state density for this state as the 1-particle RhoCI density.

 Excited State   2:      Singlet-A      1.8394 eV  674.06 nm  f=0.3095  <S**2>=0.000
     310 -> 316       -0.15516
     311 -> 313       -0.17282
     311 -> 314       -0.10768
     312 -> 314        0.66477
     312 <- 314       -0.10865

 Excited State   3:      Singlet-A      1.8485 eV  670.74 nm  f=0.0455  <S**2>=0.000
     311 -> 313        0.14119
     311 -> 314        0.67621
     312 -> 314        0.14238

 Excited State   4:      Singlet-A      1.8702 eV  662.94 nm  f=0.4141  <S**2>=0.000
     309 -> 315        0.17646
     311 -> 313        0.65080
     311 -> 314       -0.17353
     312 -> 314        0.14242

 Excited State   5:      Singlet-A      2.1609 eV  573.76 nm  f=0.0015  <S**2>=0.000
     310 -> 313        0.70589

 The electronic state is 1-A.
 Alpha  occ. eigenvalues --  -46.93284 -46.91738 -19.25725 -19.25626 -19.20408
 Alpha  occ. eigenvalues --  -19.19113 -19.19026 -19.18701 -19.18551 -19.18400
 Alpha  occ. eigenvalues --  -14.42090 -14.41696 -14.41107 -14.40987 -14.39699
 Alpha  occ. eigenvalues --  -14.39320 -14.38813 -14.38358 -10.36381 -10.35289
 Alpha  occ. eigenvalues --  -10.32416 -10.32115 -10.31884 -10.30980 -10.29647
 Alpha  occ. eigenvalues --  -10.29483 -10.29364 -10.29298 -10.28860 -10.28822
 Alpha  occ. eigenvalues --  -10.28645 -10.28266 -10.28266 -10.28264 -10.28185
 Alpha  occ. eigenvalues --  -10.27949 -10.27679 -10.27000 -10.26969 -10.26969
 Alpha  occ. eigenvalues --  -10.26661 -10.26618 -10.26549 -10.26321 -10.26315
 Alpha  occ. eigenvalues --  -10.26310 -10.26262 -10.26096 -10.25975 -10.25968
 Alpha  occ. eigenvalues --  -10.25904 -10.25869 -10.25841 -10.25659 -10.25588
 Alpha  occ. eigenvalues --  -10.25577 -10.25410 -10.25349 -10.25245 -10.25229
 Alpha  occ. eigenvalues --  -10.25156 -10.25067 -10.25050 -10.24962 -10.24945
 Alpha  occ. eigenvalues --  -10.24645 -10.24533 -10.24433 -10.24393 -10.23828
 Alpha  occ. eigenvalues --  -10.23826 -10.23756 -10.23639 -10.23614 -10.23423
 Alpha  occ. eigenvalues --  -10.23365 -10.23338 -10.23295 -10.23268 -10.23040
 Alpha  occ. eigenvalues --  -10.22974 -10.22776 -10.22760 -10.22274 -10.22214
 Alpha  occ. eigenvalues --  -10.21690  -3.15205  -3.13944  -1.88055  -1.87616
 Alpha  occ. eigenvalues --   -1.87384  -1.86750  -1.86325  -1.86176  -1.11156
 Alpha  occ. eigenvalues --   -1.09829  -1.04920  -1.04608  -1.02953  -1.02867
 Alpha  occ. eigenvalues --   -1.02000  -1.01917  -1.00756  -0.98989  -0.98382
 Alpha  occ. eigenvalues --   -0.97866  -0.97719  -0.97479  -0.96794  -0.96288
 Alpha  occ. eigenvalues --   -0.87166  -0.86245  -0.84063  -0.82681  -0.82456
 Alpha  occ. eigenvalues --   -0.82335  -0.82315  -0.82139  -0.81506  -0.81169
 Alpha  occ. eigenvalues --   -0.81158  -0.80602  -0.80434  -0.80070  -0.78725
 Alpha  occ. eigenvalues --   -0.78277  -0.78198  -0.77836  -0.77071  -0.76719
 Alpha  occ. eigenvalues --   -0.76247  -0.75455  -0.75207  -0.75149  -0.74557
 Alpha  occ. eigenvalues --   -0.74289  -0.72486  -0.72003  -0.71925  -0.71729
 Alpha  occ. eigenvalues --   -0.71006  -0.70780  -0.70466  -0.70383  -0.69406
 Alpha  occ. eigenvalues --   -0.68868  -0.67214  -0.66630  -0.66110  -0.65612
 Alpha  occ. eigenvalues --   -0.64804  -0.63702  -0.62810  -0.62481  -0.61974
 Alpha  occ. eigenvalues --   -0.61692  -0.61343  -0.60964  -0.59812  -0.59704
 Alpha  occ. eigenvalues --   -0.59587  -0.59413  -0.59329  -0.58991  -0.58973
 Alpha  occ. eigenvalues --   -0.58756  -0.56814  -0.56513  -0.54663  -0.54419
 Alpha  occ. eigenvalues --   -0.54272  -0.53482  -0.53469  -0.53123  -0.52926
 Alpha  occ. eigenvalues --   -0.52832  -0.52803  -0.52320  -0.52267  -0.51711
 Alpha  occ. eigenvalues --   -0.50914  -0.50731  -0.50196  -0.50069  -0.50003
 Alpha  occ. eigenvalues --   -0.49606  -0.49300  -0.48660  -0.48572  -0.48029
 Alpha  occ. eigenvalues --   -0.47926  -0.47911  -0.47707  -0.47582  -0.47227
 Alpha  occ. eigenvalues --   -0.47216  -0.46946  -0.46778  -0.46651  -0.46491
 Alpha  occ. eigenvalues --   -0.46355  -0.46152  -0.45870  -0.45708  -0.45640
 Alpha  occ. eigenvalues --   -0.45515  -0.44869  -0.44838  -0.44727  -0.44591
 Alpha  occ. eigenvalues --   -0.44206  -0.44119  -0.44005  -0.43823  -0.43734
 Alpha  occ. eigenvalues --   -0.43632  -0.43605  -0.43450  -0.43421  -0.43210
 Alpha  occ. eigenvalues --   -0.42985  -0.42968  -0.42839  -0.42714  -0.42607
 Alpha  occ. eigenvalues --   -0.42531  -0.42408  -0.42256  -0.41854  -0.41595
 Alpha  occ. eigenvalues --   -0.41524  -0.41471  -0.41270  -0.41202  -0.40891
 Alpha  occ. eigenvalues --   -0.40860  -0.40692  -0.40681  -0.40520  -0.40363
 Alpha  occ. eigenvalues --   -0.40075  -0.40022  -0.39791  -0.39762  -0.39555
 Alpha  occ. eigenvalues --   -0.39343  -0.39046  -0.38834  -0.38792  -0.38674
 Alpha  occ. eigenvalues --   -0.38386  -0.38201  -0.38122  -0.38089  -0.37901
 Alpha  occ. eigenvalues --   -0.37833  -0.37558  -0.37278  -0.37228  -0.37164
 Alpha  occ. eigenvalues --   -0.37086  -0.37000  -0.36768  -0.36513  -0.36437
 Alpha  occ. eigenvalues --   -0.36383  -0.36228  -0.36122  -0.36111  -0.36005
 Alpha  occ. eigenvalues --   -0.35942  -0.35909  -0.35660  -0.35637  -0.35221
 Alpha  occ. eigenvalues --   -0.35050  -0.34972  -0.34896  -0.34397  -0.34163
 Alpha  occ. eigenvalues --   -0.34032  -0.33118  -0.32536  -0.32037  -0.31813
 Alpha  occ. eigenvalues --   -0.31761  -0.31693  -0.31555  -0.31320  -0.31056
 Alpha  occ. eigenvalues --   -0.31012  -0.30962  -0.29420  -0.29333  -0.29191
 Alpha  occ. eigenvalues --   -0.28745  -0.28470  -0.28140  -0.26987  -0.26562
 Alpha  occ. eigenvalues --   -0.25896  -0.25762  -0.25645  -0.25626  -0.25503
 Alpha  occ. eigenvalues --   -0.25455  -0.25189  -0.24780  -0.20832  -0.20486
 Alpha  occ. eigenvalues --   -0.18990  -0.18290
 Alpha virt. eigenvalues --   -0.11168  -0.10806  -0.05412  -0.04390  -0.04187
 Alpha virt. eigenvalues --   -0.03640  -0.02226  -0.01964  -0.00714  -0.00301
 Alpha virt. eigenvalues --   -0.00209   0.00819   0.01309   0.01376   0.01574

 Mulliken charges:
               1
     1  Mg  11.999928
     2  C    5.999882
     3  C    5.999749
     4  C    6.000548
     5  C    6.000386
     6  N    6.999604
     7  C    6.000171
     8  C    5.999836
     9  C    5.999888
    10  C    6.000247
    11  C    6.000158
    12  C    5.999993
    13  C    5.999985
    14  H    0.999988
    15  N    7.000062
    16  C    6.000245
    17  C    6.000067
    18  C    6.000086
    19  C    5.999924
    20  C    5.999988
    21  C    6.000085
    22  O    8.000106
    23  C    5.999971
    24  N    7.000357
    25  C    5.999867
    26  C    5.999991
    27  C    6.000006
    28  C    5.999765
    29  C    5.999929
    30  C    5.999980
    31  C    5.999959
    32  N    6.999883
    33  C    5.999802
    34  C    5.999937
    35  C    5.999986
    36  C    5.999996
    37  C    5.999970
    38  C    5.999976
    39  O    7.999995
    40  C    6.000027
    41  C    5.999941
    42  O    7.999873
    43  O    8.000028
    44  C    5.999997
    45  H    0.999961
    46  H    1.000189
    47  H    1.000138
    48  H    0.999974
    49  H    1.000096
    50  H    0.999981
    51  H    0.999950
    52  H    0.999231
    53  H    1.000033
    54  H    1.000082
    55  H    1.000030
    56  H    1.000023
    57  H    1.000172
    58  H    1.000174
    59  H    1.000088
    60  H    1.000060
    61  H    1.000106
    62  H    1.000127
    63  H    1.000081
    64  H    1.000051
    65  H    1.000013
    66  H    1.000136
    67  H    1.000068
    68  H    1.000060
    69  H    1.000060
    70  H    0.999969
    71  H    1.000082
    72  H    1.000049
    73  H    0.999983
    74  H    0.999923
    75  H    0.999960
    76  H    1.000007
    77  H    0.999999
    78  H    0.999981
    79  H    1.000032
    80  Mg  11.999917
    81  C    6.000092
    82  C    6.000023
    83  C    5.999869
    84  C    6.000225
    85  N    7.000087
    86  C    5.999739
    87  C    6.000112
    88  C    5.999911
    89  C    6.000113
    90  C    5.999884
    91  C    6.000033
    92  C    6.000026
    93  H    0.999886
    94  N    7.000099
    95  C    6.000351
    96  C    6.000671
    97  C    6.000596
    98  C    5.999513
    99  C    5.999940
   100  C    6.000161
   101  O    8.000709
   102  C    5.999846
   103  N    7.000070
   104  C    6.000060
   105  C    5.999918
   106  C    6.000171
   107  C    5.999494
   108  C    6.000102
   109  C    6.000102
   110  C    6.000019
   111  N    6.999962
   112  C    5.999530
   113  C    5.999640
   114  C    5.999936
   115  C    5.999648
   116  C    6.000058
   117  C    5.999791
   118  O    7.999636
   119  C    5.999997
   120  C    5.999932
   121  O    7.999939
   122  O    7.999981
   123  C    6.000039
   124  H    1.000030
   125  H    0.999901
   126  H    0.999811
   127  H    0.999977
   128  H    1.000001
   129  H    1.000131
   130  H    1.000106
   131  H    0.999971
   132  H    0.999884
   133  H    1.000083
   134  H    0.999945
   135  H    1.000064
   136  H    1.000221
   137  H    1.000320
   138  H    1.000321
   139  H    1.000090
   140  H    1.000109
   141  H    1.000186
   142  H    0.999868
   143  H    0.999867
   144  H    0.999746
   145  H    1.000038
   146  H    0.999889
   147  H    1.000021
   148  H    0.999823
   149  H    0.999877
   150  H    0.999944
   151  H    0.999991
   152  H    0.999773
   153  H    0.999787
   154  H    0.999705
   155  H    0.999856
   156  H    0.999973
   157  H    0.999907
   158  H    0.999922
 Sum of Mulliken charges = 624.00000

 Dipole moment (field-independent basis, Debye):
    X=             -0.1948    Y=              0.0150    Z=              0.0170  Tot=              0.1961
 Quadrupole moment (field-independent basis, Debye-Ang):
   XX=             -0.9291   YY=             -0.0366   ZZ=              0.0738
   XY=              0.5529   XZ=             -0.0102   YZ=             -0.1677

 Normal termination of Gaussian 16 at Thu Oct 14 11:35:45 2021.
