 Gaussian 16, Revision A.03,
 Gaussian 16:  ES64L-G16RevA.03 25-Dec-2016

 --------------------------------------------------------
 #p PBE1PBE/Def2SVP td=(nstates=5) density=(transition=1)
 --------------------------------------------------------

 --------------------------------
 TDDFT excited states in gaussian
 --------------------------------
 Symbolic Z-matrix:
 Charge =  0 Multiplicity = 1

                         Standard orientation:
 ---------------------------------------------------------------------
 Center     Atomic      Atomic             Coordinates (Angstroms)
 Number     Number       Type             X           Y           Z
 ---------------------------------------------------------------------
      1         12           0      -24.752514    0.453839   -0.045737
      2          6           0      -21.702758   -1.096000    0.538528
      3          6           0      -26.308266   -2.536979    0.047881
      4          6           0      -27.603550    2.042494   -0.789140
      5          6           0      -23.025266    3.490501   -0.285059
      6          7           0      -24.005135   -1.572948    0.299285
      7          6           0      -22.792377   -1.971045    0.600927
      8          6           0      -22.851294   -3.548707    0.847871
      9          6           0      -24.026953   -3.861565   -0.053464
     10          6           0      -24.895993   -2.576129    0.124719
     11          6           0      -23.537879   -4.161299   -1.486878
     12          6           0      -22.885737   -3.871881    2.403387
     13          6           0      -22.468436   -5.300068    2.767408
     14          1           0      -22.300719   -6.319900    1.654305
     15          7           0      -26.687742   -0.126690   -0.152631
     16          6           0      -27.140022   -1.435484   -0.002176
     17          6           0      -28.631314   -1.390131    0.069573
     18          6           0      -29.044028   -0.026265   -0.246743
     19          6           0      -27.734017    0.637720   -0.480033
     20          6           0      -29.474352   -2.610742    0.353520
     21          6           0      -30.488522    0.655965   -0.294375
     22          8           0      -30.672013    1.859000   -0.508673
     23          6           0      -31.672519   -0.253165   -0.038948
     24          7           0      -25.220104    2.399346   -0.573197
     25          6           0      -26.452219    2.818498   -0.848781
     26          6           0      -26.495892    4.309624   -1.304792
     27          6           0      -25.087199    4.757915   -0.889875
     28          6           0      -24.386383    3.495599   -0.496554
     29          6           0      -26.821408    4.519066   -2.810070
     30          6           0      -24.947438    5.984806    0.117119
     31          6           0      -24.608732    5.674024    1.538010
     32          7           0      -22.763395    1.092211   -0.116404
     33          6           0      -22.217021    2.330864   -0.149955
     34          6           0      -20.798886    2.318300   -0.089361
     35          6           0      -20.524458    0.943805    0.196217
     36          6           0      -21.746983    0.312662    0.164361
     37          6           0      -19.732871    3.371243   -0.247916
     38          6           0      -19.529712   -0.045712    0.485599
     39          8           0      -18.324076    0.022700    0.590699
     40          6           0      -20.233468   -1.384046    0.877335
     41          6           0      -19.648799   -2.488802    0.111307
     42          8           0      -19.695203   -2.536730   -1.108499
     43          8           0      -18.877770   -3.385292    0.894631
     44          6           0      -18.172203   -4.444702    0.156634
     45          1           0      -26.763521   -3.528018    0.019382
     46          1           0      -28.542365    2.522204   -1.070971
     47          1           0      -22.516489    4.447529   -0.415475
     48          1           0      -21.922964   -4.008631    0.511776
     49          1           0      -24.660020   -4.675315    0.299398
     50          1           0      -23.776415   -5.220201   -1.592058
     51          1           0      -22.467354   -3.995922   -1.615181
     52          1           0      -24.200823   -3.605685   -2.149760
     53          1           0      -23.892853   -3.724101    2.794254
     54          1           0      -22.135769   -3.212890    2.841480
     55          1           0      -23.208118   -5.666981    3.478324
     56          1           0      -21.530048   -5.221988    3.315890
     57          1           0      -28.966835   -3.296277    1.033133
     58          1           0      -29.813257   -3.191123   -0.504005
     59          1           0      -30.363819   -2.293257    0.897515
     60          1           0      -31.514721   -1.075001   -0.736965
     61          1           0      -32.640619    0.181146   -0.286775
     62          1           0      -31.698545   -0.538933    1.012732
     63          1           0      -27.255186    4.869750   -0.759268
     64          1           0      -24.570746    4.980683   -1.822836
     65          1           0      -26.130576    5.294344   -3.142317
     66          1           0      -27.845738    4.790010   -3.061147
     67          1           0      -26.672418    3.565663   -3.317020
     68          1           0      -25.840477    6.603695    0.029422
     69          1           0      -24.094934    6.592496   -0.185422
     70          1           0      -23.601865    6.049928    1.721251
     71          1           0      -24.451546    4.621374    1.776424
     72          1           0      -25.255200    6.153403    2.273194
     73          1           0      -20.143440    4.337746   -0.542277
     74          1           0      -18.955356    2.989928   -0.910497
     75          1           0      -19.218106    3.683015    0.661138
     76          1           0      -20.122043   -1.604446    1.938659
     77          1           0      -17.730018   -5.223228    0.777813
     78          1           0      -17.397268   -3.895444   -0.378746
     79          1           0      -18.892077   -4.814975   -0.572337
     80         12           0       24.820258   -0.087929    0.174587
     81          6           0       21.458678   -0.840993   -0.300900
     82          6           0       25.248625   -0.339427   -3.257166
     83          6           0       27.878150    1.144292    0.411518
     84          6           0       24.164151    0.621250    3.498007
     85          7           0       23.491733   -0.374167   -1.584216
     86          6           0       22.181352   -0.802517   -1.526673
     87          6           0       21.640600   -1.204303   -2.866994
     88          6           0       22.979165   -1.393681   -3.708228
     89          6           0       23.977113   -0.632845   -2.845392
     90          6           0       23.434844   -2.822859   -4.271166
     91          6           0       20.553160   -0.213045   -3.492207
     92          6           0       20.683997    1.304606   -3.166546
     93          1           0       20.416855    2.216661   -4.339743
     94          7           0       26.327681    0.460009   -1.239260
     95          6           0       26.308353    0.256429   -2.624684
     96          6           0       27.494382    0.773570   -3.250416
     97          6           0       28.295780    1.247381   -2.184421
     98          6           0       27.527813    1.001268   -0.927596
     99          6           0       27.774870    0.487096   -4.726456
    100          6           0       29.699484    1.847738   -2.425913
    101          8           0       30.147465    2.031020   -3.562348
    102          6           0       30.492480    2.135327   -1.221096
    103          7           0       25.777684    0.864200    1.739904
    104          6           0       27.149388    1.025928    1.641137
    105          6           0       27.809809    1.404523    2.985093
    106          6           0       26.502435    1.444391    3.878048
    107          6           0       25.413122    1.006918    3.003391
    108          6           0       28.880191    0.526147    3.551821
    109          6           0       26.172183    2.917710    4.442577
    110          6           0       25.830238    2.872714    5.909046
    111          7           0       23.197699   -0.276015    1.468491
    112          6           0       23.083538    0.056151    2.805702
    113          6           0       21.704189   -0.208752    3.274780
    114          6           0       21.019284   -0.573908    2.063843
    115          6           0       21.970167   -0.586401    1.036727
    116          6           0       21.052539    0.107848    4.559290
    117          6           0       19.727282   -0.891103    1.418952
    118          8           0       18.615537   -0.901852    1.894656
    119          6           0       19.968032   -1.113243   -0.108964
    120          6           0       19.485990   -2.434762   -0.512369
    121          8           0       18.602256   -2.745447   -1.311432
    122          8           0       20.027617   -3.367518    0.410574
    123          6           0       19.704387   -4.785384    0.143202
    124          1           0       25.396128   -0.672821   -4.287008
    125          1           0       28.919862    1.375021    0.643506
    126          1           0       24.082479    0.800828    4.571481
    127          1           0       21.103712   -2.149634   -2.789018
    128          1           0       22.754581   -0.768791   -4.572987
    129          1           0       22.726921   -3.638397   -4.124438
    130          1           0       24.337818   -3.212530   -3.801351
    131          1           0       23.471838   -2.783265   -5.360166
    132          1           0       19.545057   -0.560074   -3.267885
    133          1           0       20.615551   -0.343480   -4.572549
    134          1           0       21.665853    1.525174   -2.746614
    135          1           0       19.955263    1.582086   -2.405432
    136          1           0       28.349409    1.268335   -5.225125
    137          1           0       26.832535    0.479241   -5.273595
    138          1           0       28.342942   -0.443317   -4.743298
    139          1           0       30.788545    1.189465   -0.768433
    140          1           0       29.914568    2.761678   -0.540811
    141          1           0       31.373180    2.664409   -1.585044
    142          1           0       28.105319    2.451777    2.917429
    143          1           0       26.667280    0.616506    4.567609
    144          1           0       29.033473    0.869664    4.574989
    145          1           0       29.803589    0.771393    3.027105
    146          1           0       28.602526   -0.524341    3.457557
    147          1           0       25.363284    3.307649    3.824870
    148          1           0       26.920473    3.693263    4.274406
    149          1           0       24.769762    3.102029    6.010683
    150          1           0       26.247017    3.717327    6.458710
    151          1           0       25.959493    1.858866    6.287318
    152          1           0       21.688704    0.574059    5.313117
    153          1           0       20.745369   -0.849041    4.979892
    154          1           0       20.361927    0.887556    4.238655
    155          1           0       19.399699   -0.318413   -0.591452
    156          1           0       20.673947   -5.265568    0.280279
    157          1           0       19.303636   -5.099198   -0.820696
    158          1           0       19.148389   -5.104869    1.024814
 ---------------------------------------------------------------------

 SCF Done:  E(RPBE1PBE) =  -4067.38651131     A.U. after   16 cycles

 Excitation energies and oscillator strengths:

 Excited State   1:      Singlet-A      1.8710 eV  662.67 nm  f=0.5038  <S**2>=0.000
     309 -> 315       -0.16952
     311 -> 313       -0.19951
     312 -> 314        0.66075
 This state for optimization and/or second-order correction.
 Total Energy, E(TD-HF/TD-DFT) =  -4067.31775386
 Copying the excited state density for this state as the 1-particle RhoCI density.

 Excited State   2:      Singlet-A      1.8723 eV  662.19 nm  f=0.2359  <S**2>=0.000
     310 -> 316       -0.16821
     311 -> 313        0.66380
     312 -> 314        0.19854
     311 <- 313       -0.10208

 Excited State   3:      Singlet-A      1.9882 eV  623.60 nm  f=0.0000  <S**2>=0.000
     312 -> 313        0.70711

 Excited State   4:      Singlet-A      2.0513 eV  604.43 nm  f=0.0000  <S**2>=0.000
     311 -> 314        0.70711

 Excited State   5:      Singlet-A      2.2140 eV  560.01 nm  f=0.0898  <S**2>=0.000
     309 -> 314        0.64338
     312 -> 315        0.27395

 The electronic state is 1-A.
 Alpha  occ. eigenvalues --  -46.92471 -46.91158 -19.24988 -19.24599 -19.20731
 Alpha  occ. eigenvalues --  -19.20470 -19.19703 -19.19152 -19.19081 -19.18318
 Alpha  occ. eigenvalues --  -14.41727 -14.41658 -14.41364 -14.41077 -14.39619
 Alpha  occ. eigenvalues --  -14.39220 -14.38862 -14.38408 -10.36710 -10.35896
 Alpha  occ. eigenvalues --  -10.34175 -10.32324 -10.32150 -10.31407 -10.29305
 Alpha  occ. eigenvalues --  -10.28937 -10.28858 -10.28517 -10.28498 -10.28380
 Alpha  occ. eigenvalues --  -10.28311 -10.28292 -10.28240 -10.28227 -10.28134
 Alpha  occ. eigenvalues --  -10.27930 -10.27876 -10.27794 -10.27633 -10.26900
 Alpha  occ. eigenvalues --  -10.26830 -10.26692 -10.26460 -10.26443 -10.26319
 Alpha  occ. eigenvalues --  -10.26268 -10.26127 -10.26017 -10.26009 -10.25956
 Alpha  occ. eigenvalues --  -10.25897 -10.25893 -10.25854 -10.25738 -10.25711
 Alpha  occ. eigenvalues --  -10.25546 -10.25360 -10.25351 -10.25300 -10.25230
 Alpha  occ. eigenvalues --  -10.25024 -10.24927 -10.24829 -10.24759 -10.24738
 Alpha  occ. eigenvalues --  -10.24678 -10.24614 -10.24575 -10.24517 -10.24402
 Alpha  occ. eigenvalues --  -10.24337 -10.24261 -10.24012 -10.23735 -10.23669
 Alpha  occ. eigenvalues --  -10.23598 -10.23408 -10.23321 -10.23259 -10.23252
 Alpha  occ. eigenvalues --  -10.23204 -10.23193 -10.23188 -10.23059 -10.22169
 Alpha  occ. eigenvalues --  -10.21992  -3.14577  -3.13497  -1.87402  -1.86967
 Alpha  occ. eigenvalues --   -1.86792  -1.86352  -1.85836  -1.85769  -1.09513
 Alpha  occ. eigenvalues --   -1.09239  -1.05159  -1.04996  -1.04499  -1.04005
 Alpha  occ. eigenvalues --   -1.01696  -1.01584  -1.00355  -0.99664  -0.99416
 Alpha  occ. eigenvalues --   -0.98771  -0.98333  -0.97820  -0.97695  -0.96940
 Alpha  occ. eigenvalues --   -0.86798  -0.86581  -0.83933  -0.83529  -0.83495
 Alpha  occ. eigenvalues --   -0.82789  -0.82497  -0.82256  -0.81926  -0.81561
 Alpha  occ. eigenvalues --   -0.81260  -0.81224  -0.80730  -0.80411  -0.79014
 Alpha  occ. eigenvalues --   -0.78741  -0.78501  -0.78002  -0.76994  -0.76929
 Alpha  occ. eigenvalues --   -0.76569  -0.76553  -0.75316  -0.75168  -0.74474
 Alpha  occ. eigenvalues --   -0.74427  -0.72727  -0.72666  -0.71757  -0.71587
 Alpha  occ. eigenvalues --   -0.71070  -0.70997  -0.70485  -0.70116  -0.70072
 Alpha  occ. eigenvalues --   -0.69409  -0.67320  -0.67090  -0.66556  -0.65604
 Alpha  occ. eigenvalues --   -0.63723  -0.63674  -0.63642  -0.63129  -0.62559
 Alpha  occ. eigenvalues --   -0.62344  -0.61223  -0.60866  -0.60842  -0.59567
 Alpha  occ. eigenvalues --   -0.59346  -0.59148  -0.59051  -0.58754  -0.58523
 Alpha  occ. eigenvalues --   -0.58394  -0.57048  -0.55873  -0.55039  -0.54771
 Alpha  occ. eigenvalues --   -0.54191  -0.53957  -0.53724  -0.53518  -0.52869
 Alpha  occ. eigenvalues --   -0.52676  -0.52529  -0.52090  -0.52079  -0.51748
 Alpha  occ. eigenvalues --   -0.50868  -0.50377  -0.50338  -0.50217  -0.49990
 Alpha  occ. eigenvalues --   -0.49881  -0.49614  -0.49305  -0.49088  -0.48405
 Alpha  occ. eigenvalues --   -0.48354  -0.48191  -0.47707  -0.47584  -0.47441
 Alpha  occ. eigenvalues --   -0.47234  -0.47115  -0.47004  -0.46904  -0.46696
 Alpha  occ. eigenvalues --   -0.46616  -0.46469  -0.46421  -0.46235  -0.45822
 Alpha  occ. eigenvalues --   -0.45695  -0.45366  -0.45175  -0.45072  -0.45035
 Alpha  occ. eigenvalues --   -0.45023  -0.44763  -0.44369  -0.44276  -0.44184
 Alpha  occ. eigenvalues --   -0.44074  -0.43857  -0.43852  -0.43579  -0.43462
 Alpha  occ. eigenvalues --   -0.43460  -0.43207  -0.43161  -0.43079  -0.42919
 Alpha  occ. eigenvalues --   -0.42765  -0.42379  -0.42317  -0.41983  -0.41873
 Alpha  occ. eigenvalues --   -0.41646  -0.41621  -0.41237  -0.41221  -0.41114
 Alpha  occ. eigenvalues --   -0.40955  -0.40901  -0.40732  -0.40495  -0.40457
 Alpha  occ. eigenvalues --   -0.40438  -0.40125  -0.39865  -0.39782  -0.39681
 Alpha  occ. eigenvalues --   -0.39650  -0.39490  -0.39415  -0.39385  -0.39114
 Alpha  occ. eigenvalues --   -0.38808  -0.38710  -0.38523  -0.38320  -0.38252
 Alpha  occ. eigenvalues --   -0.38052  -0.37926  -0.37914  -0.37811  -0.37759
 Alpha  occ. eigenvalues --   -0.37663  -0.37385  -0.37304  -0.36975  -0.36954
 Alpha  occ. eigenvalues --   -0.36755  -0.36646  -0.36575  -0.36499  -0.36244
 Alpha  occ. eigenvalues --   -0.36070  -0.35891  -0.35791  -0.35484  -0.35305
 Alpha  occ. eigenvalues --   -0.34961  -0.34854  -0.34844  -0.34091  -0.34032
 Alpha  occ. eigenvalues --   -0.33492  -0.33150  -0.33027  -0.32938  -0.32535
 Alpha  occ. eigenvalues --   -0.32417  -0.31930  -0.31679  -0.31576  -0.31201
 Alpha  occ. eigenvalues --   -0.30539  -0.30537  -0.30281  -0.29684  -0.29672
 Alpha  occ. eigenvalues --   -0.29007  -0.28864  -0.28549  -0.26891  -0.26828
 Alpha  occ. eigenvalues --   -0.26601  -0.25977  -0.25866  -0.25723  -0.25508
 Alpha  occ. eigenvalues --   -0.25445  -0.25318  -0.25226  -0.20978  -0.20814
 Alpha  occ. eigenvalues --   -0.18949  -0.18845
 Alpha virt. eigenvalues --   -0.11270  -0.11139  -0.05691  -0.04780  -0.04174
 Alpha virt. eigenvalues --   -0.03509  -0.02004  -0.01933  -0.01090  -0.00478
 Alpha virt. eigenvalues --    0.00154   0.00821   0.00898   0.01430   0.02044

 Mulliken charges:
               1
     1  Mg  12.000640
     2  C    5.993965
     3  C    6.002292
     4  C    6.006005
     5  C    5.999191
     6  N    6.996127
     7  C    6.009309
     8  C    5.999553
     9  C    6.000866
    10  C    5.992619
    11  C    5.999055
    12  C    5.999265
    13  C    5.999995
    14  H    1.000905
    15  N    7.001387
    16  C    5.988477
    17  C    5.994531
    18  C    5.993914
    19  C    5.992519
    20  C    6.001217
    21  C    5.995816
    22  O    7.991499
    23  C    6.001370
    24  N    7.001818
    25  C    5.990761
    26  C    6.002543
    27  C    5.997580
    28  C    6.007743
    29  C    6.000122
    30  C    5.999765
    31  C    5.999318
    32  N    7.001224
    33  C    6.008398
    34  C    6.009087
    35  C    6.000819
    36  C    6.006783
    37  C    5.998988
    38  C    6.004149
    39  O    8.008416
    40  C    6.000419
    41  C    6.001743
    42  O    8.001291
    43  O    8.000488
    44  C    5.999683
    45  H    0.996742
    46  H    0.998950
    47  H    1.003444
    48  H    0.999151
    49  H    1.000430
    50  H    0.999237
    51  H    0.996053
    52  H    1.000834
    53  H    1.003256
    54  H    0.997859
    55  H    1.001049
    56  H    0.999072
    57  H    0.995432
    58  H    0.994028
    59  H    0.995823
    60  H    0.998772
    61  H    0.995872
    62  H    0.997581
    63  H    1.000508
    64  H    1.000512
    65  H    0.997066
    66  H    1.000949
    67  H    1.000522
    68  H    1.002957
    69  H    0.999855
    70  H    0.999450
    71  H    0.999544
    72  H    1.002702
    73  H    1.004897
    74  H    1.004791
    75  H    1.006168
    76  H    1.002000
    77  H    1.001350
    78  H    0.999894
    79  H    1.001596
    80  Mg  11.998254
    81  C    6.019724
    82  C    5.990408
    83  C    5.972994
    84  C    6.007631
    85  N    7.005965
    86  C    5.969701
    87  C    6.010352
    88  C    5.989056
    89  C    6.029968
    90  C    5.996304
    91  C    6.002286
    92  C    6.003931
    93  H    0.992864
    94  N    6.995063
    95  C    6.036728
    96  C    6.017979
    97  C    6.011791
    98  C    6.035551
    99  C    5.997968
   100  C    6.012515
   101  O    8.018461
   102  C    5.995963
   103  N    6.998002
   104  C    6.038324
   105  C    5.984852
   106  C    6.011086
   107  C    5.967944
   108  C    5.997446
   109  C    6.004035
   110  C    6.000025
   111  N    7.000723
   112  C    5.968603
   113  C    5.970363
   114  C    5.996768
   115  C    5.973776
   116  C    6.001745
   117  C    5.984586
   118  O    7.974671
   119  C    5.998555
   120  C    5.992868
   121  O    7.991311
   122  O    8.005665
   123  C    6.002061
   124  H    1.011609
   125  H    1.005446
   126  H    0.989262
   127  H    1.000384
   128  H    1.004734
   129  H    1.012771
   130  H    0.999797
   131  H    1.002809
   132  H    1.003863
   133  H    0.992221
   134  H    0.993235
   135  H    1.006433
   136  H    1.013908
   137  H    1.013781
   138  H    1.016397
   139  H    1.008622
   140  H    1.009401
   141  H    1.011806
   142  H    1.001314
   143  H    0.999033
   144  H    1.008219
   145  H    0.995051
   146  H    1.004258
   147  H    1.000132
   148  H    0.988380
   149  H    1.003521
   150  H    0.994861
   151  H    0.999547
   152  H    0.983213
   153  H    0.983683
   154  H    0.985235
   155  H    0.993694
   156  H    0.995383
   157  H    0.993947
   158  H    0.999184
 Sum of Mulliken charges = 624.00000

 Dipole moment (field-independent basis, Debye):
    X=              9.9393    Y=              2.0370    Z=             -6.2504  Tot=             11.9166
 Quadrupole moment (field-independent basis, Debye-Ang):
   XX=            211.3666   YY=              1.4805   ZZ=             -0.2182
   XY=              2.5451   XZ=           -161.9081   YZ=             -2.0363

 Normal termination of Gaussian 16 at Fri Oct 15 19:37:57 2021.
