 Gaussian 16, Revision A.03,
 Gaussian 16:  ES64L-G16RevA.03 25-Dec-2016

 --------------------------------------------------------
 #p PBE1PBE/Def2SVP td=(nstates=5) density=(transition=1)
 --------------------------------------------------------

 --------------------------------
 TDDFT excited states in gaussian
 --------------------------------
 Symbolic Z-matrix:
 Charge =  0 Multiplicity = 1

                         Standard orientation:
 ---------------------------------------------------------------------
 Center     Atomic      Atomic             Coordinates (Angstroms)
 Number     Number       Type             X           Y           Z
 ---------------------------------------------------------------------
      1         12           0      -13.823402   -0.502268    0.321527
      2          6           0      -13.603224    2.729058   -0.985778
      3          6           0      -12.174349    0.727088    3.161199
      4          6           0      -13.454145   -3.621241    1.476793
      5          6           0      -14.451358   -1.676999   -2.851638
      6          7           0      -13.050018    1.570210    1.093624
      7          6           0      -13.057329    2.669158    0.293193
      8          6           0      -12.388482    3.896257    1.030541
      9          6           0      -11.702503    3.145742    2.280853
     10          6           0      -12.283887    1.725721    2.177159
     11          6           0      -10.162877    3.059481    1.985708
     12          6           0      -13.548693    4.844726    1.508412
     13          6           0      -13.158098    6.068077    2.381716
     14          1           0      -13.817468    6.588756    3.624084
     15          7           0      -13.126380   -1.271012    2.137734
     16          6           0      -12.510818   -0.628884    3.225138
     17          6           0      -12.200670   -1.606665    4.181524
     18          6           0      -12.728048   -2.833451    3.801110
     19          6           0      -13.141842   -2.610290    2.425630
     20          6           0      -11.577669   -1.214468    5.481156
     21          6           0      -12.733927   -4.216921    4.531289
     22          8           0      -13.251130   -5.238771    4.092811
     23          6           0      -12.270546   -4.371953    5.982351
     24          7           0      -13.826116   -2.356522   -0.608348
     25          6           0      -13.794449   -3.492732    0.123269
     26          6           0      -14.171826   -4.754300   -0.677608
     27          6           0      -14.354131   -4.149470   -2.097365
     28          6           0      -14.330794   -2.650018   -1.860941
     29          6           0      -13.192397   -5.960329   -0.490970
     30          6           0      -15.578158   -4.631279   -2.923446
     31          6           0      -16.888427   -4.094780   -2.528797
     32          7           0      -14.094970    0.309804   -1.543350
     33          6           0      -14.337126   -0.253105   -2.704422
     34          6           0      -14.576056    0.740080   -3.756623
     35          6           0      -14.286022    1.955896   -3.058801
     36          6           0      -13.966642    1.649464   -1.750467
     37          6           0      -15.322911    0.600941   -4.999975
     38          6           0      -14.246290    3.397146   -3.234416
     39          8           0      -14.565814    4.086724   -4.176142
     40          6           0      -13.724540    3.921179   -1.890992
     41          6           0      -12.449808    4.754022   -2.062307
     42          8           0      -11.352630    4.289050   -2.231263
     43          8           0      -12.776394    6.089072   -2.067370
     44          6           0      -11.590131    6.962479   -2.220741
     45          1           0      -11.780441    1.145940    4.088638
     46          1           0      -13.552422   -4.632683    1.877167
     47          1           0      -14.780194   -2.284766   -3.696386
     48          1           0      -11.614480    4.374116    0.429442
     49          1           0      -11.875869    3.620974    3.247163
     50          1           0       -9.776689    2.083328    1.694060
     51          1           0       -9.575934    3.145029    2.900521
     52          1           0       -9.814508    3.774393    1.240570
     53          1           0      -14.274357    4.225225    2.034719
     54          1           0      -14.079896    5.169458    0.613311
     55          1           0      -13.052698    6.877459    1.658698
     56          1           0      -12.182945    5.744818    2.743867
     57          1           0      -11.332429   -0.157462    5.587987
     58          1           0      -10.762675   -1.910843    5.683200
     59          1           0      -12.365990   -1.406782    6.209457
     60          1           0      -11.201544   -4.210813    6.121957
     61          1           0      -12.590256   -5.295168    6.465896
     62          1           0      -12.823375   -3.629462    6.558145
     63          1           0      -15.117075   -4.957214   -0.174962
     64          1           0      -13.424804   -4.398406   -2.609700
     65          1           0      -12.729927   -5.938492    0.495260
     66          1           0      -12.401791   -5.898917   -1.239276
     67          1           0      -13.693792   -6.925969   -0.559325
     68          1           0      -15.542012   -5.706165   -2.749015
     69          1           0      -15.379960   -4.495064   -3.986760
     70          1           0      -17.033785   -3.117759   -2.989396
     71          1           0      -16.991018   -4.067540   -1.444152
     72          1           0      -17.709268   -4.691431   -2.927809
     73          1           0      -16.005535   -0.229964   -4.820305
     74          1           0      -14.809229    0.290102   -5.909843
     75          1           0      -15.819135    1.555826   -5.170090
     76          1           0      -14.511320    4.531890   -1.446925
     77          1           0      -11.880319    7.834772   -2.806097
     78          1           0      -10.788253    6.577153   -2.850871
     79          1           0      -11.246144    7.327137   -1.253403
     80         12           0       12.984445   -0.939563   -0.310205
     81          6           0       15.388788    1.781773    0.190653
     82          6           0       10.482918    1.470613    0.147344
     83          6           0       10.791863   -3.350749   -0.389901
     84          6           0       15.591871   -3.085905   -0.907259
     85          7           0       12.941755    1.284850    0.317306
     86          6           0       14.035989    2.247537    0.345378
     87          6           0       13.589126    3.689164    0.669788
     88          6           0       11.981080    3.433738    0.841393
     89          6           0       11.738777    1.968145    0.430429
     90          6           0       11.454745    3.757018    2.226229
     91          6           0       14.044915    4.670902   -0.451805
     92          6           0       13.421958    6.033689   -0.404682
     93          1           0       14.281024    7.260008   -0.618730
     94          7           0       10.888110   -0.975975   -0.122217
     95          6           0       10.026808    0.113094    0.052924
     96          6           0        8.641254   -0.352464    0.066376
     97          6           0        8.699967   -1.796713   -0.099853
     98          6           0       10.165577   -2.138831   -0.218375
     99          6           0        7.377341    0.580174    0.145113
    100          6           0        7.631788   -2.830104   -0.109031
    101          8           0        7.814358   -4.026411   -0.291424
    102          6           0        6.218233   -2.430134   -0.007757
    103          7           0       13.145405   -2.861807   -0.687154
    104          6           0       12.121147   -3.705532   -0.548145
    105          6           0       12.517755   -5.176165   -0.816958
    106          6           0       13.904612   -4.999953   -1.399724
    107          6           0       14.296492   -3.550526   -0.914728
    108          6           0       12.502534   -6.042795    0.436937
    109          6           0       14.201649   -5.157416   -2.868533
    110          6           0       13.503143   -4.150075   -3.756722
    111          7           0       15.059732   -0.770042   -0.263321
    112          6           0       15.997579   -1.748609   -0.639225
    113          6           0       17.322165   -1.186616   -0.541802
    114          6           0       17.056556    0.185134   -0.296208
    115          6           0       15.676806    0.401488   -0.118099
    116          6           0       18.640495   -1.835046   -0.848545
    117          6           0       17.775392    1.491620   -0.180114
    118          8           0       18.973791    1.786637   -0.375935
    119          6           0       16.703855    2.522615    0.167429
    120          6           0       17.073446    3.245108    1.464625
    121          8           0       17.190692    2.799442    2.644250
    122          8           0       17.128255    4.576165    1.173688
    123          6           0       17.392238    5.474231    2.320704
    124          1           0        9.717132    2.245484    0.086923
    125          1           0       10.082484   -4.180215   -0.356369
    126          1           0       16.470816   -3.715641   -1.060792
    127          1           0       14.151686    3.964846    1.561719
    128          1           0       11.452951    3.989654    0.066681
    129          1           0       10.679615    4.518103    2.132182
    130          1           0       12.295427    4.167842    2.784187
    131          1           0       11.236242    2.921262    2.890610
    132          1           0       13.917547    4.123192   -1.386201
    133          1           0       15.124135    4.804082   -0.375664
    134          1           0       12.940069    6.325707    0.528098
    135          1           0       12.708488    6.128208   -1.222791
    136          1           0        6.850328    0.408593   -0.793905
    137          1           0        7.623120    1.639421    0.218994
    138          1           0        6.806151    0.242185    1.009848
    139          1           0        6.028615   -1.667601    0.747964
    140          1           0        5.712689   -3.354161    0.270569
    141          1           0        6.024336   -1.927780   -0.954974
    142          1           0       11.788150   -5.578111   -1.520054
    143          1           0       14.617051   -5.713327   -0.984487
    144          1           0       12.082730   -7.014379    0.178949
    145          1           0       11.887629   -5.596795    1.217924
    146          1           0       13.521942   -6.283202    0.740925
    147          1           0       13.996847   -6.193063   -3.141202
    148          1           0       15.244929   -4.925903   -3.082530
    149          1           0       13.047371   -4.619958   -4.627490
    150          1           0       14.188565   -3.416967   -4.182575
    151          1           0       12.698745   -3.600788   -3.267349
    152          1           0       19.198090   -1.214854   -1.549936
    153          1           0       18.683313   -2.844420   -1.257657
    154          1           0       19.193978   -1.881150    0.089575
    155          1           0       16.715502    3.294632   -0.602486
    156          1           0       16.458341    5.922083    2.659725
    157          1           0       18.118833    6.135134    1.848064
    158          1           0       17.944339    4.978303    3.120071
 ---------------------------------------------------------------------

 SCF Done:  E(RPBE1PBE) =  -4067.40154560     A.U. after   16 cycles

 Excitation energies and oscillator strengths:

 Excited State   1:      Singlet-A      1.7687 eV  701.00 nm  f=0.0000  <S**2>=0.000
     312 -> 313        0.70710
 This state for optimization and/or second-order correction.
 Total Energy, E(TD-HF/TD-DFT) =  -4067.33654841
 Copying the excited state density for this state as the 1-particle RhoCI density.

 Excited State   2:      Singlet-A      1.8174 eV  682.19 nm  f=0.3923  <S**2>=0.000
     309 -> 315        0.16216
     311 -> 313        0.69589
     311 <- 313       -0.11402

 Excited State   3:      Singlet-A      1.8847 eV  657.83 nm  f=0.3764  <S**2>=0.000
     310 -> 316       -0.17979
     312 -> 314        0.69118
     312 <- 314       -0.10352

 Excited State   4:      Singlet-A      2.0871 eV  594.04 nm  f=0.0000  <S**2>=0.000
     311 -> 314        0.70710

 Excited State   5:      Singlet-A      2.1799 eV  568.76 nm  f=0.1258  <S**2>=0.000
     309 -> 313        0.66141
     311 -> 315       -0.23374

 The electronic state is 1-A.
 Alpha  occ. eigenvalues --  -46.92184 -46.91179 -19.26533 -19.26532 -19.20710
 Alpha  occ. eigenvalues --  -19.20028 -19.19576 -19.19178 -19.18917 -19.18787
 Alpha  occ. eigenvalues --  -14.42103 -14.41674 -14.41626 -14.40808 -14.39535
 Alpha  occ. eigenvalues --  -14.38903 -14.38836 -14.38689 -10.37113 -10.36877
 Alpha  occ. eigenvalues --  -10.33255 -10.32004 -10.31770 -10.31625 -10.29930
 Alpha  occ. eigenvalues --  -10.29227 -10.29142 -10.29064 -10.28811 -10.28745
 Alpha  occ. eigenvalues --  -10.28665 -10.28589 -10.28557 -10.28286 -10.28159
 Alpha  occ. eigenvalues --  -10.27895 -10.27872 -10.27870 -10.27559 -10.27330
 Alpha  occ. eigenvalues --  -10.27209 -10.26852 -10.26819 -10.26589 -10.26572
 Alpha  occ. eigenvalues --  -10.26524 -10.26487 -10.26477 -10.26342 -10.26270
 Alpha  occ. eigenvalues --  -10.25833 -10.25792 -10.25723 -10.25681 -10.25667
 Alpha  occ. eigenvalues --  -10.25533 -10.25492 -10.25446 -10.25325 -10.25149
 Alpha  occ. eigenvalues --  -10.25140 -10.25110 -10.25028 -10.24857 -10.24727
 Alpha  occ. eigenvalues --  -10.24721 -10.24628 -10.24486 -10.24335 -10.23910
 Alpha  occ. eigenvalues --  -10.23900 -10.23714 -10.23576 -10.23560 -10.23549
 Alpha  occ. eigenvalues --  -10.23363 -10.23349 -10.23274 -10.23140 -10.23077
 Alpha  occ. eigenvalues --  -10.22943 -10.22934 -10.22739 -10.22636 -10.22215
 Alpha  occ. eigenvalues --  -10.21987  -3.14325  -3.13496  -1.87152  -1.86714
 Alpha  occ. eigenvalues --   -1.86535  -1.86343  -1.85883  -1.85721  -1.11676
 Alpha  occ. eigenvalues --   -1.10891  -1.05179  -1.05064  -1.04911  -1.03687
 Alpha  occ. eigenvalues --   -1.02713  -1.00674  -0.99838  -0.99676  -0.98418
 Alpha  occ. eigenvalues --   -0.98042  -0.97720  -0.97080  -0.96743  -0.95171
 Alpha  occ. eigenvalues --   -0.88319  -0.86782  -0.84007  -0.83792  -0.83143
 Alpha  occ. eigenvalues --   -0.82969  -0.82856  -0.82510  -0.81792  -0.81635
 Alpha  occ. eigenvalues --   -0.81609  -0.81095  -0.80696  -0.80354  -0.79034
 Alpha  occ. eigenvalues --   -0.78421  -0.78368  -0.78054  -0.77239  -0.76745
 Alpha  occ. eigenvalues --   -0.76321  -0.75829  -0.75782  -0.75223  -0.74755
 Alpha  occ. eigenvalues --   -0.74419  -0.72799  -0.72677  -0.71990  -0.71635
 Alpha  occ. eigenvalues --   -0.71221  -0.71011  -0.70526  -0.70344  -0.69823
 Alpha  occ. eigenvalues --   -0.69239  -0.67310  -0.67051  -0.66347  -0.66269
 Alpha  occ. eigenvalues --   -0.64601  -0.64449  -0.63833  -0.63688  -0.62859
 Alpha  occ. eigenvalues --   -0.62072  -0.61642  -0.61416  -0.59908  -0.59599
 Alpha  occ. eigenvalues --   -0.59281  -0.59246  -0.59016  -0.58770  -0.58653
 Alpha  occ. eigenvalues --   -0.58395  -0.57177  -0.56599  -0.54683  -0.54600
 Alpha  occ. eigenvalues --   -0.54103  -0.53985  -0.53810  -0.53725  -0.53123
 Alpha  occ. eigenvalues --   -0.52960  -0.52931  -0.52302  -0.51995  -0.51964
 Alpha  occ. eigenvalues --   -0.51123  -0.50831  -0.50468  -0.50258  -0.50200
 Alpha  occ. eigenvalues --   -0.50004  -0.49846  -0.49800  -0.49369  -0.49292
 Alpha  occ. eigenvalues --   -0.48961  -0.48623  -0.47879  -0.47874  -0.47633
 Alpha  occ. eigenvalues --   -0.47509  -0.47360  -0.47356  -0.47092  -0.46892
 Alpha  occ. eigenvalues --   -0.46824  -0.46796  -0.45839  -0.45780  -0.45684
 Alpha  occ. eigenvalues --   -0.45435  -0.45434  -0.45183  -0.45017  -0.44824
 Alpha  occ. eigenvalues --   -0.44778  -0.44601  -0.44511  -0.44226  -0.44104
 Alpha  occ. eigenvalues --   -0.43956  -0.43880  -0.43597  -0.43528  -0.43514
 Alpha  occ. eigenvalues --   -0.43491  -0.43234  -0.43009  -0.42954  -0.42769
 Alpha  occ. eigenvalues --   -0.42606  -0.42437  -0.42235  -0.42173  -0.41842
 Alpha  occ. eigenvalues --   -0.41751  -0.41499  -0.41401  -0.41343  -0.40917
 Alpha  occ. eigenvalues --   -0.40900  -0.40795  -0.40722  -0.40630  -0.40513
 Alpha  occ. eigenvalues --   -0.40215  -0.40173  -0.39902  -0.39811  -0.39708
 Alpha  occ. eigenvalues --   -0.39518  -0.39267  -0.39256  -0.39162  -0.39122
 Alpha  occ. eigenvalues --   -0.39102  -0.38914  -0.38858  -0.38706  -0.38505
 Alpha  occ. eigenvalues --   -0.38374  -0.38241  -0.38033  -0.37924  -0.37798
 Alpha  occ. eigenvalues --   -0.37496  -0.37450  -0.37369  -0.37334  -0.37216
 Alpha  occ. eigenvalues --   -0.37063  -0.36843  -0.36704  -0.36697  -0.36497
 Alpha  occ. eigenvalues --   -0.36097  -0.35750  -0.35657  -0.35368  -0.35212
 Alpha  occ. eigenvalues --   -0.34863  -0.34612  -0.34218  -0.34015  -0.33908
 Alpha  occ. eigenvalues --   -0.33861  -0.33474  -0.32880  -0.32760  -0.32349
 Alpha  occ. eigenvalues --   -0.32334  -0.32191  -0.31871  -0.31833  -0.31600
 Alpha  occ. eigenvalues --   -0.31475  -0.31203  -0.29881  -0.29565  -0.29549
 Alpha  occ. eigenvalues --   -0.29148  -0.28795  -0.28634  -0.27096  -0.27007
 Alpha  occ. eigenvalues --   -0.25946  -0.25868  -0.25809  -0.25799  -0.25596
 Alpha  occ. eigenvalues --   -0.25401  -0.25049  -0.25030  -0.21177  -0.20782
 Alpha  occ. eigenvalues --   -0.19122  -0.18720
 Alpha virt. eigenvalues --   -0.11712  -0.10957  -0.05251  -0.04909  -0.03888
 Alpha virt. eigenvalues --   -0.03846  -0.02219  -0.02168  -0.00630  -0.00343
 Alpha virt. eigenvalues --    0.00078   0.00477   0.01274   0.01458   0.01927

 Mulliken charges:
               1
     1  Mg  12.000000
     2  C    6.000000
     3  C    6.000000
     4  C    6.000000
     5  C    6.000000
     6  N    7.000000
     7  C    6.000000
     8  C    6.000000
     9  C    6.000000
    10  C    6.000000
    11  C    6.000000
    12  C    6.000000
    13  C    6.000000
    14  H    1.000000
    15  N    7.000000
    16  C    6.000000
    17  C    6.000000
    18  C    6.000000
    19  C    6.000000
    20  C    6.000000
    21  C    6.000000
    22  O    8.000000
    23  C    6.000000
    24  N    7.000000
    25  C    6.000000
    26  C    6.000000
    27  C    6.000000
    28  C    6.000000
    29  C    6.000000
    30  C    6.000000
    31  C    6.000000
    32  N    7.000000
    33  C    6.000000
    34  C    6.000000
    35  C    6.000000
    36  C    6.000000
    37  C    6.000000
    38  C    6.000000
    39  O    8.000000
    40  C    6.000000
    41  C    6.000000
    42  O    8.000000
    43  O    8.000000
    44  C    6.000000
    45  H    1.000000
    46  H    1.000000
    47  H    1.000000
    48  H    1.000000
    49  H    1.000000
    50  H    1.000000
    51  H    1.000000
    52  H    1.000000
    53  H    1.000000
    54  H    1.000000
    55  H    1.000000
    56  H    1.000000
    57  H    1.000000
    58  H    1.000000
    59  H    1.000000
    60  H    1.000000
    61  H    1.000000
    62  H    1.000000
    63  H    1.000000
    64  H    1.000000
    65  H    1.000000
    66  H    1.000000
    67  H    1.000000
    68  H    1.000000
    69  H    1.000000
    70  H    1.000000
    71  H    1.000000
    72  H    1.000000
    73  H    1.000000
    74  H    1.000000
    75  H    1.000000
    76  H    1.000000
    77  H    1.000000
    78  H    1.000000
    79  H    1.000000
    80  Mg  12.000000
    81  C    6.000000
    82  C    6.000000
    83  C    6.000000
    84  C    6.000000
    85  N    7.000000
    86  C    6.000000
    87  C    6.000000
    88  C    6.000000
    89  C    6.000000
    90  C    6.000000
    91  C    6.000000
    92  C    6.000000
    93  H    1.000000
    94  N    7.000000
    95  C    6.000000
    96  C    6.000000
    97  C    6.000000
    98  C    6.000000
    99  C    6.000000
   100  C    6.000000
   101  O    8.000000
   102  C    6.000000
   103  N    7.000000
   104  C    6.000000
   105  C    6.000000
   106  C    6.000000
   107  C    6.000000
   108  C    6.000000
   109  C    6.000000
   110  C    6.000000
   111  N    7.000000
   112  C    6.000000
   113  C    6.000000
   114  C    6.000000
   115  C    6.000000
   116  C    6.000000
   117  C    6.000000
   118  O    8.000000
   119  C    6.000000
   120  C    6.000000
   121  O    8.000000
   122  O    8.000000
   123  C    6.000000
   124  H    1.000000
   125  H    1.000000
   126  H    1.000000
   127  H    1.000000
   128  H    1.000000
   129  H    1.000000
   130  H    1.000000
   131  H    1.000000
   132  H    1.000000
   133  H    1.000000
   134  H    1.000000
   135  H    1.000000
   136  H    1.000000
   137  H    1.000000
   138  H    1.000000
   139  H    1.000000
   140  H    1.000000
   141  H    1.000000
   142  H    1.000000
   143  H    1.000000
   144  H    1.000000
   145  H    1.000000
   146  H    1.000000
   147  H    1.000000
   148  H    1.000000
   149  H    1.000000
   150  H    1.000000
   151  H    1.000000
   152  H    1.000000
   153  H    1.000000
   154  H    1.000000
   155  H    1.000000
   156  H    1.000000
   157  H    1.000000
   158  H    1.000000
 Sum of Mulliken charges = 624.00000

 Dipole moment (field-independent basis, Debye):
    X=             -0.0000    Y=             -0.0000    Z=              0.0000  Tot=              0.0000
 Quadrupole moment (field-independent basis, Debye-Ang):
   XX=             -0.0000   YY=              0.0000   ZZ=             -0.0000
   XY=             -0.0000   XZ=             -0.0000   YZ=             -0.0000

 Normal termination of Gaussian 16 at Thu Oct 14 01:01:48 2021.
