 Gaussian 16, Revision A.03,
 Gaussian 16:  ES64L-G16RevA.03 25-Dec-2016

 --------------------------------------------------------
 #p PBE1PBE/Def2SVP td=(nstates=5) density=(transition=1)
 --------------------------------------------------------

 --------------------------------
 TDDFT excited states in gaussian
 --------------------------------
 Symbolic Z-matrix:
 Charge =  0 Multiplicity = 1

                         Standard orientation:
 ---------------------------------------------------------------------
 Center     Atomic      Atomic             Coordinates (Angstroms)
 Number     Number       Type             X           Y           Z
 ---------------------------------------------------------------------
      1         12           0      -17.242369   -0.918418    0.155160
      2          6           0      -17.521010    2.360550   -1.029602
      3          6           0      -17.054700    0.456219    3.335278
      4          6           0      -16.554527   -3.908719    1.230449
      5          6           0      -17.229769   -2.030304   -3.207462
      6          7           0      -16.878331    1.241226    1.035087
      7          6           0      -17.200073    2.355144    0.369439
      8          6           0      -17.169185    3.488889    1.339140
      9          6           0      -16.581823    2.889933    2.640611
     10          6           0      -16.869582    1.427439    2.364730
     11          6           0      -15.122905    3.159701    3.013099
     12          6           0      -18.588315    4.098798    1.569230
     13          6           0      -18.771605    5.648094    1.476130
     14          1           0      -17.578538    6.579617    1.855939
     15          7           0      -16.997759   -1.665914    2.085231
     16          6           0      -17.150131   -0.927579    3.251339
     17          6           0      -17.043354   -1.851610    4.333163
     18          6           0      -16.760536   -3.153428    3.754519
     19          6           0      -16.766962   -2.981562    2.309422
     20          6           0      -17.085087   -1.462561    5.827150
     21          6           0      -16.431316   -4.504000    4.453156
     22          8           0      -16.193216   -5.519174    3.879444
     23          6           0      -16.490836   -4.499307    5.968023
     24          7           0      -16.956719   -2.682757   -0.871598
     25          6           0      -16.612186   -3.795523   -0.185719
     26          6           0      -16.407752   -5.049353   -1.079974
     27          6           0      -16.898481   -4.470420   -2.476019
     28          6           0      -17.074049   -2.981251   -2.203265
     29          6           0      -14.853063   -5.555055   -1.018005
     30          6           0      -18.124029   -5.229253   -3.075194
     31          6           0      -19.502521   -4.628362   -2.866298
     32          7           0      -17.389007   -0.075239   -1.792911
     33          6           0      -17.457898   -0.653035   -3.031847
     34          6           0      -17.651737    0.440366   -4.047831
     35          6           0      -17.681077    1.628757   -3.283581
     36          6           0      -17.476385    1.292681   -1.904391
     37          6           0      -17.620175    0.321368   -5.547377
     38          6           0      -17.811714    3.082222   -3.350165
     39          8           0      -17.959322    3.786103   -4.353329
     40          6           0      -17.873973    3.556649   -1.901338
     41          6           0      -16.871794    4.670192   -1.794898
     42          8           0      -15.666608    4.523169   -1.705893
     43          8           0      -17.548838    5.785856   -2.011540
     44          6           0      -16.805829    6.981399   -2.377803
     45          1           0      -16.851741    0.886555    4.317691
     46          1           0      -16.505334   -4.942126    1.578987
     47          1           0      -17.240926   -2.376305   -4.243433
     48          1           0      -16.532773    4.274874    0.933799
     49          1           0      -17.153669    3.330823    3.457237
     50          1           0      -14.565754    3.816541    2.344847
     51          1           0      -14.573306    2.220932    3.087511
     52          1           0      -15.145959    3.617936    4.001583
     53          1           0      -19.069886    3.748010    2.481755
     54          1           0      -19.115671    3.617300    0.745844
     55          1           0      -19.594723    5.845183    2.164117
     56          1           0      -19.079127    5.900149    0.461561
     57          1           0      -16.228672   -1.830554    6.392244
     58          1           0      -17.914533   -1.933979    6.354525
     59          1           0      -17.180281   -0.391894    6.012786
     60          1           0      -17.422367   -4.084281    6.353423
     61          1           0      -15.610491   -3.972511    6.336445
     62          1           0      -16.307947   -5.500920    6.357110
     63          1           0      -17.030337   -5.889045   -0.771579
     64          1           0      -16.160678   -4.587616   -3.269626
     65          1           0      -14.445754   -5.290490   -1.993908
     66          1           0      -14.749819   -6.640041   -0.990838
     67          1           0      -14.240290   -5.022217   -0.290015
     68          1           0      -18.157911   -6.156613   -2.503223
     69          1           0      -17.986512   -5.480918   -4.126592
     70          1           0      -19.496739   -4.316006   -1.821316
     71          1           0      -20.139783   -5.489322   -3.066794
     72          1           0      -19.805173   -3.725813   -3.396626
     73          1           0      -17.365565   -0.641364   -5.990677
     74          1           0      -16.891081    1.026704   -5.946406
     75          1           0      -18.591346    0.687224   -5.879166
     76          1           0      -18.798910    4.063598   -1.625686
     77          1           0      -15.733603    6.923401   -2.562318
     78          1           0      -16.900369    7.599912   -1.484748
     79          1           0      -17.453725    7.608010   -2.990862
     80         12           0       17.673422   -0.495608    0.243259
     81          6           0       15.117119    1.949331    0.198649
     82          6           0       19.839203    1.970671    0.236634
     83          6           0       19.867798   -2.755186   -0.762249
     84          6           0       15.098295   -2.843488   -0.452839
     85          7           0       17.389572    1.746465    0.398218
     86          6           0       16.349773    2.496280    0.451967
     87          6           0       16.732991    3.942178    0.828815
     88          6           0       18.274393    4.040347    0.364086
     89          6           0       18.537929    2.481767    0.243440
     90          6           0       18.559550    4.822322   -0.978816
     91          6           0       16.637017    4.162426    2.427929
     92          6           0       16.229259    5.553036    3.013646
     93          1           0       16.600274    6.809535    2.142777
     94          7           0       19.635874   -0.452433   -0.001382
     95          6           0       20.374611    0.716153    0.107359
     96          6           0       21.824736    0.379401   -0.116218
     97          6           0       21.819376   -1.054028   -0.379124
     98          6           0       20.442445   -1.554336   -0.413742
     99          6           0       22.895180    1.454045   -0.089658
    100          6           0       23.023899   -1.943908   -0.593560
    101          8           0       22.967884   -3.153137   -0.857057
    102          6           0       24.370402   -1.359869   -0.447577
    103          7           0       17.505924   -2.620392   -0.427103
    104          6           0       18.590718   -3.264426   -0.818039
    105          6           0       18.284956   -4.823027   -0.943449
    106          6           0       16.663514   -4.799403   -0.857125
    107          6           0       16.403108   -3.333570   -0.520685
    108          6           0       18.887866   -5.486083   -2.225808
    109          6           0       15.968168   -5.757488    0.164940
    110          6           0       15.165097   -6.898843   -0.404110
    111          7           0       15.492376   -0.551365    0.136168
    112          6           0       14.642268   -1.599300   -0.156300
    113          6           0       13.324247   -1.131794   -0.272187
    114          6           0       13.474966    0.264839   -0.180035
    115          6           0       14.789134    0.607886    0.033012
    116          6           0       12.121460   -1.893466   -0.521907
    117          6           0       12.693084    1.439308   -0.141883
    118          8           0       11.460738    1.706639   -0.148026
    119          6           0       13.770155    2.615027   -0.166906
    120          6           0       13.363050    3.706436    0.753658
    121          8           0       13.232364    3.654972    1.974885
    122          8           0       13.253932    4.898110   -0.030303
    123          6           0       12.848603    6.124322    0.668619
    124          1           0       20.517687    2.815535    0.375099
    125          1           0       20.613122   -3.505129   -1.032881
    126          1           0       14.306825   -3.584363   -0.588726
    127          1           0       16.224719    4.599416    0.123744
    128          1           0       18.815898    4.625933    1.106235
    129          1           0       17.646094    5.010152   -1.542692
    130          1           0       19.186031    4.242243   -1.656181
    131          1           0       19.020426    5.763600   -0.679539
    132          1           0       17.560420    3.854045    2.918411
    133          1           0       15.939332    3.425127    2.825573
    134          1           0       16.654617    5.756924    3.996821
    135          1           0       15.141187    5.605056    2.958521
    136          1           0       23.772532    1.146334    0.480397
    137          1           0       22.540793    2.402993    0.312904
    138          1           0       23.113702    1.768595   -1.109853
    139          1           0       24.515172   -0.527640   -1.137022
    140          1           0       25.126051   -2.123630   -0.631575
    141          1           0       24.619418   -0.991707    0.547689
    142          1           0       18.619807   -5.388183   -0.073712
    143          1           0       16.198997   -4.867932   -1.841910
    144          1           0       19.334782   -4.728823   -2.870205
    145          1           0       18.021726   -6.037391   -2.592375
    146          1           0       19.578006   -6.256444   -1.884227
    147          1           0       15.278926   -5.153673    0.755653
    148          1           0       16.713449   -6.152222    0.855768
    149          1           0       15.408774   -6.869172   -1.465282
    150          1           0       14.109405   -6.648721   -0.292766
    151          1           0       15.458008   -7.872507   -0.013277
    152          1           0       12.102943   -2.698157    0.212612
    153          1           0       12.119655   -2.501111   -1.426865
    154          1           0       11.248669   -1.253863   -0.389276
    155          1           0       13.835102    2.991987   -1.188084
    156          1           0       12.712404    6.943909   -0.037434
    157          1           0       13.689654    6.473251    1.268059
    158          1           0       11.893110    5.954349    1.163726
 ---------------------------------------------------------------------

 SCF Done:  E(RPBE1PBE) =  -4067.34262832     A.U. after   16 cycles

 Excitation energies and oscillator strengths:

 Excited State   1:      Singlet-A      1.8764 eV  660.76 nm  f=0.3863  <S**2>=0.000
     310 -> 316        0.18221
     312 -> 314        0.69073
     312 <- 314       -0.10330
 This state for optimization and/or second-order correction.
 Total Energy, E(TD-HF/TD-DFT) =  -4067.27367194
 Copying the excited state density for this state as the 1-particle RhoCI density.

 Excited State   2:      Singlet-A      1.9348 eV  640.81 nm  f=0.0000  <S**2>=0.000
     312 -> 313        0.70710

 Excited State   3:      Singlet-A      1.9488 eV  636.20 nm  f=0.3532  <S**2>=0.000
     309 -> 315        0.20423
     311 -> 313        0.68089

 Excited State   4:      Singlet-A      2.1737 eV  570.39 nm  f=0.0000  <S**2>=0.000
     311 -> 314        0.70711

 Excited State   5:      Singlet-A      2.2077 eV  561.61 nm  f=0.0888  <S**2>=0.000
     310 -> 314        0.65445
     312 -> 316       -0.25256

 The electronic state is 1-A.
 Alpha  occ. eigenvalues --  -46.92778 -46.92128 -19.26755 -19.24607 -19.20393
 Alpha  occ. eigenvalues --  -19.19699 -19.19340 -19.19169 -19.18936 -19.18750
 Alpha  occ. eigenvalues --  -14.41645 -14.41338 -14.41139 -14.40931 -14.39652
 Alpha  occ. eigenvalues --  -14.38826 -14.38481 -14.38288 -10.36284 -10.35976
 Alpha  occ. eigenvalues --  -10.32346 -10.32194 -10.31743 -10.31652 -10.29234
 Alpha  occ. eigenvalues --  -10.29159 -10.28786 -10.28653 -10.28628 -10.28616
 Alpha  occ. eigenvalues --  -10.28391 -10.28386 -10.28333 -10.28295 -10.28059
 Alpha  occ. eigenvalues --  -10.28055 -10.27917 -10.27564 -10.27401 -10.26898
 Alpha  occ. eigenvalues --  -10.26893 -10.26831 -10.26778 -10.26705 -10.26503
 Alpha  occ. eigenvalues --  -10.26478 -10.26281 -10.26262 -10.26147 -10.26062
 Alpha  occ. eigenvalues --  -10.26060 -10.25947 -10.25818 -10.25703 -10.25476
 Alpha  occ. eigenvalues --  -10.25474 -10.25416 -10.25398 -10.25354 -10.25116
 Alpha  occ. eigenvalues --  -10.25091 -10.24828 -10.24784 -10.24663 -10.24613
 Alpha  occ. eigenvalues --  -10.24274 -10.24266 -10.24236 -10.24181 -10.23955
 Alpha  occ. eigenvalues --  -10.23904 -10.23877 -10.23851 -10.23724 -10.23706
 Alpha  occ. eigenvalues --  -10.23617 -10.23482 -10.23338 -10.23289 -10.23237
 Alpha  occ. eigenvalues --  -10.23057 -10.22841 -10.22836 -10.22586 -10.22415
 Alpha  occ. eigenvalues --  -10.22378  -3.14815  -3.14168  -1.87658  -1.87198
 Alpha  occ. eigenvalues --   -1.87024  -1.87016  -1.86577  -1.86350  -1.12971
 Alpha  occ. eigenvalues --   -1.08668  -1.06243  -1.04088  -1.04068  -1.03298
 Alpha  occ. eigenvalues --   -1.02024  -1.01527  -1.00425  -0.99848  -0.99547
 Alpha  occ. eigenvalues --   -0.98346  -0.98217  -0.97127  -0.96636  -0.96075
 Alpha  occ. eigenvalues --   -0.87518  -0.87358  -0.83822  -0.82971  -0.82927
 Alpha  occ. eigenvalues --   -0.82809  -0.82355  -0.82183  -0.81894  -0.81632
 Alpha  occ. eigenvalues --   -0.81373  -0.81107  -0.80380  -0.79807  -0.78695
 Alpha  occ. eigenvalues --   -0.78582  -0.78256  -0.77936  -0.76990  -0.76829
 Alpha  occ. eigenvalues --   -0.76220  -0.75777  -0.75690  -0.75062  -0.75008
 Alpha  occ. eigenvalues --   -0.74251  -0.73265  -0.72188  -0.72040  -0.71559
 Alpha  occ. eigenvalues --   -0.71281  -0.71263  -0.70545  -0.70212  -0.69569
 Alpha  occ. eigenvalues --   -0.69451  -0.67694  -0.67033  -0.66734  -0.66138
 Alpha  occ. eigenvalues --   -0.63821  -0.63398  -0.63260  -0.62937  -0.62328
 Alpha  occ. eigenvalues --   -0.62303  -0.61612  -0.60571  -0.60421  -0.60081
 Alpha  occ. eigenvalues --   -0.60017  -0.59671  -0.59398  -0.59149  -0.59124
 Alpha  occ. eigenvalues --   -0.58822  -0.57251  -0.55817  -0.55067  -0.54718
 Alpha  occ. eigenvalues --   -0.54354  -0.54143  -0.53897  -0.53712  -0.53053
 Alpha  occ. eigenvalues --   -0.53023  -0.52327  -0.52307  -0.51866  -0.51817
 Alpha  occ. eigenvalues --   -0.51479  -0.51341  -0.50529  -0.50333  -0.49991
 Alpha  occ. eigenvalues --   -0.49435  -0.49332  -0.49155  -0.48822  -0.48541
 Alpha  occ. eigenvalues --   -0.48102  -0.48084  -0.47784  -0.47726  -0.47528
 Alpha  occ. eigenvalues --   -0.47403  -0.47156  -0.47066  -0.47013  -0.46648
 Alpha  occ. eigenvalues --   -0.46470  -0.46230  -0.46085  -0.45863  -0.45716
 Alpha  occ. eigenvalues --   -0.45696  -0.45489  -0.45445  -0.45055  -0.44973
 Alpha  occ. eigenvalues --   -0.44605  -0.44470  -0.44234  -0.44227  -0.43913
 Alpha  occ. eigenvalues --   -0.43761  -0.43732  -0.43418  -0.43414  -0.43252
 Alpha  occ. eigenvalues --   -0.43222  -0.43029  -0.43021  -0.42769  -0.42641
 Alpha  occ. eigenvalues --   -0.42605  -0.42460  -0.42294  -0.42005  -0.41878
 Alpha  occ. eigenvalues --   -0.41652  -0.41522  -0.41503  -0.41089  -0.41058
 Alpha  occ. eigenvalues --   -0.40882  -0.40801  -0.40654  -0.40569  -0.40328
 Alpha  occ. eigenvalues --   -0.40293  -0.40214  -0.40136  -0.39885  -0.39722
 Alpha  occ. eigenvalues --   -0.39639  -0.39517  -0.39130  -0.38981  -0.38777
 Alpha  occ. eigenvalues --   -0.38724  -0.38430  -0.38392  -0.38128  -0.38080
 Alpha  occ. eigenvalues --   -0.37992  -0.37876  -0.37778  -0.37660  -0.37496
 Alpha  occ. eigenvalues --   -0.37481  -0.36973  -0.36759  -0.36630  -0.36464
 Alpha  occ. eigenvalues --   -0.36459  -0.36364  -0.36046  -0.35957  -0.35944
 Alpha  occ. eigenvalues --   -0.35855  -0.35637  -0.35512  -0.35507  -0.35260
 Alpha  occ. eigenvalues --   -0.35090  -0.35000  -0.34489  -0.34227  -0.33961
 Alpha  occ. eigenvalues --   -0.33485  -0.33227  -0.32866  -0.32428  -0.32128
 Alpha  occ. eigenvalues --   -0.32082  -0.31677  -0.31548  -0.31266  -0.31138
 Alpha  occ. eigenvalues --   -0.31029  -0.30666  -0.29779  -0.29397  -0.29048
 Alpha  occ. eigenvalues --   -0.28941  -0.28779  -0.28479  -0.27409  -0.26432
 Alpha  occ. eigenvalues --   -0.26036  -0.25966  -0.25936  -0.25359  -0.25322
 Alpha  occ. eigenvalues --   -0.25279  -0.25002  -0.24687  -0.21099  -0.20667
 Alpha  occ. eigenvalues --   -0.19300  -0.18656
 Alpha virt. eigenvalues --   -0.11161  -0.10931  -0.06056  -0.04958  -0.04412
 Alpha virt. eigenvalues --   -0.03894  -0.02133  -0.01566  -0.00532  -0.00019
 Alpha virt. eigenvalues --    0.00059   0.01133   0.01166   0.01271   0.01422

 Mulliken charges:
               1
     1  Mg  11.998407
     2  C    5.992563
     3  C    6.016852
     4  C    6.008814
     5  C    5.979999
     6  N    7.003963
     7  C    6.026025
     8  C    5.994567
     9  C    6.009455
    10  C    5.961550
    11  C    6.000204
    12  C    5.998075
    13  C    5.998607
    14  H    1.004692
    15  N    7.008002
    16  C    5.957366
    17  C    5.985639
    18  C    5.983100
    19  C    5.972539
    20  C    6.002666
    21  C    5.986305
    22  O    7.974912
    23  C    6.005946
    24  N    6.994321
    25  C    5.969690
    26  C    6.009577
    27  C    5.990337
    28  C    6.034027
    29  C    6.005896
    30  C    5.998620
    31  C    5.993423
    32  N    6.998027
    33  C    6.038136
    34  C    6.030205
    35  C    6.002656
    36  C    6.026714
    37  C    5.997743
    38  C    6.018435
    39  O    8.028948
    40  C    5.996311
    41  C    6.005800
    42  O    8.007523
    43  O    8.000316
    44  C    5.995525
    45  H    0.990722
    46  H    0.993113
    47  H    1.005925
    48  H    1.000928
    49  H    0.997871
    50  H    0.987325
    51  H    1.004404
    52  H    0.998050
    53  H    1.013062
    54  H    0.993544
    55  H    1.004239
    56  H    0.994952
    57  H    0.984198
    58  H    0.982947
    59  H    0.982930
    60  H    0.993912
    61  H    0.991887
    62  H    0.985615
    63  H    0.999325
    64  H    1.000861
    65  H    0.988189
    66  H    0.996402
    67  H    1.003298
    68  H    1.009987
    69  H    0.999970
    70  H    1.009655
    71  H    1.004635
    72  H    0.992427
    73  H    1.018829
    74  H    1.016702
    75  H    1.017087
    76  H    1.010273
    77  H    1.003662
    78  H    1.007054
    79  H    1.003546
    80  Mg  12.000035
    81  C    5.999919
    82  C    6.000007
    83  C    6.000039
    84  C    6.000028
    85  N    6.999919
    86  C    6.000079
    87  C    5.999968
    88  C    6.000047
    89  C    5.999919
    90  C    6.000007
    91  C    5.999987
    92  C    6.000015
    93  H    0.999925
    94  N    7.000072
    95  C    5.999898
    96  C    5.999857
    97  C    5.999993
    98  C    5.999938
    99  C    6.000015
   100  C    5.999981
   101  O    7.999932
   102  C    6.000015
   103  N    7.000054
   104  C    5.999890
   105  C    6.000031
   106  C    5.999966
   107  C    6.000081
   108  C    5.999994
   109  C    5.999975
   110  C    6.000010
   111  N    6.999924
   112  C    6.000073
   113  C    6.000148
   114  C    5.999988
   115  C    6.000159
   116  C    5.999995
   117  C    6.000079
   118  O    8.000010
   119  C    6.000008
   120  C    6.000019
   121  O    8.000071
   122  O    7.999968
   123  C    6.000005
   124  H    0.999965
   125  H    0.999991
   126  H    1.000068
   127  H    0.999945
   128  H    0.999988
   129  H    0.999919
   130  H    0.999979
   131  H    0.999962
   132  H    1.000048
   133  H    1.000040
   134  H    1.000045
   135  H    1.000009
   136  H    0.999970
   137  H    0.999959
   138  H    0.999911
   139  H    0.999953
   140  H    0.999964
   141  H    1.000000
   142  H    1.000042
   143  H    0.999956
   144  H    0.999965
   145  H    0.999980
   146  H    1.000020
   147  H    1.000046
   148  H    1.000068
   149  H    0.999950
   150  H    1.000038
   151  H    1.000065
   152  H    1.000144
   153  H    1.000013
   154  H    1.000055
   155  H    0.999929
   156  H    0.999914
   157  H    1.000023
   158  H    1.000033
 Sum of Mulliken charges = 624.00000

 Dipole moment (field-independent basis, Debye):
    X=             -1.2855    Y=              4.8024    Z=             -9.1574  Tot=             10.4199
 Quadrupole moment (field-independent basis, Debye-Ang):
   XX=             41.9610   YY=             -3.2762   ZZ=             -4.0143
   XY=            -81.4650   XZ=            157.9112   YZ=              7.4975

 Normal termination of Gaussian 16 at Fri Oct 15 18:00:02 2021.
