 Gaussian 16, Revision A.03,
 Gaussian 16:  ES64L-G16RevA.03 25-Dec-2016

 --------------------------------------------------------
 #p PBE1PBE/Def2SVP td=(nstates=5) density=(transition=1)
 --------------------------------------------------------

 --------------------------------
 TDDFT excited states in gaussian
 --------------------------------
 Symbolic Z-matrix:
 Charge =  0 Multiplicity = 1

                         Standard orientation:
 ---------------------------------------------------------------------
 Center     Atomic      Atomic             Coordinates (Angstroms)
 Number     Number       Type             X           Y           Z
 ---------------------------------------------------------------------
      1         12           0       12.635975    0.307499    0.507459
      2          6           0        9.410506   -0.608676   -0.454362
      3          6           0       13.019032    1.972246   -2.348895
      4          6           0       16.014009   -0.022487    0.913779
      5          6           0       12.204911   -1.490422    3.460073
      6          7           0       11.277958    0.784264   -1.154140
      7          6           0       10.042960    0.322213   -1.307366
      8          6           0        9.393919    1.008065   -2.563590
      9          6           0       10.604291    1.731745   -3.200781
     10          6           0       11.728817    1.476831   -2.201605
     11          6           0       11.081869    1.099996   -4.601262
     12          6           0        8.199741    2.018327   -2.246352
     13          6           0        7.074213    1.885789   -3.214096
     14          1           0        6.532538    3.126119   -3.907934
     15          7           0       14.273993    0.921570   -0.568182
     16          6           0       14.228508    1.632277   -1.738235
     17          6           0       15.569818    2.164897   -2.015260
     18          6           0       16.435842    1.573137   -1.053834
     19          6           0       15.564440    0.737681   -0.210938
     20          6           0       15.888814    3.081772   -3.239033
     21          6           0       17.985339    1.691045   -0.935675
     22          8           0       18.652732    1.145070   -0.064268
     23          6           0       18.694758    2.537928   -1.923484
     24          7           0       13.897076   -0.614650    1.903344
     25          6           0       15.292227   -0.695346    1.861289
     26          6           0       15.788805   -1.670367    2.960682
     27          6           0       14.646518   -1.570375    4.064318
     28          6           0       13.524265   -1.184965    3.059270
     29          6           0       16.099033   -3.084850    2.425573
     30          6           0       14.809181   -0.522866    5.128862
     31          6           0       14.500043    0.918310    4.851265
     32          7           0       11.099762   -0.664446    1.487768
     33          6           0       11.060006   -1.385899    2.658482
     34          6           0        9.731392   -1.948015    2.911784
     35          6           0        9.036544   -1.754561    1.634031
     36          6           0        9.945619   -0.973404    0.819376
     37          6           0        9.335021   -2.739722    4.050262
     38          6           0        7.822406   -2.030429    0.875692
     39          8           0        6.871875   -2.678628    1.107985
     40          6           0        8.000137   -1.210033   -0.506153
     41          6           0        7.683558   -2.006335   -1.746814
     42          8           0        8.499165   -2.643439   -2.406781
     43          8           0        6.339451   -1.815228   -2.065411
     44          6           0        5.822635   -2.484667   -3.272828
     45          1           0       13.267748    2.700044   -3.124542
     46          1           0       17.102043   -0.101624    0.969716
     47          1           0       12.109441   -1.954167    4.443715
     48          1           0        9.045068    0.279149   -3.295511
     49          1           0       10.471711    2.790252   -3.424505
     50          1           0       10.559540    1.647336   -5.386185
     51          1           0       10.809181    0.056931   -4.759668
     52          1           0       12.155012    1.270469   -4.694955
     53          1           0        8.530350    3.056599   -2.278996
     54          1           0        7.771431    1.940854   -1.246928
     55          1           0        6.248819    1.554795   -2.584396
     56          1           0        7.169921    1.149777   -4.011868
     57          1           0       16.159064    2.405534   -4.049576
     58          1           0       16.653974    3.820538   -2.999371
     59          1           0       15.007934    3.529083   -3.700764
     60          1           0       18.421721    2.537512   -2.978616
     61          1           0       19.759281    2.305551   -1.906816
     62          1           0       18.792311    3.547463   -1.523184
     63          1           0       16.689471   -1.186134    3.336975
     64          1           0       14.475621   -2.520228    4.570636
     65          1           0       15.604739   -3.916429    2.927855
     66          1           0       17.161455   -3.267144    2.262374
     67          1           0       15.741681   -3.178437    1.400229
     68          1           0       15.810231   -0.469638    5.555133
     69          1           0       14.174230   -0.806021    5.968487
     70          1           0       13.474930    1.006108    5.210731
     71          1           0       14.490930    1.210349    3.800926
     72          1           0       15.181966    1.548466    5.423129
     73          1           0        8.297643   -2.470497    4.249750
     74          1           0        9.953702   -2.424453    4.890099
     75          1           0        9.406360   -3.800995    3.814172
     76          1           0        7.295853   -0.378780   -0.472600
     77          1           0        6.081343   -3.540176   -3.184503
     78          1           0        6.313397   -2.103419   -4.167934
     79          1           0        4.760063   -2.424745   -3.508886
     80         12           0      -12.214725   -0.412217   -0.506797
     81          6           0      -11.922564    2.881711    0.725704
     82          6           0       -8.811167   -0.367423   -1.269341
     83          6           0      -12.335960   -3.812659   -0.698309
     84          6           0      -15.535967   -0.399413    0.834487
     85          7           0      -10.619559    1.081617   -0.321267
     86          6           0      -10.719569    2.313444    0.221799
     87          6           0       -9.319798    3.004224    0.309244
     88          6           0       -8.480234    2.070130   -0.678333
     89          6           0       -9.376933    0.797986   -0.822115
     90          6           0       -8.137939    2.537065   -2.111343
     91          6           0       -8.830008    2.975513    1.806411
     92          6           0       -8.034226    4.238895    2.236845
     93          1           0       -6.777855    3.972492    3.162163
     94          7           0      -10.793979   -1.917558   -1.136409
     95          6           0       -9.487425   -1.638766   -1.438404
     96          6           0       -8.901050   -2.854652   -1.857911
     97          6           0       -9.835456   -3.913696   -1.656807
     98          6           0      -11.095814   -3.247124   -1.186583
     99          6           0       -7.479098   -3.007832   -2.343750
    100          6           0       -9.561086   -5.376606   -1.739599
    101          8           0       -8.438325   -5.812575   -1.937299
    102          6           0      -10.541154   -6.410929   -1.533519
    103          7           0      -13.738140   -1.899319    0.122147
    104          6           0      -13.560164   -3.240467   -0.248364
    105          6           0      -14.819278   -4.018985   -0.027375
    106          6           0      -15.847975   -2.965677    0.527839
    107          6           0      -15.033257   -1.683854    0.508090
    108          6           0      -15.237494   -4.677146   -1.348428
    109          6           0      -16.575116   -3.424056    1.847762
    110          6           0      -18.072748   -3.469308    1.815448
    111          7           0      -13.548766    0.964569    0.551299
    112          6           0      -14.852722    0.813802    0.954915
    113          6           0      -15.396436    2.102928    1.435814
    114          6           0      -14.219423    2.897013    1.405377
    115          6           0      -13.191637    2.201081    0.797058
    116          6           0      -16.767895    2.421413    2.010312
    117          6           0      -13.694795    4.163693    1.841792
    118          8           0      -14.247350    5.080834    2.469003
    119          6           0      -12.225638    4.259801    1.431296
    120          6           0      -11.978305    5.455951    0.604762
    121          8           0      -11.212016    6.293866    0.916667
    122          8           0      -12.562566    5.400446   -0.627529
    123          6           0      -12.065529    6.492630   -1.492166
    124          1           0       -7.767497   -0.363427   -1.592006
    125          1           0      -12.331896   -4.889792   -0.872492
    126          1           0      -16.496160   -0.215956    1.322300
    127          1           0       -9.426282    4.029048   -0.046849
    128          1           0       -7.634357    1.554506   -0.223955
    129          1           0       -8.872829    3.263897   -2.459267
    130          1           0       -8.036254    1.755821   -2.864683
    131          1           0       -7.186631    3.061605   -2.028648
    132          1           0       -8.253549    2.072170    2.007843
    133          1           0       -9.747378    2.904906    2.390911
    134          1           0       -8.777812    4.833514    2.767805
    135          1           0       -7.818685    4.720463    1.282788
    136          1           0       -7.270812   -3.880894   -2.962332
    137          1           0       -6.901163   -3.050252   -1.420949
    138          1           0       -7.007308   -2.118024   -2.760638
    139          1           0      -11.304986   -6.276564   -2.300492
    140          1           0      -10.945052   -6.375575   -0.521323
    141          1           0      -10.053262   -7.377527   -1.659361
    142          1           0      -14.696168   -4.721276    0.796736
    143          1           0      -16.603768   -2.586317   -0.160237
    144          1           0      -14.445291   -4.681482   -2.097484
    145          1           0      -16.073999   -4.154771   -1.812632
    146          1           0      -15.343843   -5.751447   -1.200825
    147          1           0      -16.230264   -2.720461    2.605486
    148          1           0      -16.376191   -4.458407    2.125817
    149          1           0      -18.428895   -2.857041    2.643497
    150          1           0      -18.452513   -4.475965    1.991134
    151          1           0      -18.489576   -3.213610    0.841247
    152          1           0      -16.851085    2.167184    3.067175
    153          1           0      -17.586655    1.984286    1.437391
    154          1           0      -16.754389    3.510750    1.977017
    155          1           0      -11.612048    4.452509    2.310397
    156          1           0      -12.561833    6.400573   -2.458597
    157          1           0      -10.983345    6.431657   -1.606494
    158          1           0      -12.370120    7.489752   -1.176126
 ---------------------------------------------------------------------

 SCF Done:  E(RPBE1PBE) =  -4067.36139856     A.U. after   17 cycles

 Excitation energies and oscillator strengths:

 Excited State   1:      Singlet-A      1.6653 eV  744.50 nm  f=0.0000  <S**2>=0.000
     312 -> 313        0.70710
 This state for optimization and/or second-order correction.
 Total Energy, E(TD-HF/TD-DFT) =  -4067.30019823
 Copying the excited state density for this state as the 1-particle RhoCI density.

 Excited State   2:      Singlet-A      1.8394 eV  674.06 nm  f=0.4457  <S**2>=0.000
     310 -> 316        0.16417
     311 -> 313        0.19290
     312 -> 314        0.66720
     312 <- 314       -0.10869

 Excited State   3:      Singlet-A      1.8475 eV  671.10 nm  f=0.3176  <S**2>=0.000
     309 -> 315        0.16228
     311 -> 313        0.66682
     312 -> 314       -0.19279
     311 <- 313       -0.10878

 Excited State   4:      Singlet-A      2.1135 eV  586.64 nm  f=0.0000  <S**2>=0.000
     311 -> 314        0.70709

 Excited State   5:      Singlet-A      2.2122 eV  560.45 nm  f=0.1086  <S**2>=0.000
     309 -> 313        0.65174
     311 -> 315       -0.25480

 The electronic state is 1-A.
 Alpha  occ. eigenvalues --  -46.94168 -46.91310 -19.25694 -19.25585 -19.20198
 Alpha  occ. eigenvalues --  -19.20092 -19.19729 -19.19439 -19.18961 -19.17591
 Alpha  occ. eigenvalues --  -14.42393 -14.42270 -14.41603 -14.40998 -14.39560
 Alpha  occ. eigenvalues --  -14.38900 -14.38884 -14.38855 -10.36582 -10.35691
 Alpha  occ. eigenvalues --  -10.32811 -10.32500 -10.31806 -10.30655 -10.29900
 Alpha  occ. eigenvalues --  -10.29646 -10.29626 -10.29017 -10.28987 -10.28929
 Alpha  occ. eigenvalues --  -10.28871 -10.28773 -10.28367 -10.28267 -10.27800
 Alpha  occ. eigenvalues --  -10.27769 -10.27648 -10.27626 -10.27329 -10.27199
 Alpha  occ. eigenvalues --  -10.27101 -10.26838 -10.26823 -10.26818 -10.26594
 Alpha  occ. eigenvalues --  -10.26555 -10.26263 -10.26257 -10.26243 -10.26208
 Alpha  occ. eigenvalues --  -10.26079 -10.26069 -10.25994 -10.25940 -10.25914
 Alpha  occ. eigenvalues --  -10.25792 -10.25732 -10.25717 -10.25535 -10.25492
 Alpha  occ. eigenvalues --  -10.25362 -10.25285 -10.25019 -10.24956 -10.24890
 Alpha  occ. eigenvalues --  -10.24554 -10.24485 -10.24442 -10.24379 -10.24358
 Alpha  occ. eigenvalues --  -10.24289 -10.24010 -10.23890 -10.23765 -10.23698
 Alpha  occ. eigenvalues --  -10.23442 -10.23402 -10.23141 -10.23135 -10.23126
 Alpha  occ. eigenvalues --  -10.23078 -10.23019 -10.23005 -10.22784 -10.22610
 Alpha  occ. eigenvalues --  -10.21927  -3.15907  -3.13587  -1.88759  -1.88260
 Alpha  occ. eigenvalues --   -1.88122  -1.86432  -1.85938  -1.85839  -1.12703
 Alpha  occ. eigenvalues --   -1.09794  -1.07592  -1.04922  -1.04329  -1.03848
 Alpha  occ. eigenvalues --   -1.03569  -1.02166  -0.99769  -0.99707  -0.98371
 Alpha  occ. eigenvalues --   -0.98189  -0.97997  -0.97550  -0.97238  -0.96772
 Alpha  occ. eigenvalues --   -0.86909  -0.86110  -0.83679  -0.83334  -0.83293
 Alpha  occ. eigenvalues --   -0.82832  -0.82528  -0.82343  -0.82320  -0.81405
 Alpha  occ. eigenvalues --   -0.81243  -0.81215  -0.80581  -0.80183  -0.79140
 Alpha  occ. eigenvalues --   -0.78903  -0.78432  -0.77828  -0.76985  -0.76794
 Alpha  occ. eigenvalues --   -0.76715  -0.76047  -0.75255  -0.75196  -0.74894
 Alpha  occ. eigenvalues --   -0.74690  -0.72968  -0.72550  -0.71875  -0.71531
 Alpha  occ. eigenvalues --   -0.71164  -0.71014  -0.70761  -0.70073  -0.69783
 Alpha  occ. eigenvalues --   -0.69204  -0.67571  -0.66958  -0.66659  -0.65894
 Alpha  occ. eigenvalues --   -0.63761  -0.63607  -0.63569  -0.62909  -0.62388
 Alpha  occ. eigenvalues --   -0.62080  -0.61297  -0.61126  -0.60742  -0.60124
 Alpha  occ. eigenvalues --   -0.60104  -0.59563  -0.59192  -0.59151  -0.58772
 Alpha  occ. eigenvalues --   -0.58526  -0.57807  -0.56333  -0.54728  -0.54648
 Alpha  occ. eigenvalues --   -0.54527  -0.54073  -0.53556  -0.53466  -0.53419
 Alpha  occ. eigenvalues --   -0.52832  -0.52732  -0.52279  -0.51637  -0.51593
 Alpha  occ. eigenvalues --   -0.50983  -0.50590  -0.50415  -0.50144  -0.50044
 Alpha  occ. eigenvalues --   -0.49792  -0.49611  -0.49299  -0.49087  -0.48568
 Alpha  occ. eigenvalues --   -0.48182  -0.48149  -0.47964  -0.47897  -0.47750
 Alpha  occ. eigenvalues --   -0.47447  -0.47377  -0.47057  -0.47033  -0.46849
 Alpha  occ. eigenvalues --   -0.46701  -0.46282  -0.46209  -0.46136  -0.45993
 Alpha  occ. eigenvalues --   -0.45861  -0.45854  -0.45720  -0.45543  -0.44963
 Alpha  occ. eigenvalues --   -0.44723  -0.44688  -0.44596  -0.44489  -0.44191
 Alpha  occ. eigenvalues --   -0.44139  -0.44108  -0.43870  -0.43802  -0.43654
 Alpha  occ. eigenvalues --   -0.43251  -0.43220  -0.43057  -0.42955  -0.42766
 Alpha  occ. eigenvalues --   -0.42629  -0.42420  -0.42225  -0.41967  -0.41634
 Alpha  occ. eigenvalues --   -0.41628  -0.41543  -0.41402  -0.41374  -0.41304
 Alpha  occ. eigenvalues --   -0.41060  -0.40995  -0.40977  -0.40769  -0.40478
 Alpha  occ. eigenvalues --   -0.40412  -0.40198  -0.39904  -0.39785  -0.39776
 Alpha  occ. eigenvalues --   -0.39668  -0.39636  -0.39456  -0.39444  -0.39127
 Alpha  occ. eigenvalues --   -0.39126  -0.38927  -0.38812  -0.38552  -0.38436
 Alpha  occ. eigenvalues --   -0.38203  -0.38158  -0.38064  -0.37833  -0.37672
 Alpha  occ. eigenvalues --   -0.37638  -0.37488  -0.37481  -0.37041  -0.36726
 Alpha  occ. eigenvalues --   -0.36606  -0.36384  -0.36288  -0.36160  -0.36127
 Alpha  occ. eigenvalues --   -0.35987  -0.35903  -0.35563  -0.35374  -0.35146
 Alpha  occ. eigenvalues --   -0.34995  -0.34545  -0.34128  -0.34016  -0.33616
 Alpha  occ. eigenvalues --   -0.33600  -0.32971  -0.32861  -0.32664  -0.32530
 Alpha  occ. eigenvalues --   -0.32212  -0.31924  -0.31910  -0.31600  -0.31408
 Alpha  occ. eigenvalues --   -0.31407  -0.30917  -0.29790  -0.29498  -0.29328
 Alpha  occ. eigenvalues --   -0.29214  -0.29028  -0.28335  -0.27114  -0.26773
 Alpha  occ. eigenvalues --   -0.26194  -0.25993  -0.25952  -0.25688  -0.25644
 Alpha  occ. eigenvalues --   -0.25121  -0.25024  -0.24569  -0.21423  -0.20882
 Alpha  occ. eigenvalues --   -0.19222  -0.18410
 Alpha virt. eigenvalues --   -0.11756  -0.10911  -0.05730  -0.04881  -0.03876
 Alpha virt. eigenvalues --   -0.03810  -0.01976  -0.01905  -0.01507  -0.00133
 Alpha virt. eigenvalues --    0.00182   0.00611   0.01320   0.01432   0.01447

 Mulliken charges:
               1
     1  Mg  12.000000
     2  C    6.000000
     3  C    6.000000
     4  C    6.000000
     5  C    6.000000
     6  N    7.000000
     7  C    6.000000
     8  C    6.000000
     9  C    6.000000
    10  C    6.000000
    11  C    6.000000
    12  C    6.000000
    13  C    6.000000
    14  H    1.000000
    15  N    7.000000
    16  C    6.000000
    17  C    6.000000
    18  C    6.000000
    19  C    6.000000
    20  C    6.000000
    21  C    6.000000
    22  O    8.000000
    23  C    6.000000
    24  N    7.000000
    25  C    6.000000
    26  C    6.000000
    27  C    6.000000
    28  C    6.000000
    29  C    6.000000
    30  C    6.000000
    31  C    6.000000
    32  N    7.000000
    33  C    6.000000
    34  C    6.000000
    35  C    6.000000
    36  C    6.000000
    37  C    6.000000
    38  C    6.000000
    39  O    8.000000
    40  C    6.000000
    41  C    6.000000
    42  O    8.000000
    43  O    8.000000
    44  C    6.000000
    45  H    1.000000
    46  H    1.000000
    47  H    1.000000
    48  H    1.000000
    49  H    1.000000
    50  H    1.000000
    51  H    1.000000
    52  H    1.000000
    53  H    1.000000
    54  H    1.000000
    55  H    1.000000
    56  H    1.000000
    57  H    1.000000
    58  H    1.000000
    59  H    1.000000
    60  H    1.000000
    61  H    1.000000
    62  H    1.000000
    63  H    1.000000
    64  H    1.000000
    65  H    1.000000
    66  H    1.000000
    67  H    1.000000
    68  H    1.000000
    69  H    1.000000
    70  H    1.000000
    71  H    1.000000
    72  H    1.000000
    73  H    1.000000
    74  H    1.000000
    75  H    1.000000
    76  H    1.000000
    77  H    1.000000
    78  H    1.000000
    79  H    1.000000
    80  Mg  12.000000
    81  C    6.000000
    82  C    6.000000
    83  C    6.000000
    84  C    6.000000
    85  N    7.000000
    86  C    6.000000
    87  C    6.000000
    88  C    6.000000
    89  C    6.000000
    90  C    6.000000
    91  C    6.000000
    92  C    6.000000
    93  H    1.000000
    94  N    7.000000
    95  C    6.000000
    96  C    6.000000
    97  C    6.000000
    98  C    6.000000
    99  C    6.000000
   100  C    6.000000
   101  O    8.000000
   102  C    6.000000
   103  N    7.000000
   104  C    6.000000
   105  C    6.000000
   106  C    6.000000
   107  C    6.000000
   108  C    6.000000
   109  C    6.000000
   110  C    6.000000
   111  N    7.000000
   112  C    6.000000
   113  C    6.000000
   114  C    6.000000
   115  C    6.000000
   116  C    6.000000
   117  C    6.000000
   118  O    8.000000
   119  C    6.000000
   120  C    6.000000
   121  O    8.000000
   122  O    8.000000
   123  C    6.000000
   124  H    1.000000
   125  H    1.000000
   126  H    1.000000
   127  H    1.000000
   128  H    1.000000
   129  H    1.000000
   130  H    1.000000
   131  H    1.000000
   132  H    1.000000
   133  H    1.000000
   134  H    1.000000
   135  H    1.000000
   136  H    1.000000
   137  H    1.000000
   138  H    1.000000
   139  H    1.000000
   140  H    1.000000
   141  H    1.000000
   142  H    1.000000
   143  H    1.000000
   144  H    1.000000
   145  H    1.000000
   146  H    1.000000
   147  H    1.000000
   148  H    1.000000
   149  H    1.000000
   150  H    1.000000
   151  H    1.000000
   152  H    1.000000
   153  H    1.000000
   154  H    1.000000
   155  H    1.000000
   156  H    1.000000
   157  H    1.000000
   158  H    1.000000
 Sum of Mulliken charges = 624.00000

 Dipole moment (field-independent basis, Debye):
    X=              0.0000    Y=              0.0000    Z=             -0.0000  Tot=              0.0000
 Quadrupole moment (field-independent basis, Debye-Ang):
   XX=              0.0000   YY=              0.0000   ZZ=              0.0000
   XY=              0.0000   XZ=             -0.0000   YZ=             -0.0000

 Normal termination of Gaussian 16 at Thu Oct 14 02:39:49 2021.
