 Gaussian 16, Revision A.03,
 Gaussian 16:  ES64L-G16RevA.03 25-Dec-2016

 --------------------------------------------------------
 #p PBE1PBE/Def2SVP td=(nstates=5) density=(transition=1)
 --------------------------------------------------------

 --------------------------------
 TDDFT excited states in gaussian
 --------------------------------
 Symbolic Z-matrix:
 Charge =  0 Multiplicity = 1

                         Standard orientation:
 ---------------------------------------------------------------------
 Center     Atomic      Atomic             Coordinates (Angstroms)
 Number     Number       Type             X           Y           Z
 ---------------------------------------------------------------------
      1         12           0       16.691525    0.597110   -0.040792
      2          6           0       15.606117   -2.267128    1.637607
      3          6           0       13.850129    2.205398    1.237607
      4          6           0       17.279620    3.236988   -2.011621
      5          6           0       18.752020   -1.382436   -1.958881
      6          7           0       14.928147    0.069741    1.408966
      7          6           0       14.745928   -1.197223    1.867253
      8          6           0       13.430346   -1.287794    2.737798
      9          6           0       12.744358    0.124940    2.376246
     10          6           0       13.856453    0.845495    1.595692
     11          6           0       11.567896   -0.169313    1.379072
     12          6           0       13.869718   -1.332399    4.247436
     13          6           0       12.747528   -1.290118    5.320150
     14          1           0       12.685459   -0.492794    6.588919
     15          7           0       15.817503    2.492819   -0.174157
     16          6           0       14.672531    3.016513    0.449121
     17          6           0       14.496173    4.329675   -0.010687
     18          6           0       15.573943    4.710242   -0.798992
     19          6           0       16.286455    3.462734   -1.020405
     20          6           0       13.377800    5.166430    0.518536
     21          6           0       15.907434    6.073852   -1.489309
     22          8           0       16.911416    6.293796   -2.158326
     23          6           0       15.099898    7.344572   -1.210933
     24          7           0       17.761873    0.826697   -1.802774
     25          6           0       17.961335    2.054820   -2.331139
     26          6           0       19.064172    2.093136   -3.407081
     27          6           0       19.437552    0.586966   -3.489564
     28          6           0       18.723603   -0.031556   -2.301076
     29          6           0       18.665797    2.845076   -4.720284
     30          6           0       20.947991    0.232072   -3.563150
     31          6           0       21.711654    0.350888   -2.312915
     32          7           0       17.202023   -1.388887   -0.119456
     33          6           0       18.021192   -2.040122   -0.912202
     34          6           0       18.162185   -3.446221   -0.520234
     35          6           0       17.186310   -3.540606    0.522861
     36          6           0       16.610384   -2.298281    0.703357
     37          6           0       19.263328   -4.365843   -0.774899
     38          6           0       16.617877   -4.473434    1.480115
     39          8           0       16.915849   -5.617100    1.740310
     40          6           0       15.516994   -3.665491    2.177902
     41          6           0       14.147224   -4.339472    2.046001
     42          8           0       13.461094   -4.295209    1.058169
     43          8           0       13.877790   -5.049418    3.191612
     44          6           0       12.560661   -5.725020    3.143499
     45          1           0       13.038001    2.730079    1.743475
     46          1           0       17.647230    4.127931   -2.525486
     47          1           0       19.559277   -1.739182   -2.600894
     48          1           0       12.773580   -2.098030    2.420109
     49          1           0       12.378568    0.686172    3.236985
     50          1           0       11.736729    0.093523    0.335288
     51          1           0       10.732804    0.514170    1.534559
     52          1           0       11.222945   -1.202977    1.394484
     53          1           0       14.568208   -0.510740    4.403503
     54          1           0       14.482293   -2.225791    4.371682
     55          1           0       12.563044   -2.341769    5.541413
     56          1           0       11.932199   -0.870809    4.731937
     57          1           0       12.699679    4.666352    1.210556
     58          1           0       12.904670    5.664294   -0.328964
     59          1           0       13.887528    5.928822    1.108277
     60          1           0       14.078870    7.308550   -1.590967
     61          1           0       15.592149    8.270714   -1.508096
     62          1           0       15.075327    7.456796   -0.126842
     63          1           0       19.785902    2.681968   -2.841656
     64          1           0       18.918276    0.236597   -4.381585
     65          1           0       17.939229    3.630581   -4.515129
     66          1           0       18.214513    2.136950   -5.415763
     67          1           0       19.511490    3.343353   -5.194682
     68          1           0       21.301710    0.960138   -4.292475
     69          1           0       21.073243   -0.744233   -4.031780
     70          1           0       21.585143   -0.556878   -1.723166
     71          1           0       21.430914    1.250365   -1.765331
     72          1           0       22.786034    0.391307   -2.494735
     73          1           0       20.126140   -3.722095   -0.947537
     74          1           0       19.253641   -4.989970   -1.668611
     75          1           0       19.348676   -4.996963    0.109062
     76          1           0       15.788825   -3.577622    3.230316
     77          1           0       12.641368   -6.671456    3.677813
     78          1           0       12.244551   -6.092082    2.166827
     79          1           0       11.800128   -5.134432    3.653245
     80         12           0      -16.138541    0.476657    0.485979
     81          6           0      -15.999147   -2.627789   -1.186554
     82          6           0      -12.659635    0.432590    0.736882
     83          6           0      -16.262743    3.821704    1.125990
     84          6           0      -19.620461    0.538278   -0.352051
     85          7           0      -14.573745   -0.936809   -0.117384
     86          6           0      -14.740670   -2.093388   -0.793241
     87          6           0      -13.362393   -2.728179   -1.169505
     88          6           0      -12.395856   -1.901662   -0.202354
     89          6           0      -13.273805   -0.683199    0.230828
     90          6           0      -11.842414   -2.534297    1.094637
     91          6           0      -13.098052   -2.498735   -2.705640
     92          6           0      -12.362097   -3.675504   -3.404395
     93          1           0      -11.257814   -3.260275   -4.459761
     94          7           0      -14.655156    1.930810    1.090948
     95          6           0      -13.315823    1.653295    1.162928
     96          6           0      -12.685819    2.823190    1.645258
     97          6           0      -13.649676    3.872372    1.718241
     98          6           0      -14.959009    3.234651    1.353697
     99          6           0      -11.209465    2.954342    1.936171
    100          6           0      -13.380078    5.320581    1.946813
    101          8           0      -12.244664    5.759806    2.034351
    102          6           0      -14.389596    6.344584    2.018349
    103          7           0      -17.751900    1.987300    0.278935
    104          6           0      -17.534238    3.276066    0.788185
    105          6           0      -18.819515    4.040392    0.852704
    106          6           0      -19.908503    3.036265    0.321880
    107          6           0      -19.087537    1.785451    0.059763
    108          6           0      -19.045469    4.516189    2.293475
    109          6           0      -20.825914    3.635455   -0.809655
    110          6           0      -22.302930    3.634183   -0.555851
    111          7           0      -17.600309   -0.793988   -0.535525
    112          6           0      -18.950775   -0.630663   -0.723955
    113          6           0      -19.546899   -1.864318   -1.282046
    114          6           0      -18.370660   -2.622566   -1.523671
    115          6           0      -17.271370   -1.979533   -0.986281
    116          6           0      -20.984752   -2.146908   -1.688372
    117          6           0      -17.903754   -3.809482   -2.189553
    118          8           0      -18.533653   -4.656174   -2.842392
    119          6           0      -16.389397   -3.914814   -2.011247
    120          6           0      -16.011988   -5.197491   -1.388825
    121          8           0      -15.291855   -5.967951   -1.912642
    122          8           0      -16.409469   -5.312950   -0.088187
    123          6           0      -15.780470   -6.490262    0.548844
    124          1           0      -11.579908    0.417628    0.902235
    125          1           0      -16.243413    4.868290    1.433976
    126          1           0      -20.640084    0.390328   -0.715465
    127          1           0      -13.405662   -3.792070   -0.935692
    128          1           0      -11.630821   -1.309692   -0.704479
    129          1           0      -12.511289   -3.319302    1.449284
    130          1           0      -11.638662   -1.850829    1.918992
    131          1           0      -10.908606   -3.017423    0.809054
    132          1           0      -12.566056   -1.561446   -2.871102
    133          1           0      -14.091937   -2.381422   -3.137640
    134          1           0      -13.169886   -4.219740   -3.893980
    135          1           0      -12.004218   -4.266330   -2.560928
    136          1           0      -10.920935    3.748718    2.624634
    137          1           0      -10.773729    3.128045    0.952640
    138          1           0      -10.673115    2.033012    2.163369
    139          1           0      -15.031211    6.093952    2.864076
    140          1           0      -14.937391    6.424725    1.078974
    141          1           0      -13.897749    7.301196    2.194892
    142          1           0      -18.825450    4.843395    0.116037
    143          1           0      -20.551416    2.552749    1.057719
    144          1           0      -18.151940    4.449107    2.914600
    145          1           0      -19.799725    3.916559    2.803026
    146          1           0      -19.182572    5.597097    2.301303
    147          1           0      -20.589374    3.042100   -1.692884
    148          1           0      -20.679842    4.701637   -0.979029
    149          1           0      -22.770955    3.120485   -1.395163
    150          1           0      -22.713953    4.643827   -0.544733
    151          1           0      -22.569732    3.247064    0.427587
    152          1           0      -21.224648   -1.764970   -2.680888
    153          1           0      -21.714638   -1.808043   -0.952083
    154          1           0      -20.956122   -3.231046   -1.796873
    155          1           0      -15.909736   -3.978761   -2.987098
    156          1           0      -16.130339   -6.533757    1.580581
    157          1           0      -14.693861   -6.413658    0.512510
    158          1           0      -16.118650   -7.448210    0.155297
 ---------------------------------------------------------------------

 SCF Done:  E(RPBE1PBE) =  -4067.36741437     A.U. after   16 cycles

 Excitation energies and oscillator strengths:

 Excited State   1:      Singlet-A      1.7484 eV  709.12 nm  f=0.0000  <S**2>=0.000
     312 -> 313        0.70710
 This state for optimization and/or second-order correction.
 Total Energy, E(TD-HF/TD-DFT) =  -4067.30316096
 Copying the excited state density for this state as the 1-particle RhoCI density.

 Excited State   2:      Singlet-A      1.8468 eV  671.33 nm  f=0.3854  <S**2>=0.000
     309 -> 315       -0.16867
     311 -> 313        0.69394
     311 <- 313       -0.11308

 Excited State   3:      Singlet-A      1.8847 eV  657.84 nm  f=0.3850  <S**2>=0.000
     310 -> 316        0.17972
     312 -> 314        0.69104
     312 <- 314       -0.10350

 Excited State   4:      Singlet-A      2.1741 eV  570.27 nm  f=0.0000  <S**2>=0.000
     311 -> 314        0.70710

 Excited State   5:      Singlet-A      2.2121 eV  560.48 nm  f=0.1080  <S**2>=0.000
     309 -> 313        0.65189
     311 -> 315        0.25458

 The electronic state is 1-A.
 Alpha  occ. eigenvalues --  -46.94226 -46.92110 -19.26446 -19.25734 -19.20622
 Alpha  occ. eigenvalues --  -19.20134 -19.19506 -19.19101 -19.19011 -19.17664
 Alpha  occ. eigenvalues --  -14.42451 -14.42328 -14.41549 -14.40734 -14.39621
 Alpha  occ. eigenvalues --  -14.38911 -14.38827 -14.38762 -10.36791 -10.35733
 Alpha  occ. eigenvalues --  -10.33186 -10.31856 -10.31694 -10.30728 -10.29958
 Alpha  occ. eigenvalues --  -10.29703 -10.29684 -10.29051 -10.29050 -10.28930
 Alpha  occ. eigenvalues --  -10.28830 -10.28667 -10.28479 -10.28214 -10.27827
 Alpha  occ. eigenvalues --  -10.27823 -10.27798 -10.27707 -10.27484 -10.27134
 Alpha  occ. eigenvalues --  -10.26895 -10.26879 -10.26873 -10.26651 -10.26438
 Alpha  occ. eigenvalues --  -10.26404 -10.26319 -10.26314 -10.26298 -10.26188
 Alpha  occ. eigenvalues --  -10.26129 -10.26052 -10.25851 -10.25717 -10.25605
 Alpha  occ. eigenvalues --  -10.25599 -10.25588 -10.25466 -10.25379 -10.25344
 Alpha  occ. eigenvalues --  -10.25248 -10.25074 -10.25013 -10.24953 -10.24650
 Alpha  occ. eigenvalues --  -10.24607 -10.24549 -10.24548 -10.24439 -10.24405
 Alpha  occ. eigenvalues --  -10.24257 -10.24064 -10.23942 -10.23838 -10.23836
 Alpha  occ. eigenvalues --  -10.23507 -10.23484 -10.23266 -10.23183 -10.23074
 Alpha  occ. eigenvalues --  -10.23066 -10.22872 -10.22862 -10.22683 -10.22575
 Alpha  occ. eigenvalues --  -10.22140  -3.15965  -3.14250  -1.88816  -1.88318
 Alpha  occ. eigenvalues --   -1.88180  -1.87077  -1.86639  -1.86460  -1.12744
 Alpha  occ. eigenvalues --   -1.11589  -1.05102  -1.04995  -1.04403  -1.03889
 Alpha  occ. eigenvalues --   -1.03618  -1.03601  -0.99763  -0.99763  -0.98429
 Alpha  occ. eigenvalues --   -0.98340  -0.98055  -0.97969  -0.97297  -0.97006
 Alpha  occ. eigenvalues --   -0.88242  -0.86962  -0.83733  -0.83724  -0.83392
 Alpha  occ. eigenvalues --   -0.82782  -0.82585  -0.82427  -0.82377  -0.81715
 Alpha  occ. eigenvalues --   -0.81536  -0.81298  -0.80621  -0.80248  -0.79200
 Alpha  occ. eigenvalues --   -0.78956  -0.78291  -0.77982  -0.77039  -0.76781
 Alpha  occ. eigenvalues --   -0.76666  -0.75706  -0.75250  -0.75148  -0.74947
 Alpha  occ. eigenvalues --   -0.74680  -0.73022  -0.72724  -0.71928  -0.71915
 Alpha  occ. eigenvalues --   -0.71219  -0.70934  -0.70816  -0.70449  -0.69843
 Alpha  occ. eigenvalues --   -0.69159  -0.67628  -0.67014  -0.66976  -0.66194
 Alpha  occ. eigenvalues --   -0.64380  -0.63816  -0.63660  -0.63610  -0.62781
 Alpha  occ. eigenvalues --   -0.62446  -0.61358  -0.61342  -0.60796  -0.60181
 Alpha  occ. eigenvalues --   -0.59831  -0.59619  -0.59251  -0.59202  -0.58942
 Alpha  occ. eigenvalues --   -0.58580  -0.57849  -0.57096  -0.54704  -0.54583
 Alpha  occ. eigenvalues --   -0.54526  -0.54027  -0.53909  -0.53613  -0.53524
 Alpha  occ. eigenvalues --   -0.53041  -0.52888  -0.52881  -0.51923  -0.51693
 Alpha  occ. eigenvalues --   -0.51050  -0.51038  -0.50639  -0.50206  -0.50180
 Alpha  occ. eigenvalues --   -0.50123  -0.49775  -0.49660  -0.49206  -0.49134
 Alpha  occ. eigenvalues --   -0.48542  -0.48237  -0.48016  -0.47803  -0.47801
 Alpha  occ. eigenvalues --   -0.47559  -0.47434  -0.47287  -0.47126  -0.46911
 Alpha  occ. eigenvalues --   -0.46817  -0.46722  -0.46338  -0.46046  -0.45906
 Alpha  occ. eigenvalues --   -0.45702  -0.45602  -0.45597  -0.45361  -0.44747
 Alpha  occ. eigenvalues --   -0.44706  -0.44544  -0.44524  -0.44246  -0.44158
 Alpha  occ. eigenvalues --   -0.44033  -0.43935  -0.43803  -0.43707  -0.43520
 Alpha  occ. eigenvalues --   -0.43435  -0.43280  -0.43116  -0.42935  -0.42812
 Alpha  occ. eigenvalues --   -0.42530  -0.42279  -0.42155  -0.42027  -0.41769
 Alpha  occ. eigenvalues --   -0.41689  -0.41600  -0.41463  -0.41323  -0.41114
 Alpha  occ. eigenvalues --   -0.41047  -0.40825  -0.40720  -0.40555  -0.40533
 Alpha  occ. eigenvalues --   -0.40098  -0.39963  -0.39835  -0.39830  -0.39730
 Alpha  occ. eigenvalues --   -0.39694  -0.39514  -0.39444  -0.39180  -0.39180
 Alpha  occ. eigenvalues --   -0.39045  -0.38870  -0.38836  -0.38635  -0.38501
 Alpha  occ. eigenvalues --   -0.38429  -0.38263  -0.38165  -0.37959  -0.37888
 Alpha  occ. eigenvalues --   -0.37715  -0.37698  -0.37530  -0.37373  -0.37250
 Alpha  occ. eigenvalues --   -0.37144  -0.37089  -0.36772  -0.36662  -0.36627
 Alpha  occ. eigenvalues --   -0.36200  -0.35957  -0.35619  -0.35584  -0.35127
 Alpha  occ. eigenvalues --   -0.35048  -0.34602  -0.34545  -0.34184  -0.33843
 Alpha  occ. eigenvalues --   -0.33672  -0.33390  -0.32919  -0.32804  -0.32679
 Alpha  occ. eigenvalues --   -0.32578  -0.32264  -0.32248  -0.31979  -0.31794
 Alpha  occ. eigenvalues --   -0.31465  -0.31399  -0.29837  -0.29797  -0.29489
 Alpha  occ. eigenvalues --   -0.29385  -0.29082  -0.28718  -0.27171  -0.26932
 Alpha  occ. eigenvalues --   -0.26006  -0.25874  -0.25738  -0.25734  -0.25522
 Alpha  occ. eigenvalues --   -0.25091  -0.24974  -0.24641  -0.21480  -0.20707
 Alpha  occ. eigenvalues --   -0.19280  -0.18645
 Alpha virt. eigenvalues --   -0.11814  -0.10882  -0.05788  -0.04835  -0.03931
 Alpha virt. eigenvalues --   -0.03771  -0.02094  -0.02038  -0.01561  -0.00562
 Alpha virt. eigenvalues --    0.00552   0.00561   0.01265   0.01352   0.01398

 Mulliken charges:
               1
     1  Mg  12.000000
     2  C    6.000000
     3  C    6.000000
     4  C    6.000000
     5  C    6.000000
     6  N    7.000000
     7  C    6.000000
     8  C    6.000000
     9  C    6.000000
    10  C    6.000000
    11  C    6.000000
    12  C    6.000000
    13  C    6.000000
    14  H    1.000000
    15  N    7.000000
    16  C    6.000000
    17  C    6.000000
    18  C    6.000000
    19  C    6.000000
    20  C    6.000000
    21  C    6.000000
    22  O    8.000000
    23  C    6.000000
    24  N    7.000000
    25  C    6.000000
    26  C    6.000000
    27  C    6.000000
    28  C    6.000000
    29  C    6.000000
    30  C    6.000000
    31  C    6.000000
    32  N    7.000000
    33  C    6.000000
    34  C    6.000000
    35  C    6.000000
    36  C    6.000000
    37  C    6.000000
    38  C    6.000000
    39  O    8.000000
    40  C    6.000000
    41  C    6.000000
    42  O    8.000000
    43  O    8.000000
    44  C    6.000000
    45  H    1.000000
    46  H    1.000000
    47  H    1.000000
    48  H    1.000000
    49  H    1.000000
    50  H    1.000000
    51  H    1.000000
    52  H    1.000000
    53  H    1.000000
    54  H    1.000000
    55  H    1.000000
    56  H    1.000000
    57  H    1.000000
    58  H    1.000000
    59  H    1.000000
    60  H    1.000000
    61  H    1.000000
    62  H    1.000000
    63  H    1.000000
    64  H    1.000000
    65  H    1.000000
    66  H    1.000000
    67  H    1.000000
    68  H    1.000000
    69  H    1.000000
    70  H    1.000000
    71  H    1.000000
    72  H    1.000000
    73  H    1.000000
    74  H    1.000000
    75  H    1.000000
    76  H    1.000000
    77  H    1.000000
    78  H    1.000000
    79  H    1.000000
    80  Mg  12.000000
    81  C    6.000000
    82  C    6.000000
    83  C    6.000000
    84  C    6.000000
    85  N    7.000000
    86  C    6.000000
    87  C    6.000000
    88  C    6.000000
    89  C    6.000000
    90  C    6.000000
    91  C    6.000000
    92  C    6.000000
    93  H    1.000000
    94  N    7.000000
    95  C    6.000000
    96  C    6.000000
    97  C    6.000000
    98  C    6.000000
    99  C    6.000000
   100  C    6.000000
   101  O    8.000000
   102  C    6.000000
   103  N    7.000000
   104  C    6.000000
   105  C    6.000000
   106  C    6.000000
   107  C    6.000000
   108  C    6.000000
   109  C    6.000000
   110  C    6.000000
   111  N    7.000000
   112  C    6.000000
   113  C    6.000000
   114  C    6.000000
   115  C    6.000000
   116  C    6.000000
   117  C    6.000000
   118  O    8.000000
   119  C    6.000000
   120  C    6.000000
   121  O    8.000000
   122  O    8.000000
   123  C    6.000000
   124  H    1.000000
   125  H    1.000000
   126  H    1.000000
   127  H    1.000000
   128  H    1.000000
   129  H    1.000000
   130  H    1.000000
   131  H    1.000000
   132  H    1.000000
   133  H    1.000000
   134  H    1.000000
   135  H    1.000000
   136  H    1.000000
   137  H    1.000000
   138  H    1.000000
   139  H    1.000000
   140  H    1.000000
   141  H    1.000000
   142  H    1.000000
   143  H    1.000000
   144  H    1.000000
   145  H    1.000000
   146  H    1.000000
   147  H    1.000000
   148  H    1.000000
   149  H    1.000000
   150  H    1.000000
   151  H    1.000000
   152  H    1.000000
   153  H    1.000000
   154  H    1.000000
   155  H    1.000000
   156  H    1.000000
   157  H    1.000000
   158  H    1.000000
 Sum of Mulliken charges = 624.00000

 Dipole moment (field-independent basis, Debye):
    X=             -0.0000    Y=             -0.0000    Z=             -0.0000  Tot=              0.0000
 Quadrupole moment (field-independent basis, Debye-Ang):
   XX=              0.0000   YY=             -0.0000   ZZ=              0.0000
   XY=              0.0000   XZ=              0.0000   YZ=             -0.0000

 Normal termination of Gaussian 16 at Thu Oct 14 00:41:51 2021.
