 Gaussian 16, Revision A.03,
 Gaussian 16:  ES64L-G16RevA.03 25-Dec-2016

 --------------------------------------------------------
 #p PBE1PBE/Def2SVP td=(nstates=5) density=(transition=1)
 --------------------------------------------------------

 --------------------------------
 TDDFT excited states in gaussian
 --------------------------------
 Symbolic Z-matrix:
 Charge =  0 Multiplicity = 1

                         Standard orientation:
 ---------------------------------------------------------------------
 Center     Atomic      Atomic             Coordinates (Angstroms)
 Number     Number       Type             X           Y           Z
 ---------------------------------------------------------------------
      1         12           0        3.830426   -0.973631   -0.910711
      2          6           0        5.956184    1.763768    0.041311
      3          6           0        1.136661    1.315898   -0.641321
      4          6           0        1.569361   -3.519119   -1.688137
      5          6           0        6.382685   -3.123057   -0.748703
      6          7           0        3.610495    1.308447   -0.133447
      7          6           0        4.620221    2.183070    0.063517
      8          6           0        4.041238    3.587577    0.463918
      9          6           0        2.501052    3.282679    0.425057
     10          6           0        2.371523    1.891756   -0.237131
     11          6           0        1.840195    3.367951    1.845116
     12          6           0        4.447815    4.707017   -0.494111
     13          6           0        4.874248    5.992451    0.135504
     14          1           0        5.389560    7.122512   -0.767442
     15          7           0        1.734229   -1.075241   -1.334721
     16          6           0        0.835064   -0.030186   -1.150347
     17          6           0       -0.481004   -0.495043   -1.541322
     18          6           0       -0.389553   -1.818841   -1.938270
     19          6           0        1.011457   -2.229816   -1.586623
     20          6           0       -1.748481    0.295039   -1.385174
     21          6           0       -1.494873   -2.836295   -2.438737
     22          8           0       -1.342477   -3.987038   -2.768403
     23          6           0       -2.889525   -2.313680   -2.707184
     24          7           0        3.888792   -2.993968   -1.032780
     25          6           0        2.896062   -3.880744   -1.359132
     26          6           0        3.348370   -5.350630   -1.195716
     27          6           0        4.930079   -5.221299   -1.142406
     28          6           0        5.078541   -3.659006   -0.994575
     29          6           0        2.689752   -6.059877    0.030558
     30          6           0        5.668141   -5.782071   -2.395971
     31          6           0        5.451503   -5.006840   -3.693621
     32          7           0        5.740559   -0.812393   -0.439186
     33          6           0        6.760596   -1.803660   -0.473952
     34          6           0        8.049711   -1.227330   -0.098124
     35          6           0        7.780436    0.144970    0.051492
     36          6           0        6.395483    0.367042   -0.170122
     37          6           0        9.314056   -1.945549    0.009609
     38          6           0        8.442949    1.403754    0.377437
     39          8           0        9.625458    1.630488    0.571718
     40          6           0        7.267303    2.517587    0.476363
     41          6           0        7.826822    3.565158   -0.489156
     42          8           0        7.897697    3.512774   -1.730268
     43          8           0        8.313934    4.573183    0.213270
     44          6           0        8.669088    5.869349   -0.495068
     45          1           0        0.325979    2.046958   -0.627455
     46          1           0        0.938354   -4.379458   -1.924468
     47          1           0        7.182265   -3.865391   -0.787097
     48          1           0        4.509572    3.804295    1.423431
     49          1           0        1.971644    3.967086   -0.239184
     50          1           0        0.991091    4.045211    1.936978
     51          1           0        2.553334    3.490863    2.660458
     52          1           0        1.303235    2.479689    2.178687
     53          1           0        3.471288    5.046762   -0.839626
     54          1           0        5.065034    4.360194   -1.323614
     55          1           0        5.585062    5.984268    0.963396
     56          1           0        3.947072    6.369615    0.567144
     57          1           0       -1.540887    1.328868   -1.110323
     58          1           0       -2.453067   -0.098092   -0.650646
     59          1           0       -2.352626    0.399679   -2.286521
     60          1           0       -2.901329   -1.533014   -3.467712
     61          1           0       -3.192723   -1.989067   -1.711745
     62          1           0       -3.458268   -3.221270   -2.909536
     63          1           0        2.917672   -5.848923   -2.064936
     64          1           0        5.423727   -5.484687   -0.206709
     65          1           0        1.982246   -6.835451   -0.262621
     66          1           0        2.236715   -5.438691    0.802413
     67          1           0        3.567176   -6.492818    0.511304
     68          1           0        5.534219   -6.863904   -2.395576
     69          1           0        6.737719   -5.690858   -2.207574
     70          1           0        4.717254   -4.203171   -3.651509
     71          1           0        5.078869   -5.738878   -4.409685
     72          1           0        6.305904   -4.433543   -4.051542
     73          1           0       10.166173   -1.336579    0.312200
     74          1           0        9.483319   -2.366056   -0.981586
     75          1           0        9.162026   -2.773297    0.703753
     76          1           0        7.256191    3.023487    1.441769
     77          1           0        8.729500    6.624909    0.288555
     78          1           0        7.885466    6.212537   -1.169856
     79          1           0        9.577839    5.802529   -1.094366
     80         12           0       -3.895328   -0.402688    1.066651
     81          6           0       -5.215105    2.423156   -0.535710
     82          6           0       -1.843135    1.698161    2.863633
     83          6           0       -2.647019   -3.079896    2.538373
     84          6           0       -5.950741   -2.396027   -0.969172
     85          7           0       -3.674787    1.799177    1.169516
     86          6           0       -4.289601    2.800945    0.418198
     87          6           0       -4.058778    4.249900    1.002074
     88          6           0       -2.902921    3.941844    1.934170
     89          6           0       -2.785985    2.363741    2.015780
     90          6           0       -1.527648    4.481260    1.326790
     91          6           0       -5.385788    4.547030    1.832003
     92          6           0       -5.997292    6.012577    1.720947
     93          1           0       -4.884545    7.015002    1.550635
     94          7           0       -2.384041   -0.644360    2.356439
     95          6           0       -1.663707    0.288449    2.972954
     96          6           0       -0.717782   -0.267285    3.904116
     97          6           0       -1.039323   -1.637182    3.976049
     98          6           0       -2.043450   -1.865148    2.869653
     99          6           0        0.300927    0.489941    4.674534
    100          6           0       -0.605087   -2.698326    4.966038
    101          8           0       -1.162543   -3.797848    5.059289
    102          6           0        0.638947   -2.472998    5.829868
    103          7           0       -4.235974   -2.474851    0.762921
    104          6           0       -3.595546   -3.351729    1.606360
    105          6           0       -4.165231   -4.749271    1.372465
    106          6           0       -5.343846   -4.529386    0.303903
    107          6           0       -5.242519   -3.050977    0.034868
    108          6           0       -3.008386   -5.738693    0.989870
    109          6           0       -6.732511   -5.003287    0.703198
    110          6           0       -7.403895   -5.939922   -0.349480
    111          7           0       -5.274499   -0.065462   -0.454547
    112          6           0       -6.038428   -0.997457   -1.224892
    113          6           0       -6.827941   -0.313790   -2.186013
    114          6           0       -6.523728    1.034381   -1.932797
    115          6           0       -5.548071    1.104853   -0.916840
    116          6           0       -7.799063   -0.830780   -3.197983
    117          6           0       -6.805051    2.381709   -2.312967
    118          8           0       -7.513734    2.863701   -3.165138
    119          6           0       -6.040279    3.318519   -1.335580
    120          6           0       -5.335602    4.363222   -2.122334
    121          8           0       -4.354130    4.222102   -2.846373
    122          8           0       -5.940250    5.524073   -1.851743
    123          6           0       -5.369949    6.714881   -2.445959
    124          1           0       -1.240937    2.247557    3.590073
    125          1           0       -2.185071   -3.925288    3.054455
    126          1           0       -6.650571   -2.971574   -1.578736
    127          1           0       -3.992054    4.896062    0.127336
    128          1           0       -3.103401    4.342097    2.927442
    129          1           0       -1.658456    4.945721    0.349214
    130          1           0       -0.843093    3.638706    1.230786
    131          1           0       -1.168124    5.186332    2.076349
    132          1           0       -5.266616    4.394080    2.904210
    133          1           0       -6.114615    3.802153    1.511453
    134          1           0       -6.410141    6.328757    2.678978
    135          1           0       -6.870251    6.033684    1.068055
    136          1           0       -0.006723    0.446416    5.720198
    137          1           0        0.324944    1.538290    4.380342
    138          1           0        1.306633    0.081394    4.580382
    139          1           0        0.856271   -3.504740    6.105281
    140          1           0        0.472285   -1.816151    6.684427
    141          1           0        1.547313   -2.147502    5.323247
    142          1           0       -4.616334   -5.226872    2.242190
    143          1           0       -5.069872   -5.044228   -0.617045
    144          1           0       -3.177259   -6.632747    1.590184
    145          1           0       -2.008763   -5.326136    1.126806
    146          1           0       -3.169093   -6.171226    0.001648
    147          1           0       -7.432639   -4.199671    0.929333
    148          1           0       -6.547123   -5.678268    1.539937
    149          1           0       -6.703138   -6.188961   -1.146528
    150          1           0       -8.180572   -5.421923   -0.911743
    151          1           0       -7.760931   -6.861614    0.110449
    152          1           0       -8.646747   -1.090069   -2.563107
    153          1           0       -7.297832   -1.645112   -3.720716
    154          1           0       -8.139963   -0.056035   -3.883315
    155          1           0       -6.844768    3.837454   -0.812717
    156          1           0       -5.283451    6.587307   -3.525369
    157          1           0       -4.352716    6.973157   -2.149701
    158          1           0       -6.062223    7.525908   -2.219202
 ---------------------------------------------------------------------

 SCF Done:  E(RPBE1PBE) =  -4067.38485163     A.U. after   16 cycles

 Excitation energies and oscillator strengths:

 Excited State   1:      Singlet-A      1.4867 eV  833.93 nm  f=0.0001  <S**2>=0.000
     312 -> 313        0.70659
 This state for optimization and/or second-order correction.
 Total Energy, E(TD-HF/TD-DFT) =  -4067.33021496
 Copying the excited state density for this state as the 1-particle RhoCI density.

 Excited State   2:      Singlet-A      1.7395 eV  712.74 nm  f=0.0022  <S**2>=0.000
     311 -> 314        0.70186

 Excited State   3:      Singlet-A      1.8096 eV  685.15 nm  f=0.2722  <S**2>=0.000
     310 -> 316        0.16892
     311 -> 313        0.14139
     312 -> 314        0.67403
     312 <- 314       -0.10414

 Excited State   4:      Singlet-A      1.8467 eV  671.40 nm  f=0.4426  <S**2>=0.000
     309 -> 315        0.14852
     311 -> 313        0.67882
     312 -> 314       -0.14380
     311 <- 313       -0.10355

 Excited State   5:      Singlet-A      2.1389 eV  579.66 nm  f=0.0006  <S**2>=0.000
     310 -> 313        0.70585

 The electronic state is 1-A.
 Alpha  occ. eigenvalues --  -46.91655 -46.91511 -19.26434 -19.25586 -19.20195
 Alpha  occ. eigenvalues --  -19.19657 -19.19602 -19.19328 -19.18305 -19.18262
 Alpha  occ. eigenvalues --  -14.42240 -14.41905 -14.41582 -14.41080 -14.40044
 Alpha  occ. eigenvalues --  -14.39629 -14.39376 -14.38727 -10.35918 -10.35508
 Alpha  occ. eigenvalues --  -10.33421 -10.32584 -10.32296 -10.30943 -10.29957
 Alpha  occ. eigenvalues --  -10.29442 -10.29167 -10.29055 -10.29039 -10.28949
 Alpha  occ. eigenvalues --  -10.28881 -10.28820 -10.28769 -10.28608 -10.28603
 Alpha  occ. eigenvalues --  -10.28434 -10.28382 -10.28187 -10.27766 -10.27626
 Alpha  occ. eigenvalues --  -10.27437 -10.26966 -10.26841 -10.26754 -10.26735
 Alpha  occ. eigenvalues --  -10.26630 -10.26549 -10.26473 -10.26275 -10.26264
 Alpha  occ. eigenvalues --  -10.26258 -10.26164 -10.25925 -10.25863 -10.25779
 Alpha  occ. eigenvalues --  -10.25755 -10.25747 -10.25630 -10.25532 -10.25469
 Alpha  occ. eigenvalues --  -10.25361 -10.25287 -10.25158 -10.25027 -10.24940
 Alpha  occ. eigenvalues --  -10.24861 -10.24770 -10.24445 -10.24388 -10.24374
 Alpha  occ. eigenvalues --  -10.24299 -10.24142 -10.24085 -10.23955 -10.23805
 Alpha  occ. eigenvalues --  -10.23751 -10.23733 -10.23664 -10.23557 -10.23444
 Alpha  occ. eigenvalues --  -10.23166 -10.23138 -10.23030 -10.22759 -10.22100
 Alpha  occ. eigenvalues --  -10.22074  -3.13923  -3.13848  -1.86750  -1.86716
 Alpha  occ. eigenvalues --   -1.86315  -1.86196  -1.86151  -1.86095  -1.12448
 Alpha  occ. eigenvalues --   -1.10739  -1.05797  -1.05128  -1.04803  -1.04770
 Alpha  occ. eigenvalues --   -1.02494  -1.00093  -0.99832  -0.99200  -0.98329
 Alpha  occ. eigenvalues --   -0.97985  -0.97709  -0.97437  -0.96779  -0.96305
 Alpha  occ. eigenvalues --   -0.87638  -0.85183  -0.84181  -0.83516  -0.83266
 Alpha  occ. eigenvalues --   -0.82966  -0.82955  -0.82524  -0.82212  -0.81956
 Alpha  occ. eigenvalues --   -0.81661  -0.81390  -0.81146  -0.80677  -0.78746
 Alpha  occ. eigenvalues --   -0.78365  -0.78189  -0.77819  -0.76864  -0.76644
 Alpha  occ. eigenvalues --   -0.76334  -0.75972  -0.75422  -0.75115  -0.75056
 Alpha  occ. eigenvalues --   -0.74235  -0.73394  -0.72320  -0.72122  -0.71611
 Alpha  occ. eigenvalues --   -0.71547  -0.71262  -0.70535  -0.70271  -0.69661
 Alpha  occ. eigenvalues --   -0.69455  -0.68004  -0.67005  -0.66266  -0.66053
 Alpha  occ. eigenvalues --   -0.64364  -0.63841  -0.63551  -0.63127  -0.62401
 Alpha  occ. eigenvalues --   -0.62244  -0.61959  -0.60534  -0.60297  -0.60128
 Alpha  occ. eigenvalues --   -0.59873  -0.59840  -0.59567  -0.59516  -0.59048
 Alpha  occ. eigenvalues --   -0.58597  -0.57515  -0.56380  -0.55557  -0.54658
 Alpha  occ. eigenvalues --   -0.54215  -0.53960  -0.53825  -0.53646  -0.53451
 Alpha  occ. eigenvalues --   -0.52791  -0.52364  -0.52290  -0.51865  -0.51531
 Alpha  occ. eigenvalues --   -0.50657  -0.50633  -0.50283  -0.50208  -0.49967
 Alpha  occ. eigenvalues --   -0.49480  -0.49451  -0.49111  -0.48783  -0.48513
 Alpha  occ. eigenvalues --   -0.48456  -0.48025  -0.47899  -0.47633  -0.47556
 Alpha  occ. eigenvalues --   -0.47490  -0.47409  -0.47232  -0.46938  -0.46925
 Alpha  occ. eigenvalues --   -0.46863  -0.46504  -0.46306  -0.46057  -0.45961
 Alpha  occ. eigenvalues --   -0.45548  -0.45533  -0.45499  -0.45429  -0.45125
 Alpha  occ. eigenvalues --   -0.44956  -0.44809  -0.44722  -0.44514  -0.44350
 Alpha  occ. eigenvalues --   -0.44181  -0.43891  -0.43754  -0.43649  -0.43478
 Alpha  occ. eigenvalues --   -0.43426  -0.43197  -0.43158  -0.43072  -0.42976
 Alpha  occ. eigenvalues --   -0.42696  -0.42604  -0.42421  -0.42228  -0.42115
 Alpha  occ. eigenvalues --   -0.42060  -0.41940  -0.41751  -0.41554  -0.41460
 Alpha  occ. eigenvalues --   -0.41339  -0.41145  -0.41019  -0.40877  -0.40557
 Alpha  occ. eigenvalues --   -0.40447  -0.40348  -0.40253  -0.39901  -0.39883
 Alpha  occ. eigenvalues --   -0.39769  -0.39673  -0.39620  -0.39451  -0.39161
 Alpha  occ. eigenvalues --   -0.38948  -0.38747  -0.38681  -0.38572  -0.38411
 Alpha  occ. eigenvalues --   -0.38361  -0.38116  -0.37947  -0.37844  -0.37816
 Alpha  occ. eigenvalues --   -0.37772  -0.37653  -0.37569  -0.37216  -0.37025
 Alpha  occ. eigenvalues --   -0.36949  -0.36757  -0.36722  -0.36212  -0.36126
 Alpha  occ. eigenvalues --   -0.35916  -0.35704  -0.35571  -0.35304  -0.35215
 Alpha  occ. eigenvalues --   -0.35121  -0.34961  -0.34569  -0.34174  -0.34009
 Alpha  occ. eigenvalues --   -0.33527  -0.33473  -0.33083  -0.32955  -0.32848
 Alpha  occ. eigenvalues --   -0.32553  -0.32357  -0.31946  -0.31784  -0.31676
 Alpha  occ. eigenvalues --   -0.31044  -0.30638  -0.29913  -0.29499  -0.29075
 Alpha  occ. eigenvalues --   -0.28640  -0.28604  -0.27613  -0.27562  -0.26875
 Alpha  occ. eigenvalues --   -0.26819  -0.26696  -0.26014  -0.25822  -0.25714
 Alpha  occ. eigenvalues --   -0.25531  -0.25203  -0.25037  -0.21441  -0.20979
 Alpha  occ. eigenvalues --   -0.19105  -0.18573
 Alpha virt. eigenvalues --   -0.11490  -0.11087  -0.05716  -0.05434  -0.03985
 Alpha virt. eigenvalues --   -0.03530  -0.02075  -0.01917   0.00063   0.00583
 Alpha virt. eigenvalues --    0.00831   0.00981   0.01367   0.01449   0.01570

 Mulliken charges:
               1
     1  Mg  11.999958
     2  C    5.999828
     3  C    5.999353
     4  C    6.000319
     5  C    6.000368
     6  N    6.999918
     7  C    6.000009
     8  C    5.999928
     9  C    6.000114
    10  C    6.000065
    11  C    5.999895
    12  C    6.000038
    13  C    6.000030
    14  H    1.000019
    15  N    6.999882
    16  C    6.001797
    17  C    5.998874
    18  C    6.000014
    19  C    5.999854
    20  C    6.000133
    21  C    6.000269
    22  O    8.000151
    23  C    6.000210
    24  N    7.000211
    25  C    5.999601
    26  C    6.000055
    27  C    6.000080
    28  C    5.999480
    29  C    5.999990
    30  C    6.000035
    31  C    6.000044
    32  N    6.999979
    33  C    5.999615
    34  C    5.999994
    35  C    5.999882
    36  C    5.999979
    37  C    5.999979
    38  C    5.999912
    39  O    7.999784
    40  C    6.000006
    41  C    5.999974
    42  O    7.999957
    43  O    7.999985
    44  C    6.000003
    45  H    0.999831
    46  H    1.000072
    47  H    0.999964
    48  H    0.999986
    49  H    0.999917
    50  H    0.999880
    51  H    1.000508
    52  H    0.999907
    53  H    0.999912
    54  H    1.000032
    55  H    1.000028
    56  H    0.999894
    57  H    0.999851
    58  H    1.000301
    59  H    1.000425
    60  H    0.999903
    61  H    1.000265
    62  H    1.000246
    63  H    0.999925
    64  H    0.999916
    65  H    0.999991
    66  H    0.999948
    67  H    0.999995
    68  H    0.999928
    69  H    0.999958
    70  H    0.999966
    71  H    0.999944
    72  H    0.999969
    73  H    0.999923
    74  H    0.999937
    75  H    0.999933
    76  H    0.999898
    77  H    0.999965
    78  H    0.999960
    79  H    1.000004
    80  Mg  11.999515
    81  C    6.001703
    82  C    6.002358
    83  C    5.998443
    84  C    5.998127
    85  N    7.002249
    86  C    5.999265
    87  C    6.000097
    88  C    6.000232
    89  C    5.998561
    90  C    5.999683
    91  C    5.999874
    92  C    5.999956
    93  H    1.000120
    94  N    6.999568
    95  C    6.000077
    96  C    5.999786
    97  C    5.999769
    98  C    6.000817
    99  C    6.000010
   100  C    6.000158
   101  O    8.000247
   102  C    5.999956
   103  N    6.998183
   104  C    6.000926
   105  C    5.999890
   106  C    6.000018
   107  C    6.000646
   108  C    6.000024
   109  C    6.000240
   110  C    6.000048
   111  N    7.000134
   112  C    5.999898
   113  C    6.000155
   114  C    5.999998
   115  C    5.999732
   116  C    6.000012
   117  C    5.999749
   118  O    7.999641
   119  C    5.999606
   120  C    5.999988
   121  O    8.000118
   122  O    8.000015
   123  C    5.999948
   124  H    1.000560
   125  H    0.999760
   126  H    0.999272
   127  H    1.000186
   128  H    1.000159
   129  H    1.000343
   130  H    1.000245
   131  H    1.000284
   132  H    1.000126
   133  H    1.000054
   134  H    1.000146
   135  H    1.000130
   136  H    0.999983
   137  H    0.999780
   138  H    1.000199
   139  H    1.000083
   140  H    0.999988
   141  H    1.000011
   142  H    0.999926
   143  H    0.999878
   144  H    0.999938
   145  H    0.999857
   146  H    0.999992
   147  H    0.999911
   148  H    0.999775
   149  H    0.999922
   150  H    0.999949
   151  H    0.999836
   152  H    1.000018
   153  H    1.000069
   154  H    0.999925
   155  H    1.000309
   156  H    1.000116
   157  H    0.999995
   158  H    1.000081
 Sum of Mulliken charges = 624.00000

 Dipole moment (field-independent basis, Debye):
    X=             -0.0294    Y=              0.1305    Z=              0.0451  Tot=              0.1412
 Quadrupole moment (field-independent basis, Debye-Ang):
   XX=             -0.8940   YY=             -0.0407   ZZ=              0.1073
   XY=             -0.5097   XZ=             -0.1119   YZ=              0.1106

 Normal termination of Gaussian 16 at Thu Oct 14 16:15:54 2021.
