 Gaussian 16, Revision A.03,
 Gaussian 16:  ES64L-G16RevA.03 25-Dec-2016

 --------------------------------------------------------
 #p PBE1PBE/Def2SVP td=(nstates=5) density=(transition=1)
 --------------------------------------------------------

 --------------------------------
 TDDFT excited states in gaussian
 --------------------------------
 Symbolic Z-matrix:
 Charge =  0 Multiplicity = 1

                         Standard orientation:
 ---------------------------------------------------------------------
 Center     Atomic      Atomic             Coordinates (Angstroms)
 Number     Number       Type             X           Y           Z
 ---------------------------------------------------------------------
      1         12           0      -27.851637   -0.172680   -0.563274
      2          6           0      -24.803062    0.885265    0.721243
      3          6           0      -27.407800   -3.257985    1.122686
      4          6           0      -31.131568   -0.771112   -0.782557
      5          6           0      -28.430481    3.151441   -1.584952
      6          7           0      -26.381773   -0.959508    1.101807
      7          6           0      -25.126845   -0.409013    1.204003
      8          6           0      -24.219563   -1.261271    2.034708
      9          6           0      -24.945781   -2.681512    1.945807
     10          6           0      -26.365447   -2.320273    1.382035
     11          6           0      -24.203299   -3.798611    1.052787
     12          6           0      -23.998387   -0.604188    3.493051
     13          6           0      -22.759369   -0.968726    4.139705
     14          1           0      -22.951274   -1.583427    5.542353
     15          7           0      -29.075989   -1.834334   -0.098767
     16          6           0      -28.700353   -3.019470    0.593599
     17          6           0      -29.865010   -3.887393    0.638046
     18          6           0      -30.969358   -3.205842    0.071224
     19          6           0      -30.395615   -1.895417   -0.385199
     20          6           0      -29.848965   -5.189402    1.348415
     21          6           0      -32.448359   -3.777145    0.032397
     22          8           0      -32.625321   -4.895024    0.514080
     23          6           0      -33.536811   -3.145894   -0.828921
     24          7           0      -29.499253    1.074705   -1.010508
     25          6           0      -30.727400    0.512873   -1.144141
     26          6           0      -31.899607    1.618628   -1.511113
     27          6           0      -30.977004    2.842428   -1.983038
     28          6           0      -29.549368    2.380799   -1.550687
     29          6           0      -32.901289    1.204139   -2.654554
     30          6           0      -31.358955    4.170950   -1.327624
     31          6           0      -31.764281    5.392186   -2.187350
     32          7           0      -26.739890    1.560440   -0.718681
     33          6           0      -27.094847    2.794562   -1.180572
     34          6           0      -25.934556    3.642097   -1.196447
     35          6           0      -25.006705    2.898246   -0.374462
     36          6           0      -25.598341    1.655544   -0.090572
     37          6           0      -25.873796    5.065042   -1.671620
     38          6           0      -23.730682    2.993078    0.303472
     39          8           0      -22.863106    3.805538    0.195719
     40          6           0      -23.466869    1.624293    1.043815
     41          6           0      -22.278120    0.808661    0.489331
     42          8           0      -22.107246    0.549564   -0.682521
     43          8           0      -21.383350    0.506134    1.536432
     44          6           0      -20.138617   -0.097272    1.166963
     45          1           0      -27.180607   -4.210979    1.603390
     46          1           0      -32.215077   -0.819386   -0.656894
     47          1           0      -28.648675    4.162935   -1.932412
     48          1           0      -23.286366   -1.497022    1.522129
     49          1           0      -25.055145   -3.066827    2.960191
     50          1           0      -23.998608   -4.620266    1.739026
     51          1           0      -23.287416   -3.432108    0.590207
     52          1           0      -24.925894   -4.114971    0.299985
     53          1           0      -24.829530   -1.002735    4.074586
     54          1           0      -24.179956    0.448441    3.274340
     55          1           0      -22.177412   -0.050754    4.212625
     56          1           0      -22.241269   -1.728125    3.554120
     57          1           0      -28.833467   -5.504811    1.587305
     58          1           0      -30.223300   -5.975464    0.692133
     59          1           0      -30.398917   -5.134753    2.288211
     60          1           0      -33.831290   -2.147690   -0.503395
     61          1           0      -34.392862   -3.821358   -0.818740
     62          1           0      -33.162799   -3.119139   -1.852458
     63          1           0      -32.349722    1.832016   -0.541983
     64          1           0      -30.873122    2.949716   -3.062980
     65          1           0      -33.898882    1.068962   -2.237675
     66          1           0      -32.574918    0.263295   -3.099339
     67          1           0      -32.892714    2.014790   -3.383957
     68          1           0      -30.607341    4.494475   -0.607906
     69          1           0      -32.169626    4.104289   -0.602219
     70          1           0      -31.076325    6.237551   -2.217626
     71          1           0      -32.668885    5.776724   -1.715646
     72          1           0      -31.945267    5.103913   -3.223540
     73          1           0      -24.821848    5.300288   -1.835258
     74          1           0      -26.027573    5.817453   -0.898743
     75          1           0      -26.532428    5.301247   -2.506974
     76          1           0      -23.223981    1.941943    2.058207
     77          1           0      -19.913177   -0.645603    2.082203
     78          1           0      -19.335086    0.635316    1.093161
     79          1           0      -20.239589   -0.663178    0.241731
     80         12           0       27.650781    0.544939   -0.241066
     81          6           0       25.805712   -2.455976   -0.356460
     82          6           0       24.783036    2.103183    0.528712
     83          6           0       29.537358    3.151384    0.331544
     84          6           0       30.572308   -1.509164   -0.366777
     85          7           0       25.547667   -0.137187    0.091909
     86          6           0       24.981640   -1.356087   -0.074338
     87          6           0       23.479725   -1.362085    0.126194
     88          6           0       23.197074    0.193865    0.133651
     89          6           0       24.574701    0.807529    0.274330
     90          6           0       22.435719    0.740095   -1.143969
     91          6           0       22.801748   -2.092595    1.366191
     92          6           0       23.630545   -2.529019    2.603422
     93          1           0       22.930779   -2.484412    4.013069
     94          7           0       27.142719    2.437818    0.232554
     95          6           0       25.950753    2.875161    0.615914
     96          6           0       26.075257    4.291824    1.054923
     97          6           0       27.504326    4.647380    0.825808
     98          6           0       28.121749    3.373119    0.457056
     99          6           0       24.906849    5.166112    1.422807
    100          6           0       28.127811    5.995092    1.078750
    101          8           0       27.403878    6.921921    1.434023
    102          6           0       29.664291    6.321215    0.989283
    103          7           0       29.837958    0.793050    0.074857
    104          6           0       30.248212    2.013253    0.118655
    105          6           0       31.839708    1.983721    0.045165
    106          6           0       32.098418    0.475933    0.073807
    107          6           0       30.727838   -0.158017   -0.065991
    108          6           0       32.550019    2.710559   -1.108930
    109          6           0       32.669210   -0.057047    1.488317
    110          6           0       34.110697   -0.598126    1.486583
    111          7           0       28.161948   -1.517044   -0.276025
    112          6           0       29.343864   -2.187824   -0.448226
    113          6           0       29.092903   -3.612501   -0.787886
    114          6           0       27.691294   -3.813752   -0.640613
    115          6           0       27.195996   -2.453528   -0.437143
    116          6           0       30.148497   -4.717088   -1.017507
    117          6           0       26.600101   -4.729879   -0.655877
    118          8           0       26.507462   -5.968752   -0.694982
    119          6           0       25.308385   -3.880138   -0.548003
    120          6           0       24.481197   -4.170817   -1.803622
    121          8           0       23.479493   -4.808843   -1.991076
    122          8           0       24.968887   -3.355286   -2.830553
    123          6           0       24.240679   -3.374978   -4.137142
    124          1           0       23.836038    2.582807    0.785599
    125          1           0       30.122043    4.060372    0.492447
    126          1           0       31.458936   -2.073118   -0.662716
    127          1           0       23.081614   -1.762805   -0.805849
    128          1           0       22.560316    0.438558    0.983931
    129          1           0       22.271827   -0.055978   -1.869492
    130          1           0       23.198994    1.374205   -1.593653
    131          1           0       21.523661    1.252041   -0.836560
    132          1           0       22.290717   -2.970061    0.969743
    133          1           0       21.990036   -1.467730    1.740247
    134          1           0       24.491505   -1.860975    2.628282
    135          1           0       23.890671   -3.587068    2.608158
    136          1           0       25.155928    6.226590    1.454530
    137          1           0       24.485295    4.743765    2.335726
    138          1           0       24.159800    4.926092    0.665511
    139          1           0       30.242184    6.072939    0.098260
    140          1           0       30.174281    5.747425    1.763096
    141          1           0       29.866315    7.382690    1.129748
    142          1           0       32.286805    2.481331    0.905079
    143          1           0       32.792405    0.046689   -0.649689
    144          1           0       31.842485    3.212079   -1.769407
    145          1           0       33.203031    2.038981   -1.667305
    146          1           0       33.196835    3.522977   -0.777698
    147          1           0       32.071199   -0.878415    1.880703
    148          1           0       32.584173    0.788251    2.171550
    149          1           0       34.308340   -1.411019    2.185767
    150          1           0       34.727742    0.238052    1.815345
    151          1           0       34.251567   -0.926882    0.456863
    152          1           0       31.162054   -4.457523   -0.713603
    153          1           0       30.134027   -4.872954   -2.095929
    154          1           0       29.780725   -5.636745   -0.563120
    155          1           0       24.749126   -4.185167    0.335850
    156          1           0       23.736092   -4.292531   -4.438988
    157          1           0       25.039000   -3.235110   -4.865747
    158          1           0       23.538150   -2.569889   -4.353475
 ---------------------------------------------------------------------

 SCF Done:  E(RPBE1PBE) =  -4067.33158755     A.U. after   16 cycles

 Excitation energies and oscillator strengths:

 Excited State   1:      Singlet-A      1.8323 eV  676.65 nm  f=0.3800  <S**2>=0.000
     310 -> 316       -0.16920
     312 -> 314        0.69535
     312 <- 314       -0.11106
 This state for optimization and/or second-order correction.
 Total Energy, E(TD-HF/TD-DFT) =  -4067.26425115
 Copying the excited state density for this state as the 1-particle RhoCI density.

 Excited State   2:      Singlet-A      1.9112 eV  648.73 nm  f=0.3971  <S**2>=0.000
     309 -> 315        0.17700
     311 -> 313        0.69114
     311 <- 313       -0.10568

 Excited State   3:      Singlet-A      1.9407 eV  638.86 nm  f=0.0000  <S**2>=0.000
     312 -> 313        0.70711

 Excited State   4:      Singlet-A      2.0873 eV  593.98 nm  f=0.0000  <S**2>=0.000
     311 -> 314        0.70711

 Excited State   5:      Singlet-A      2.2475 eV  551.66 nm  f=0.1030  <S**2>=0.000
     310 -> 314        0.64692
     312 -> 316        0.27104

 The electronic state is 1-A.
 Alpha  occ. eigenvalues --  -46.93454 -46.93185 -19.25817 -19.25207 -19.20966
 Alpha  occ. eigenvalues --  -19.20572 -19.19735 -19.19518 -19.18965 -19.18628
 Alpha  occ. eigenvalues --  -14.41824 -14.41704 -14.41648 -14.41299 -14.40006
 Alpha  occ. eigenvalues --  -14.39878 -14.39742 -14.38829 -10.37144 -10.36850
 Alpha  occ. eigenvalues --  -10.33396 -10.32913 -10.32660 -10.31301 -10.29392
 Alpha  occ. eigenvalues --  -10.29182 -10.29105 -10.29058 -10.28725 -10.28698
 Alpha  occ. eigenvalues --  -10.28673 -10.28546 -10.28540 -10.28500 -10.28460
 Alpha  occ. eigenvalues --  -10.28413 -10.28403 -10.27935 -10.27794 -10.27658
 Alpha  occ. eigenvalues --  -10.27627 -10.27623 -10.27095 -10.26853 -10.26737
 Alpha  occ. eigenvalues --  -10.26589 -10.26552 -10.26480 -10.26250 -10.26235
 Alpha  occ. eigenvalues --  -10.26031 -10.25966 -10.25887 -10.25862 -10.25748
 Alpha  occ. eigenvalues --  -10.25681 -10.25631 -10.25591 -10.25584 -10.25485
 Alpha  occ. eigenvalues --  -10.25464 -10.25337 -10.25219 -10.25138 -10.24936
 Alpha  occ. eigenvalues --  -10.24773 -10.24454 -10.24378 -10.24296 -10.24227
 Alpha  occ. eigenvalues --  -10.24207 -10.24137 -10.24132 -10.24127 -10.24120
 Alpha  occ. eigenvalues --  -10.24031 -10.24030 -10.23990 -10.23906 -10.23671
 Alpha  occ. eigenvalues --  -10.23341 -10.23335 -10.23208 -10.23009 -10.22697
 Alpha  occ. eigenvalues --  -10.22613  -3.15513  -3.15185  -1.88341  -1.87972
 Alpha  occ. eigenvalues --   -1.87885  -1.87739  -1.87614  -1.87373  -1.10858
 Alpha  occ. eigenvalues --   -1.10749  -1.05714  -1.04860  -1.04447  -1.03882
 Alpha  occ. eigenvalues --   -1.03590  -1.02057  -1.01396  -0.99813  -0.99424
 Alpha  occ. eigenvalues --   -0.98699  -0.98025  -0.97396  -0.96939  -0.96173
 Alpha  occ. eigenvalues --   -0.87843  -0.86686  -0.84168  -0.83521  -0.83177
 Alpha  occ. eigenvalues --   -0.82869  -0.82624  -0.82603  -0.82422  -0.81179
 Alpha  occ. eigenvalues --   -0.81102  -0.80802  -0.80079  -0.79888  -0.79187
 Alpha  occ. eigenvalues --   -0.78307  -0.78189  -0.77671  -0.77168  -0.76905
 Alpha  occ. eigenvalues --   -0.76363  -0.76021  -0.75483  -0.75110  -0.74780
 Alpha  occ. eigenvalues --   -0.74625  -0.72832  -0.72219  -0.71980  -0.71576
 Alpha  occ. eigenvalues --   -0.71329  -0.71019  -0.70939  -0.70486  -0.69784
 Alpha  occ. eigenvalues --   -0.69270  -0.67737  -0.67148  -0.66882  -0.65778
 Alpha  occ. eigenvalues --   -0.64007  -0.63612  -0.63579  -0.63062  -0.62931
 Alpha  occ. eigenvalues --   -0.62066  -0.61856  -0.61308  -0.60834  -0.60312
 Alpha  occ. eigenvalues --   -0.60161  -0.59993  -0.59409  -0.59338  -0.58875
 Alpha  occ. eigenvalues --   -0.58698  -0.57657  -0.57421  -0.55126  -0.54887
 Alpha  occ. eigenvalues --   -0.54225  -0.54072  -0.54042  -0.53545  -0.53176
 Alpha  occ. eigenvalues --   -0.53064  -0.52737  -0.52626  -0.52038  -0.51665
 Alpha  occ. eigenvalues --   -0.51018  -0.50840  -0.50408  -0.50138  -0.49956
 Alpha  occ. eigenvalues --   -0.49602  -0.49564  -0.49259  -0.49057  -0.48609
 Alpha  occ. eigenvalues --   -0.48507  -0.48270  -0.47855  -0.47529  -0.47366
 Alpha  occ. eigenvalues --   -0.47339  -0.47134  -0.46949  -0.46612  -0.46588
 Alpha  occ. eigenvalues --   -0.46302  -0.46297  -0.46187  -0.46092  -0.45745
 Alpha  occ. eigenvalues --   -0.45654  -0.45631  -0.45468  -0.45206  -0.44771
 Alpha  occ. eigenvalues --   -0.44653  -0.44489  -0.44415  -0.44277  -0.44178
 Alpha  occ. eigenvalues --   -0.44070  -0.43896  -0.43832  -0.43706  -0.43477
 Alpha  occ. eigenvalues --   -0.43417  -0.43218  -0.43140  -0.43128  -0.42902
 Alpha  occ. eigenvalues --   -0.42688  -0.42600  -0.42528  -0.42318  -0.42172
 Alpha  occ. eigenvalues --   -0.42056  -0.41884  -0.41688  -0.41675  -0.41564
 Alpha  occ. eigenvalues --   -0.41345  -0.41139  -0.41090  -0.40870  -0.40769
 Alpha  occ. eigenvalues --   -0.40617  -0.40581  -0.40399  -0.40227  -0.40116
 Alpha  occ. eigenvalues --   -0.39961  -0.39740  -0.39658  -0.39557  -0.39338
 Alpha  occ. eigenvalues --   -0.39015  -0.38833  -0.38803  -0.38672  -0.38447
 Alpha  occ. eigenvalues --   -0.38392  -0.38225  -0.38136  -0.37918  -0.37912
 Alpha  occ. eigenvalues --   -0.37685  -0.37562  -0.37464  -0.37313  -0.37048
 Alpha  occ. eigenvalues --   -0.37043  -0.36962  -0.36845  -0.36378  -0.36302
 Alpha  occ. eigenvalues --   -0.36139  -0.35962  -0.35881  -0.35807  -0.35592
 Alpha  occ. eigenvalues --   -0.35339  -0.34895  -0.34778  -0.34106  -0.33816
 Alpha  occ. eigenvalues --   -0.33610  -0.33262  -0.33148  -0.32750  -0.32692
 Alpha  occ. eigenvalues --   -0.32078  -0.31968  -0.31637  -0.31534  -0.31310
 Alpha  occ. eigenvalues --   -0.31252  -0.30687  -0.30052  -0.29774  -0.29412
 Alpha  occ. eigenvalues --   -0.29409  -0.29088  -0.28879  -0.27432  -0.26892
 Alpha  occ. eigenvalues --   -0.26578  -0.26191  -0.26146  -0.25891  -0.25589
 Alpha  occ. eigenvalues --   -0.25098  -0.25062  -0.24965  -0.21413  -0.21201
 Alpha  occ. eigenvalues --   -0.19181  -0.18797
 Alpha virt. eigenvalues --   -0.11425  -0.11272  -0.05527  -0.05155  -0.04775
 Alpha virt. eigenvalues --   -0.03768  -0.02650  -0.02318  -0.01445  -0.01444
 Alpha virt. eigenvalues --   -0.00122   0.00179   0.00384   0.00525   0.01258

 Mulliken charges:
               1
     1  Mg  11.999686
     2  C    6.007285
     3  C    5.980743
     4  C    5.992116
     5  C    6.022268
     6  N    6.992695
     7  C    5.972371
     8  C    6.013334
     9  C    5.989480
    10  C    6.036707
    11  C    5.998757
    12  C    6.001339
    13  C    6.004344
    14  H    0.988527
    15  N    6.994934
    16  C    6.046868
    17  C    6.012193
    18  C    6.018781
    19  C    6.028880
    20  C    5.994427
    21  C    6.013313
    22  O    8.020877
    23  C    5.996643
    24  N    7.014038
    25  C    6.023307
    26  C    5.992127
    27  C    6.007324
    28  C    5.964495
    29  C    5.998477
    30  C    6.002242
    31  C    6.000786
    32  N    6.999518
    33  C    5.958685
    34  C    5.978909
    35  C    5.990602
    36  C    5.976485
    37  C    6.001097
    38  C    5.982410
    39  O    7.970947
    40  C    5.998512
    41  C    5.994696
    42  O    7.994464
    43  O    7.996861
    44  C    6.002652
    45  H    1.008640
    46  H    1.007790
    47  H    0.993405
    48  H    0.997312
    49  H    1.002873
    50  H    1.002502
    51  H    1.012709
    52  H    0.995452
    53  H    0.988713
    54  H    1.007937
    55  H    1.002811
    56  H    0.996132
    57  H    1.017549
    58  H    1.014956
    59  H    1.017306
    60  H    1.011516
    61  H    1.012418
    62  H    1.008123
    63  H    1.001769
    64  H    0.999370
    65  H    0.999643
    66  H    0.996350
    67  H    1.009797
    68  H    1.004784
    69  H    0.991896
    70  H    1.003387
    71  H    0.996168
    72  H    0.996945
    73  H    0.987897
    74  H    0.979103
    75  H    0.983089
    76  H    0.990437
    77  H    0.994020
    78  H    0.996910
    79  H    0.995090
    80  Mg  12.000007
    81  C    6.000036
    82  C    6.000003
    83  C    5.999938
    84  C    5.999994
    85  N    6.999982
    86  C    5.999924
    87  C    6.000038
    88  C    5.999994
    89  C    6.000085
    90  C    5.999993
    91  C    5.999994
    92  C    6.000016
    93  H    0.999991
    94  N    7.000024
    95  C    6.000058
    96  C    6.000133
    97  C    6.000032
    98  C    6.000083
    99  C    5.999958
   100  C    5.999993
   101  O    8.000070
   102  C    5.999980
   103  N    6.999987
   104  C    6.000060
   105  C    5.999982
   106  C    6.000012
   107  C    5.999923
   108  C    6.000000
   109  C    6.000028
   110  C    6.000008
   111  N    6.999990
   112  C    5.999937
   113  C    5.999916
   114  C    5.999947
   115  C    5.999938
   116  C    6.000006
   117  C    5.999992
   118  O    7.999889
   119  C    5.999986
   120  C    6.000012
   121  O    7.999982
   122  O    7.999997
   123  C    6.000015
   124  H    1.000057
   125  H    1.000005
   126  H    0.999950
   127  H    1.000017
   128  H    1.000026
   129  H    1.000036
   130  H    0.999987
   131  H    1.000046
   132  H    1.000011
   133  H    1.000012
   134  H    0.999983
   135  H    0.999994
   136  H    1.000054
   137  H    1.000068
   138  H    1.000080
   139  H    1.000016
   140  H    1.000011
   141  H    1.000031
   142  H    0.999991
   143  H    0.999989
   144  H    1.000000
   145  H    1.000004
   146  H    0.999990
   147  H    1.000003
   148  H    0.999966
   149  H    0.999983
   150  H    0.999974
   151  H    0.999994
   152  H    0.999937
   153  H    0.999947
   154  H    0.999952
   155  H    0.999986
   156  H    0.999990
   157  H    0.999981
   158  H    0.999999
 Sum of Mulliken charges = 624.00000

 Dipole moment (field-independent basis, Debye):
    X=             -6.7054    Y=             -7.9867    Z=              0.7878  Tot=             10.4581
 Quadrupole moment (field-independent basis, Debye-Ang):
   XX=            370.0750   YY=              2.6735   ZZ=             -1.9498
   XY=            225.9467   XZ=            -22.3927   YZ=              1.3620

 Normal termination of Gaussian 16 at Thu Oct 14 10:59:00 2021.
