 Gaussian 16, Revision A.03,
 Gaussian 16:  ES64L-G16RevA.03 25-Dec-2016

 --------------------------------------------------------
 #p PBE1PBE/Def2SVP td=(nstates=5) density=(transition=1)
 --------------------------------------------------------

 --------------------------------
 TDDFT excited states in gaussian
 --------------------------------
 Symbolic Z-matrix:
 Charge =  0 Multiplicity = 1

                         Standard orientation:
 ---------------------------------------------------------------------
 Center     Atomic      Atomic             Coordinates (Angstroms)
 Number     Number       Type             X           Y           Z
 ---------------------------------------------------------------------
      1         12           0      -31.210312    0.066794    0.023184
      2          6           0      -27.837248   -0.472339   -0.383813
      3          6           0      -31.427353   -2.400601    2.387981
      4          6           0      -34.600394    0.768278    0.558601
      5          6           0      -30.955469    3.069036   -1.664359
      6          7           0      -29.681083   -1.108923    1.013353
      7          6           0      -28.367450   -1.335545    0.593712
      8          6           0      -27.664407   -2.362495    1.484991
      9          6           0      -28.903903   -3.001189    2.161555
     10          6           0      -30.109958   -2.070086    1.921549
     11          6           0      -29.117038   -4.478455    1.764887
     12          6           0      -26.681655   -1.702853    2.472630
     13          6           0      -25.302703   -2.418485    2.682637
     14          1           0      -24.692446   -2.279318    4.022467
     15          7           0      -32.756415   -0.736939    1.234084
     16          6           0      -32.672113   -1.799538    2.066909
     17          6           0      -33.951636   -2.260405    2.516166
     18          6           0      -34.912156   -1.445571    1.894668
     19          6           0      -34.094577   -0.404230    1.144933
     20          6           0      -34.169532   -3.514472    3.365203
     21          6           0      -36.474869   -1.555695    2.021364
     22          8           0      -36.951402   -2.403900    2.818338
     23          6           0      -37.493644   -0.714581    1.138044
     24          7           0      -32.518357    1.842206   -0.229235
     25          6           0      -33.862890    1.799414   -0.064581
     26          6           0      -34.567469    2.984283   -0.673842
     27          6           0      -33.419681    3.764397   -1.350440
     28          6           0      -32.226386    2.835377   -1.113046
     29          6           0      -35.768299    2.620952   -1.608957
     30          6           0      -33.280942    5.271367   -0.822746
     31          6           0      -33.787612    6.340023   -1.798242
     32          7           0      -29.742617    1.092419   -0.905608
     33          6           0      -29.748597    2.318725   -1.606108
     34          6           0      -28.469258    2.480619   -2.309404
     35          6           0      -27.744333    1.368206   -1.905222
     36          6           0      -28.523838    0.659499   -0.976248
     37          6           0      -28.002205    3.564744   -3.213382
     38          6           0      -26.440058    0.703611   -2.038145
     39          8           0      -25.506947    0.866111   -2.841604
     40          6           0      -26.461102   -0.555429   -1.081657
     41          6           0      -26.286830   -1.850055   -1.864268
     42          8           0      -26.847596   -2.177726   -2.914772
     43          8           0      -25.321931   -2.514613   -1.167260
     44          6           0      -24.804822   -3.730226   -1.773084
     45          1           0      -31.510722   -3.188915    3.138902
     46          1           0      -35.656353    1.046073    0.577207
     47          1           0      -30.808848    3.998544   -2.218101
     48          1           0      -27.093929   -3.054491    0.864588
     49          1           0      -28.646059   -2.982471    3.220409
     50          1           0      -28.279960   -5.055204    1.371550
     51          1           0      -29.834183   -4.457980    0.944425
     52          1           0      -29.507276   -5.074319    2.589637
     53          1           0      -27.130017   -1.501401    3.445127
     54          1           0      -26.563480   -0.682193    2.107981
     55          1           0      -24.594013   -2.042783    1.944644
     56          1           0      -25.449762   -3.492052    2.556611
     57          1           0      -34.846970   -4.143157    2.787776
     58          1           0      -34.419564   -3.227663    4.386709
     59          1           0      -33.203828   -4.019695    3.351527
     60          1           0      -37.614801    0.240868    1.647126
     61          1           0      -38.433581   -1.265777    1.154082
     62          1           0      -37.131719   -0.779695    0.111592
     63          1           0      -34.986614    3.578133    0.138516
     64          1           0      -33.418640    3.777391   -2.440112
     65          1           0      -35.740019    3.190335   -2.537584
     66          1           0      -36.735125    2.802373   -1.139808
     67          1           0      -35.768374    1.545985   -1.784578
     68          1           0      -32.243886    5.557843   -0.648450
     69          1           0      -33.753958    5.369300    0.154314
     70          1           0      -34.296985    7.129547   -1.245428
     71          1           0      -34.485987    5.891521   -2.504466
     72          1           0      -33.001531    6.803332   -2.394215
     73          1           0      -28.845883    4.234105   -3.381619
     74          1           0      -27.458913    3.137746   -4.056590
     75          1           0      -27.312127    4.167659   -2.622165
     76          1           0      -25.713399   -0.489280   -0.290851
     77          1           0      -25.576542   -4.383069   -2.182914
     78          1           0      -24.165728   -4.359899   -1.154105
     79          1           0      -24.139002   -3.474036   -2.597587
     80         12           0       30.422075    0.723526    0.437891
     81          6           0       30.982157   -2.513947   -0.985650
     82          6           0       28.736002    1.632791   -2.412425
     83          6           0       30.247229    3.927652    1.491845
     84          6           0       32.946159   -0.046824    2.778173
     85          7           0       29.925161   -0.342396   -1.449875
     86          6           0       30.175901   -1.674349   -1.815396
     87          6           0       29.512541   -1.955535   -3.139245
     88          6           0       29.297381   -0.497358   -3.727034
     89          6           0       29.381001    0.364844   -2.433258
     90          6           0       30.469267   -0.203634   -4.730164
     91          6           0       28.249027   -2.881451   -3.041521
     92          6           0       28.268814   -3.876124   -4.090102
     93          1           0       27.233248   -5.093956   -3.892071
     94          7           0       29.425893    2.441350   -0.344621
     95          6           0       28.766639    2.592424   -1.499548
     96          6           0       28.177075    3.895322   -1.540574
     97          6           0       28.606502    4.599658   -0.435415
     98          6           0       29.462061    3.620335    0.381214
     99          6           0       27.392318    4.413912   -2.787298
    100          6           0       28.237594    6.029997    0.008931
    101          8           0       28.749636    6.485122    1.000211
    102          6           0       27.182759    6.820794   -0.728403
    103          7           0       31.674501    1.842509    1.766188
    104          6           0       31.271144    3.128287    2.109235
    105          6           0       31.970594    3.591441    3.345634
    106          6           0       32.828949    2.305727    3.781693
    107          6           0       32.424826    1.269142    2.759944
    108          6           0       32.741529    4.852421    3.145991
    109          6           0       32.658490    1.772703    5.308738
    110          6           0       33.851260    1.765305    6.180855
    111          7           0       31.695840   -0.930303    0.898109
    112          6           0       32.655050   -1.052306    1.878040
    113          6           0       33.208418   -2.474423    1.813206
    114          6           0       32.500624   -3.119970    0.779508
    115          6           0       31.629260   -2.121106    0.219543
    116          6           0       34.332413   -3.012143    2.709322
    117          6           0       32.472782   -4.337057    0.026252
    118          8           0       33.111320   -5.402242    0.182639
    119          6           0       31.619318   -3.954707   -1.251905
    120          6           0       30.643884   -5.150475   -1.468638
    121          8           0       29.454902   -5.075095   -1.108243
    122          8           0       31.273530   -6.140724   -2.147401
    123          6           0       30.385250   -7.353486   -2.163733
    124          1           0       28.016677    1.860719   -3.202241
    125          1           0       30.191793    4.953589    1.863563
    126          1           0       33.660564   -0.411274    3.519115
    127          1           0       30.280336   -2.414980   -3.761330
    128          1           0       28.350216   -0.411698   -4.258431
    129          1           0       31.422949   -0.006432   -4.241197
    130          1           0       30.175448    0.619473   -5.380134
    131          1           0       30.596436   -1.068329   -5.381909
    132          1           0       27.395122   -2.258613   -3.309081
    133          1           0       28.115162   -3.286114   -2.038031
    134          1           0       29.209043   -4.427811   -4.091040
    135          1           0       28.063071   -3.363121   -5.029892
    136          1           0       26.435756    4.716694   -2.361464
    137          1           0       27.193927    3.661865   -3.550804
    138          1           0       27.951005    5.216523   -3.268554
    139          1           0       27.114829    7.832992   -0.329572
    140          1           0       26.342704    6.179106   -0.462790
    141          1           0       27.436039    6.816006   -1.788518
    142          1           0       31.144077    3.745004    4.039708
    143          1           0       33.876903    2.577452    3.657444
    144          1           0       32.185067    5.600261    3.709536
    145          1           0       32.711928    5.211837    2.117491
    146          1           0       33.788444    4.816790    3.448190
    147          1           0       32.399890    0.725495    5.152189
    148          1           0       31.796849    2.280195    5.740417
    149          1           0       34.114526    0.751100    6.480030
    150          1           0       33.380026    2.249846    7.035310
    151          1           0       34.660466    2.396034    5.810274
    152          1           0       35.252550   -2.863676    2.145271
    153          1           0       34.213131   -4.070806    2.939575
    154          1           0       34.308179   -2.483663    3.662359
    155          1           0       32.371861   -3.885375   -2.036193
    156          1           0       30.321971   -7.888780   -1.216480
    157          1           0       30.629755   -8.087800   -2.930575
    158          1           0       29.403798   -6.989511   -2.468329
 ---------------------------------------------------------------------

 SCF Done:  E(RPBE1PBE) =  -4067.36226017     A.U. after   16 cycles

 Excitation energies and oscillator strengths:

 Excited State   1:      Singlet-A      1.7891 eV  693.00 nm  f=0.0000  <S**2>=0.000
     312 -> 313        0.70711
 This state for optimization and/or second-order correction.
 Total Energy, E(TD-HF/TD-DFT) =  -4067.29651182
 Copying the excited state density for this state as the 1-particle RhoCI density.

 Excited State   2:      Singlet-A      1.8312 eV  677.06 nm  f=0.3432  <S**2>=0.000
     310 -> 315       -0.18212
     312 -> 314        0.68906

 Excited State   3:      Singlet-A      1.8386 eV  674.35 nm  f=0.3558  <S**2>=0.000
     309 -> 316       -0.16792
     311 -> 313        0.69254
     311 <- 313       -0.10465

 Excited State   4:      Singlet-A      2.2418 eV  553.06 nm  f=0.0970  <S**2>=0.000
     309 -> 313        0.64066
     311 -> 316        0.28299

 Excited State   5:      Singlet-A      2.2488 eV  551.32 nm  f=0.0000  <S**2>=0.000
     311 -> 314        0.70711

 The electronic state is 1-A.
 Alpha  occ. eigenvalues --  -46.92803 -46.92589 -19.27088 -19.26840 -19.20590
 Alpha  occ. eigenvalues --  -19.20068 -19.19708 -19.19463 -19.19170 -19.18921
 Alpha  occ. eigenvalues --  -14.42008 -14.41716 -14.41650 -14.41491 -14.39731
 Alpha  occ. eigenvalues --  -14.38918 -14.38915 -14.38896 -10.37061 -10.36785
 Alpha  occ. eigenvalues --  -10.33707 -10.32596 -10.32210 -10.32127 -10.29730
 Alpha  occ. eigenvalues --  -10.29316 -10.29024 -10.29019 -10.28899 -10.28879
 Alpha  occ. eigenvalues --  -10.28843 -10.28791 -10.28737 -10.28602 -10.28486
 Alpha  occ. eigenvalues --  -10.28452 -10.27814 -10.27730 -10.27221 -10.26703
 Alpha  occ. eigenvalues --  -10.26655 -10.26475 -10.26387 -10.26361 -10.26301
 Alpha  occ. eigenvalues --  -10.26199 -10.26082 -10.25978 -10.25964 -10.25941
 Alpha  occ. eigenvalues --  -10.25878 -10.25873 -10.25819 -10.25763 -10.25734
 Alpha  occ. eigenvalues --  -10.25716 -10.25544 -10.25460 -10.25292 -10.25262
 Alpha  occ. eigenvalues --  -10.25259 -10.25255 -10.25223 -10.24821 -10.24785
 Alpha  occ. eigenvalues --  -10.24720 -10.24646 -10.24625 -10.24229 -10.24197
 Alpha  occ. eigenvalues --  -10.24159 -10.24076 -10.24034 -10.23776 -10.23671
 Alpha  occ. eigenvalues --  -10.23597 -10.23592 -10.23580 -10.23534 -10.23468
 Alpha  occ. eigenvalues --  -10.23247 -10.22909 -10.22790 -10.22712 -10.22619
 Alpha  occ. eigenvalues --  -10.22504  -3.14725  -3.14700  -1.87559  -1.87505
 Alpha  occ. eigenvalues --   -1.87085  -1.87061  -1.86953  -1.86947  -1.11697
 Alpha  occ. eigenvalues --   -1.10852  -1.06264  -1.03267  -1.03144  -1.02728
 Alpha  occ. eigenvalues --   -1.02682  -1.01973  -0.99435  -0.98745  -0.98563
 Alpha  occ. eigenvalues --   -0.98028  -0.97575  -0.97362  -0.96753  -0.96248
 Alpha  occ. eigenvalues --   -0.85887  -0.85676  -0.83188  -0.83187  -0.83111
 Alpha  occ. eigenvalues --   -0.82981  -0.82921  -0.82490  -0.81783  -0.81585
 Alpha  occ. eigenvalues --   -0.81504  -0.81265  -0.80592  -0.79936  -0.78677
 Alpha  occ. eigenvalues --   -0.78586  -0.78232  -0.78143  -0.76858  -0.76801
 Alpha  occ. eigenvalues --   -0.76535  -0.75801  -0.75329  -0.75045  -0.74788
 Alpha  occ. eigenvalues --   -0.74536  -0.72367  -0.72342  -0.71860  -0.71737
 Alpha  occ. eigenvalues --   -0.70994  -0.70914  -0.70254  -0.69814  -0.69627
 Alpha  occ. eigenvalues --   -0.69231  -0.67218  -0.66592  -0.66160  -0.65959
 Alpha  occ. eigenvalues --   -0.63553  -0.63381  -0.63131  -0.62356  -0.62333
 Alpha  occ. eigenvalues --   -0.61862  -0.61584  -0.60712  -0.60583  -0.59684
 Alpha  occ. eigenvalues --   -0.59517  -0.59443  -0.59353  -0.59141  -0.59003
 Alpha  occ. eigenvalues --   -0.58811  -0.57347  -0.56687  -0.54506  -0.54399
 Alpha  occ. eigenvalues --   -0.54198  -0.53688  -0.53562  -0.53212  -0.53015
 Alpha  occ. eigenvalues --   -0.52833  -0.52357  -0.52031  -0.51780  -0.51551
 Alpha  occ. eigenvalues --   -0.50517  -0.50507  -0.50432  -0.50029  -0.49822
 Alpha  occ. eigenvalues --   -0.49661  -0.49589  -0.48909  -0.48575  -0.48421
 Alpha  occ. eigenvalues --   -0.48111  -0.48060  -0.47963  -0.47860  -0.47591
 Alpha  occ. eigenvalues --   -0.47337  -0.47291  -0.47156  -0.47035  -0.46986
 Alpha  occ. eigenvalues --   -0.46613  -0.46484  -0.46155  -0.45914  -0.45755
 Alpha  occ. eigenvalues --   -0.45611  -0.45568  -0.45484  -0.45209  -0.45048
 Alpha  occ. eigenvalues --   -0.44890  -0.44598  -0.44529  -0.44123  -0.44009
 Alpha  occ. eigenvalues --   -0.43981  -0.43831  -0.43692  -0.43426  -0.43307
 Alpha  occ. eigenvalues --   -0.43219  -0.42867  -0.42835  -0.42779  -0.42574
 Alpha  occ. eigenvalues --   -0.42520  -0.42488  -0.42254  -0.42142  -0.42126
 Alpha  occ. eigenvalues --   -0.41999  -0.41520  -0.41345  -0.41310  -0.41217
 Alpha  occ. eigenvalues --   -0.41166  -0.40996  -0.40920  -0.40709  -0.40513
 Alpha  occ. eigenvalues --   -0.40397  -0.40165  -0.40081  -0.39549  -0.39491
 Alpha  occ. eigenvalues --   -0.39271  -0.39203  -0.39091  -0.38781  -0.38756
 Alpha  occ. eigenvalues --   -0.38696  -0.38582  -0.38484  -0.38306  -0.38280
 Alpha  occ. eigenvalues --   -0.38188  -0.37818  -0.37790  -0.37730  -0.37617
 Alpha  occ. eigenvalues --   -0.37334  -0.37264  -0.37144  -0.37001  -0.36866
 Alpha  occ. eigenvalues --   -0.36827  -0.36773  -0.36514  -0.36400  -0.36091
 Alpha  occ. eigenvalues --   -0.36044  -0.35766  -0.35677  -0.35558  -0.35112
 Alpha  occ. eigenvalues --   -0.34698  -0.34683  -0.34255  -0.33743  -0.33665
 Alpha  occ. eigenvalues --   -0.33466  -0.33381  -0.33125  -0.32958  -0.32391
 Alpha  occ. eigenvalues --   -0.32267  -0.32093  -0.31973  -0.31933  -0.31482
 Alpha  occ. eigenvalues --   -0.31165  -0.30063  -0.29930  -0.29766  -0.29284
 Alpha  occ. eigenvalues --   -0.28978  -0.28680  -0.28366  -0.27108  -0.26969
 Alpha  occ. eigenvalues --   -0.26270  -0.25995  -0.25955  -0.25782  -0.25625
 Alpha  occ. eigenvalues --   -0.25478  -0.25412  -0.25078  -0.21097  -0.21057
 Alpha  occ. eigenvalues --   -0.18740  -0.17923
 Alpha virt. eigenvalues --   -0.11136  -0.10261  -0.05878  -0.05546  -0.04237
 Alpha virt. eigenvalues --   -0.04006  -0.02507  -0.01973  -0.01130  -0.00902
 Alpha virt. eigenvalues --    0.00222   0.00475   0.00680   0.01027   0.01673

 Mulliken charges:
               1
     1  Mg  12.000000
     2  C    6.000000
     3  C    6.000000
     4  C    6.000000
     5  C    6.000000
     6  N    7.000000
     7  C    6.000000
     8  C    6.000000
     9  C    6.000000
    10  C    6.000000
    11  C    6.000000
    12  C    6.000000
    13  C    6.000000
    14  H    1.000000
    15  N    7.000000
    16  C    6.000000
    17  C    6.000000
    18  C    6.000000
    19  C    6.000000
    20  C    6.000000
    21  C    6.000000
    22  O    8.000000
    23  C    6.000000
    24  N    7.000000
    25  C    6.000000
    26  C    6.000000
    27  C    6.000000
    28  C    6.000000
    29  C    6.000000
    30  C    6.000000
    31  C    6.000000
    32  N    7.000000
    33  C    6.000000
    34  C    6.000000
    35  C    6.000000
    36  C    6.000000
    37  C    6.000000
    38  C    6.000000
    39  O    8.000000
    40  C    6.000000
    41  C    6.000000
    42  O    8.000000
    43  O    8.000000
    44  C    6.000000
    45  H    1.000000
    46  H    1.000000
    47  H    1.000000
    48  H    1.000000
    49  H    1.000000
    50  H    1.000000
    51  H    1.000000
    52  H    1.000000
    53  H    1.000000
    54  H    1.000000
    55  H    1.000000
    56  H    1.000000
    57  H    1.000000
    58  H    1.000000
    59  H    1.000000
    60  H    1.000000
    61  H    1.000000
    62  H    1.000000
    63  H    1.000000
    64  H    1.000000
    65  H    1.000000
    66  H    1.000000
    67  H    1.000000
    68  H    1.000000
    69  H    1.000000
    70  H    1.000000
    71  H    1.000000
    72  H    1.000000
    73  H    1.000000
    74  H    1.000000
    75  H    1.000000
    76  H    1.000000
    77  H    1.000000
    78  H    1.000000
    79  H    1.000000
    80  Mg  12.000000
    81  C    6.000000
    82  C    6.000000
    83  C    6.000000
    84  C    6.000000
    85  N    7.000000
    86  C    6.000000
    87  C    6.000000
    88  C    6.000000
    89  C    6.000000
    90  C    6.000000
    91  C    6.000000
    92  C    6.000000
    93  H    1.000000
    94  N    7.000000
    95  C    6.000000
    96  C    6.000000
    97  C    6.000000
    98  C    6.000000
    99  C    6.000000
   100  C    6.000000
   101  O    8.000000
   102  C    6.000000
   103  N    7.000000
   104  C    6.000000
   105  C    6.000000
   106  C    6.000000
   107  C    6.000000
   108  C    6.000000
   109  C    6.000000
   110  C    6.000000
   111  N    7.000000
   112  C    6.000000
   113  C    6.000000
   114  C    6.000000
   115  C    6.000000
   116  C    6.000000
   117  C    6.000000
   118  O    8.000000
   119  C    6.000000
   120  C    6.000000
   121  O    8.000000
   122  O    8.000000
   123  C    6.000000
   124  H    1.000000
   125  H    1.000000
   126  H    1.000000
   127  H    1.000000
   128  H    1.000000
   129  H    1.000000
   130  H    1.000000
   131  H    1.000000
   132  H    1.000000
   133  H    1.000000
   134  H    1.000000
   135  H    1.000000
   136  H    1.000000
   137  H    1.000000
   138  H    1.000000
   139  H    1.000000
   140  H    1.000000
   141  H    1.000000
   142  H    1.000000
   143  H    1.000000
   144  H    1.000000
   145  H    1.000000
   146  H    1.000000
   147  H    1.000000
   148  H    1.000000
   149  H    1.000000
   150  H    1.000000
   151  H    1.000000
   152  H    1.000000
   153  H    1.000000
   154  H    1.000000
   155  H    1.000000
   156  H    1.000000
   157  H    1.000000
   158  H    1.000000
 Sum of Mulliken charges = 624.00000

 Dipole moment (field-independent basis, Debye):
    X=              0.0000    Y=             -0.0000    Z=              0.0000  Tot=              0.0000
 Quadrupole moment (field-independent basis, Debye-Ang):
   XX=              0.0000   YY=             -0.0000   ZZ=              0.0000
   XY=             -0.0000   XZ=              0.0000   YZ=              0.0000

 Normal termination of Gaussian 16 at Fri Oct 15 16:20:42 2021.
