 Gaussian 16, Revision A.03,
 Gaussian 16:  ES64L-G16RevA.03 25-Dec-2016

 --------------------------------------------------------
 #p PBE1PBE/Def2SVP td=(nstates=5) density=(transition=1)
 --------------------------------------------------------

 --------------------------------
 TDDFT excited states in gaussian
 --------------------------------
 Symbolic Z-matrix:
 Charge =  0 Multiplicity = 1

                         Standard orientation:
 ---------------------------------------------------------------------
 Center     Atomic      Atomic             Coordinates (Angstroms)
 Number     Number       Type             X           Y           Z
 ---------------------------------------------------------------------
      1         12           0       -9.792078   -0.850882    0.493227
      2          6           0       -9.898916    2.533349   -0.377234
      3          6           0       -7.878027    0.026598    3.226937
      4          6           0       -9.064579   -4.147472    0.997510
      5          6           0      -11.137453   -1.613095   -2.605479
      6          7           0       -9.099982    1.054824    1.315488
      7          6           0       -9.445049    2.285107    0.914680
      8          6           0       -9.110495    3.402690    1.913415
      9          6           0       -8.284554    2.611698    2.999030
     10          6           0       -8.488754    1.056359    2.558179
     11          6           0       -6.793126    2.977924    3.157819
     12          6           0      -10.325338    4.146747    2.468270
     13          6           0      -10.006287    5.585501    2.913546
     14          1           0       -8.567822    6.107888    2.791780
     15          7           0       -8.737646   -1.937949    1.957660
     16          6           0       -8.054354   -1.389727    3.067586
     17          6           0       -7.527028   -2.481330    3.861535
     18          6           0       -7.809537   -3.726101    3.184740
     19          6           0       -8.592100   -3.319948    2.018432
     20          6           0       -6.894511   -2.229033    5.202483
     21          6           0       -7.538609   -5.232354    3.632120
     22          8           0       -7.954199   -6.195400    3.034692
     23          6           0       -6.693607   -5.421128    4.873246
     24          7           0       -9.973768   -2.597554   -0.670556
     25          6           0       -9.646275   -3.852836   -0.248530
     26          6           0      -10.033701   -4.956016   -1.300950
     27          6           0      -10.735098   -4.116038   -2.367088
     28          6           0      -10.598543   -2.697132   -1.847787
     29          6           0       -8.965838   -5.984972   -1.851522
     30          6           0      -12.213004   -4.541122   -2.532650
     31          6           0      -13.264291   -3.986700   -1.545829
     32          7           0      -10.562595    0.185665   -1.155926
     33          6           0      -11.078883   -0.249007   -2.349105
     34          6           0      -11.472082    0.845814   -3.171353
     35          6           0      -11.011389    2.021488   -2.424523
     36          6           0      -10.477858    1.557087   -1.285857
     37          6           0      -12.134606    0.894819   -4.476537
     38          6           0      -10.810599    3.463218   -2.470136
     39          8           0      -11.204386    4.294201   -3.295491
     40          6           0      -10.090633    3.884329   -1.155252
     41          6           0       -8.834486    4.574516   -1.429772
     42          8           0       -7.776206    4.046305   -1.754238
     43          8           0       -9.068293    5.925305   -1.493149
     44          6           0       -8.087134    6.807300   -2.154580
     45          1           0       -7.261038    0.395097    4.049375
     46          1           0       -8.999723   -5.210613    1.238174
     47          1           0      -11.650025   -1.847400   -3.540759
     48          1           0       -8.387889    4.106321    1.500701
     49          1           0       -8.759069    2.599583    3.979598
     50          1           0       -6.754108    3.167868    4.230285
     51          1           0       -6.555159    3.878702    2.592573
     52          1           0       -6.159981    2.157316    2.820212
     53          1           0      -10.791292    3.611265    3.294580
     54          1           0      -11.105016    4.211212    1.708820
     55          1           0      -10.323175    5.544760    3.955875
     56          1           0      -10.690808    6.310003    2.470066
     57          1           0       -6.773796   -1.147608    5.267133
     58          1           0       -5.937470   -2.749247    5.247261
     59          1           0       -7.495943   -2.598104    6.034601
     60          1           0       -5.620927   -5.251329    4.774833
     61          1           0       -6.897756   -6.418296    5.263205
     62          1           0       -7.130109   -4.688121    5.551586
     63          1           0      -10.732177   -5.554370   -0.716412
     64          1           0      -10.181001   -4.271502   -3.292077
     65          1           0       -8.955202   -6.093880   -2.935375
     66          1           0       -9.221058   -6.972242   -1.467788
     67          1           0       -7.995770   -5.705133   -1.439644
     68          1           0      -12.202445   -5.629929   -2.500664
     69          1           0      -12.468087   -4.254145   -3.553210
     70          1           0      -13.906949   -4.839250   -1.327653
     71          1           0      -13.899822   -3.215258   -1.980053
     72          1           0      -12.843497   -3.515879   -0.658068
     73          1           0      -12.870930    1.697007   -4.441863
     74          1           0      -12.622320   -0.027345   -4.792675
     75          1           0      -11.440465    1.265399   -5.231035
     76          1           0      -10.817869    4.520087   -0.650458
     77          1           0       -7.204049    6.262502   -2.490239
     78          1           0       -7.757671    7.543453   -1.420933
     79          1           0       -8.686516    7.199357   -2.975490
     80         12           0        9.747215   -0.616986   -0.289943
     81          6           0        7.958773    2.501041    0.008723
     82          6           0       12.643907    1.174114    0.545800
     83          6           0       11.374266   -3.464851   -0.439143
     84          6           0        6.807267   -2.143963   -1.406264
     85          7           0       10.197513    1.649376    0.197640
     86          6           0        9.310363    2.644321    0.462780
     87          6           0        9.971696    3.829277    1.147590
     88          6           0       11.566309    3.529853    0.996973
     89          6           0       11.481425    2.047478    0.531466
     90          6           0       12.330729    4.506134    0.068140
     91          6           0        9.507747    4.005677    2.632923
     92          6           0        8.901176    5.398833    2.942535
     93          1           0        9.768488    6.269225    4.022667
     94          7           0       11.672837   -1.066325    0.008924
     95          6           0       12.790414   -0.221065    0.323110
     96          6           0       14.067184   -0.960626    0.462496
     97          6           0       13.644555   -2.309689    0.225997
     98          6           0       12.203083   -2.316920   -0.074821
     99          6           0       15.424273   -0.321310    0.763428
    100          6           0       14.472494   -3.536479    0.164906
    101          8           0       14.048225   -4.686701    0.192138
    102          6           0       16.004680   -3.374513    0.208323
    103          7           0        9.125233   -2.516487   -0.670829
    104          6           0        9.999120   -3.548304   -0.705549
    105          6           0        9.409719   -4.797246   -1.299752
    106          6           0        7.931841   -4.428847   -1.579337
    107          6           0        7.901270   -2.945473   -1.147197
    108          6           0       10.178514   -5.364409   -2.474662
    109          6           0        6.925031   -5.333393   -0.652409
    110          6           0        5.765175   -6.140456   -1.453441
    111          7           0        7.828592    0.069935   -0.896738
    112          6           0        6.714513   -0.726270   -1.256085
    113          6           0        5.551570    0.161108   -1.371263
    114          6           0        5.993696    1.361487   -0.755391
    115          6           0        7.379655    1.293481   -0.605498
    116          6           0        4.160396   -0.115157   -1.933533
    117          6           0        5.551299    2.764108   -0.515163
    118          8           0        4.487939    3.416975   -0.706147
    119          6           0        6.809103    3.485289    0.106703
    120          6           0        7.066040    4.743979   -0.668231
    121          8           0        7.039618    4.818441   -1.864119
    122          8           0        7.211471    5.792080    0.197667
    123          6           0        7.128057    7.108399   -0.484168
    124          1           0       13.530623    1.797763    0.675566
    125          1           0       11.857767   -4.441767   -0.509212
    126          1           0        5.868513   -2.607075   -1.716499
    127          1           0        9.735935    4.699109    0.534423
    128          1           0       12.079055    3.504464    1.958881
    129          1           0       12.705630    3.988462   -0.815278
    130          1           0       13.158502    4.972438    0.604001
    131          1           0       11.774812    5.384509   -0.259841
    132          1           0       10.333386    3.871395    3.332254
    133          1           0        8.736240    3.283523    2.901403
    134          1           0        7.959455    5.343718    3.489257
    135          1           0        8.658037    6.004104    2.069813
    136          1           0       15.416591    0.686808    1.179046
    137          1           0       16.136459   -0.321517   -0.061672
    138          1           0       15.868398   -0.960291    1.527348
    139          1           0       16.350131   -2.801000   -0.651777
    140          1           0       16.521368   -4.332410    0.276937
    141          1           0       16.254821   -2.823721    1.115038
    142          1           0        9.500621   -5.594330   -0.560614
    143          1           0        7.699532   -4.503413   -2.641273
    144          1           0       10.720076   -6.280787   -2.238408
    145          1           0       10.975284   -4.726664   -2.857295
    146          1           0        9.471828   -5.527522   -3.288613
    147          1           0        6.402609   -4.766220    0.117285
    148          1           0        7.453892   -6.104414   -0.092732
    149          1           0        6.122252   -6.216365   -2.480681
    150          1           0        4.804704   -5.625721   -1.405056
    151          1           0        5.707434   -7.179033   -1.128719
    152          1           0        3.389104    0.465005   -1.427330
    153          1           0        3.905051   -1.143152   -1.673760
    154          1           0        4.300112   -0.017249   -3.010195
    155          1           0        6.497924    3.810310    1.099168
    156          1           0        7.858891    7.101231   -1.292601
    157          1           0        7.500384    7.804717    0.267081
    158          1           0        6.185171    7.415250   -0.936754
 ---------------------------------------------------------------------

 SCF Done:  E(RPBE1PBE) =  -4067.38247874     A.U. after   16 cycles

 Excitation energies and oscillator strengths:

 Excited State   1:      Singlet-A      1.8269 eV  678.67 nm  f=0.3770  <S**2>=0.000
     309 -> 315       -0.18271
     311 -> 313        0.69111
     311 <- 313       -0.10664
 This state for optimization and/or second-order correction.
 Total Energy, E(TD-HF/TD-DFT) =  -4067.31534254
 Copying the excited state density for this state as the 1-particle RhoCI density.

 Excited State   2:      Singlet-A      1.8331 eV  676.36 nm  f=0.0000  <S**2>=0.000
     312 -> 313        0.70707

 Excited State   3:      Singlet-A      1.8754 eV  661.09 nm  f=0.3747  <S**2>=0.000
     310 -> 316       -0.17427
     312 -> 314        0.69053
     312 <- 314       -0.10921

 Excited State   4:      Singlet-A      1.9101 eV  649.09 nm  f=0.0000  <S**2>=0.000
     311 -> 314        0.70708

 Excited State   5:      Singlet-A      2.1482 eV  577.16 nm  f=0.1215  <S**2>=0.000
     310 -> 314        0.66544
     312 -> 316        0.20947

 The electronic state is 1-A.
 Alpha  occ. eigenvalues --  -46.91932 -46.91554 -19.26260 -19.24390 -19.19986
 Alpha  occ. eigenvalues --  -19.19919 -19.19042 -19.19010 -19.19008 -19.18881
 Alpha  occ. eigenvalues --  -14.41920 -14.41594 -14.41556 -14.41356 -14.40273
 Alpha  occ. eigenvalues --  -14.38980 -14.38973 -14.37808 -10.35805 -10.35494
 Alpha  occ. eigenvalues --  -10.33183 -10.32382 -10.32164 -10.32085 -10.29413
 Alpha  occ. eigenvalues --  -10.29116 -10.29058 -10.29047 -10.29005 -10.28654
 Alpha  occ. eigenvalues --  -10.28494 -10.28478 -10.28445 -10.28345 -10.28321
 Alpha  occ. eigenvalues --  -10.28211 -10.28052 -10.27900 -10.27868 -10.27411
 Alpha  occ. eigenvalues --  -10.26837 -10.26809 -10.26771 -10.26491 -10.26422
 Alpha  occ. eigenvalues --  -10.26416 -10.26358 -10.26249 -10.26122 -10.25871
 Alpha  occ. eigenvalues --  -10.25863 -10.25771 -10.25762 -10.25648 -10.25641
 Alpha  occ. eigenvalues --  -10.25577 -10.25455 -10.25427 -10.25383 -10.25339
 Alpha  occ. eigenvalues --  -10.25146 -10.25143 -10.24964 -10.24932 -10.24924
 Alpha  occ. eigenvalues --  -10.24689 -10.24632 -10.24512 -10.24461 -10.24245
 Alpha  occ. eigenvalues --  -10.24033 -10.23974 -10.23905 -10.23878 -10.23599
 Alpha  occ. eigenvalues --  -10.23486 -10.23384 -10.23379 -10.23358 -10.23194
 Alpha  occ. eigenvalues --  -10.23155 -10.23144 -10.23042 -10.22957 -10.22800
 Alpha  occ. eigenvalues --  -10.22447  -3.14151  -3.13659  -1.86990  -1.86525
 Alpha  occ. eigenvalues --   -1.86501  -1.86396  -1.86030  -1.85889  -1.11690
 Alpha  occ. eigenvalues --   -1.09683  -1.06177  -1.04536  -1.03532  -1.03472
 Alpha  occ. eigenvalues --   -1.01845  -1.01293  -0.98938  -0.98622  -0.97860
 Alpha  occ. eigenvalues --   -0.97818  -0.97215  -0.97032  -0.96594  -0.95522
 Alpha  occ. eigenvalues --   -0.86349  -0.85908  -0.83363  -0.82915  -0.82862
 Alpha  occ. eigenvalues --   -0.82734  -0.82337  -0.82308  -0.81679  -0.81286
 Alpha  occ. eigenvalues --   -0.81207  -0.80612  -0.80304  -0.80032  -0.78357
 Alpha  occ. eigenvalues --   -0.78215  -0.77576  -0.77446  -0.76478  -0.76042
 Alpha  occ. eigenvalues --   -0.76003  -0.75464  -0.75207  -0.74970  -0.74421
 Alpha  occ. eigenvalues --   -0.73942  -0.73229  -0.72343  -0.71434  -0.71319
 Alpha  occ. eigenvalues --   -0.71074  -0.71006  -0.70296  -0.70078  -0.69552
 Alpha  occ. eigenvalues --   -0.69278  -0.66999  -0.66788  -0.65817  -0.65426
 Alpha  occ. eigenvalues --   -0.64071  -0.63457  -0.63120  -0.62728  -0.61997
 Alpha  occ. eigenvalues --   -0.61940  -0.61491  -0.60349  -0.60341  -0.59992
 Alpha  occ. eigenvalues --   -0.59148  -0.59007  -0.58959  -0.58832  -0.58528
 Alpha  occ. eigenvalues --   -0.58167  -0.56917  -0.55845  -0.55253  -0.54185
 Alpha  occ. eigenvalues --   -0.53826  -0.53551  -0.53478  -0.53284  -0.52922
 Alpha  occ. eigenvalues --   -0.52722  -0.52439  -0.52200  -0.51857  -0.51699
 Alpha  occ. eigenvalues --   -0.50658  -0.50304  -0.49875  -0.49842  -0.49568
 Alpha  occ. eigenvalues --   -0.49445  -0.49091  -0.49032  -0.48361  -0.48115
 Alpha  occ. eigenvalues --   -0.47934  -0.47709  -0.47327  -0.47235  -0.47126
 Alpha  occ. eigenvalues --   -0.46871  -0.46681  -0.46628  -0.46580  -0.46311
 Alpha  occ. eigenvalues --   -0.46250  -0.46130  -0.46007  -0.45952  -0.45434
 Alpha  occ. eigenvalues --   -0.45398  -0.45047  -0.45022  -0.44661  -0.44659
 Alpha  occ. eigenvalues --   -0.44505  -0.44326  -0.44105  -0.43993  -0.43875
 Alpha  occ. eigenvalues --   -0.43826  -0.43697  -0.43562  -0.43501  -0.43248
 Alpha  occ. eigenvalues --   -0.43028  -0.42910  -0.42765  -0.42764  -0.42675
 Alpha  occ. eigenvalues --   -0.42606  -0.42235  -0.42197  -0.42037  -0.41675
 Alpha  occ. eigenvalues --   -0.41666  -0.41538  -0.41318  -0.41190  -0.40892
 Alpha  occ. eigenvalues --   -0.40879  -0.40758  -0.40684  -0.40415  -0.40297
 Alpha  occ. eigenvalues --   -0.40275  -0.39892  -0.39709  -0.39663  -0.39593
 Alpha  occ. eigenvalues --   -0.39488  -0.39287  -0.39209  -0.38946  -0.38864
 Alpha  occ. eigenvalues --   -0.38702  -0.38552  -0.38431  -0.38336  -0.38128
 Alpha  occ. eigenvalues --   -0.38072  -0.37887  -0.37758  -0.37652  -0.37529
 Alpha  occ. eigenvalues --   -0.37418  -0.37362  -0.37131  -0.37056  -0.36739
 Alpha  occ. eigenvalues --   -0.36734  -0.36361  -0.36216  -0.36119  -0.35805
 Alpha  occ. eigenvalues --   -0.35648  -0.35590  -0.35556  -0.35454  -0.35330
 Alpha  occ. eigenvalues --   -0.35099  -0.34989  -0.34723  -0.34426  -0.33544
 Alpha  occ. eigenvalues --   -0.33361  -0.33222  -0.33212  -0.32673  -0.32574
 Alpha  occ. eigenvalues --   -0.32478  -0.32216  -0.31619  -0.31416  -0.31090
 Alpha  occ. eigenvalues --   -0.30619  -0.30436  -0.29728  -0.29433  -0.29330
 Alpha  occ. eigenvalues --   -0.28853  -0.28547  -0.28318  -0.27104  -0.26498
 Alpha  occ. eigenvalues --   -0.26249  -0.25962  -0.25646  -0.25607  -0.25537
 Alpha  occ. eigenvalues --   -0.25080  -0.24966  -0.24272  -0.20810  -0.20389
 Alpha  occ. eigenvalues --   -0.18885  -0.18777
 Alpha virt. eigenvalues --   -0.11362  -0.11170  -0.05282  -0.04766  -0.04034
 Alpha virt. eigenvalues --   -0.03512  -0.02339  -0.01816  -0.00066   0.00005
 Alpha virt. eigenvalues --    0.00726   0.00849   0.01046   0.01231   0.01318

 Mulliken charges:
               1
     1  Mg  12.000035
     2  C    6.000819
     3  C    6.000279
     4  C    5.999370
     5  C    5.999651
     6  N    7.000500
     7  C    5.998978
     8  C    6.000456
     9  C    5.999849
    10  C    6.000718
    11  C    5.999949
    12  C    6.000113
    13  C    6.000008
    14  H    1.000398
    15  N    6.999943
    16  C    6.001031
    17  C    6.000954
    18  C    6.000766
    19  C    6.000950
    20  C    5.999802
    21  C    6.000466
    22  O    8.000584
    23  C    5.999939
    24  N    6.999722
    25  C    6.001369
    26  C    5.999673
    27  C    6.000344
    28  C    5.999252
    29  C    6.000108
    30  C    6.000198
    31  C    6.000299
    32  N    7.000020
    33  C    5.999461
    34  C    5.998677
    35  C    5.999983
    36  C    5.999293
    37  C    6.000250
    38  C    5.999580
    39  O    7.998944
    40  C    5.999926
    41  C    5.999840
    42  O    8.000588
    43  O    7.999687
    44  C    5.999970
    45  H    1.000622
    46  H    0.999893
    47  H    0.999303
    48  H    1.000342
    49  H    0.999568
    50  H    0.999736
    51  H    1.000792
    52  H    1.000896
    53  H    0.999440
    54  H    0.999987
    55  H    0.999512
    56  H    0.999741
    57  H    1.000644
    58  H    1.001048
    59  H    1.000080
    60  H    1.000891
    61  H    0.999919
    62  H    0.999734
    63  H    0.999545
    64  H    1.000023
    65  H    1.000209
    66  H    0.999573
    67  H    1.000500
    68  H    0.999368
    69  H    0.999912
    70  H    0.999314
    71  H    0.999967
    72  H    0.999891
    73  H    0.999007
    74  H    0.999071
    75  H    0.999331
    76  H    0.999447
    77  H    1.000634
    78  H    0.999736
    79  H    0.999584
    80  Mg  11.995878
    81  C    6.024802
    82  C    6.002423
    83  C    5.971160
    84  C    6.002605
    85  N    7.017518
    86  C    5.967707
    87  C    6.009724
    88  C    5.988907
    89  C    6.027027
    90  C    5.997619
    91  C    6.001197
    92  C    6.002055
    93  H    0.993574
    94  N    6.997230
    95  C    6.030315
    96  C    6.024131
    97  C    6.012569
    98  C    6.026177
    99  C    5.996812
   100  C    6.011716
   101  O    8.031062
   102  C    5.996206
   103  N    6.991313
   104  C    6.035590
   105  C    5.991336
   106  C    6.010574
   107  C    5.971225
   108  C    5.999449
   109  C    6.004519
   110  C    6.000736
   111  N    7.002070
   112  C    5.963356
   113  C    5.969621
   114  C    5.997626
   115  C    5.971523
   116  C    5.998459
   117  C    5.988257
   118  O    7.971076
   119  C    5.996447
   120  C    5.993052
   121  O    7.999983
   122  O    7.998328
   123  C    6.001557
   124  H    1.013214
   125  H    1.001555
   126  H    0.987590
   127  H    1.002512
   128  H    1.000840
   129  H    0.999463
   130  H    1.003389
   131  H    1.012830
   132  H    0.992035
   133  H    1.004528
   134  H    1.002911
   135  H    1.001874
   136  H    1.014643
   137  H    1.018210
   138  H    1.014765
   139  H    1.007344
   140  H    1.013651
   141  H    1.005073
   142  H    0.998238
   143  H    0.996598
   144  H    0.997343
   145  H    0.994598
   146  H    1.008625
   147  H    1.000747
   148  H    0.988388
   149  H    0.996313
   150  H    1.002482
   151  H    0.993965
   152  H    0.986120
   153  H    0.984966
   154  H    0.984198
   155  H    0.995493
   156  H    0.995740
   157  H    0.995303
   158  H    0.999945
 Sum of Mulliken charges = 624.00000

 Dipole moment (field-independent basis, Debye):
    X=             10.0976    Y=             -1.5984    Z=              2.0775  Tot=             10.4323
 Quadrupole moment (field-independent basis, Debye-Ang):
   XX=            189.8538   YY=             -0.8187   ZZ=             -2.1953
   XY=            -18.5789   XZ=             11.0659   YZ=             -1.5235

 Normal termination of Gaussian 16 at Thu Oct 14 21:11:49 2021.
