 Gaussian 16, Revision A.03,
 Gaussian 16:  ES64L-G16RevA.03 25-Dec-2016

 --------------------------------------------------------
 #p PBE1PBE/Def2SVP td=(nstates=5) density=(transition=1)
 --------------------------------------------------------

 --------------------------------
 TDDFT excited states in gaussian
 --------------------------------
 Symbolic Z-matrix:
 Charge =  0 Multiplicity = 1

                         Standard orientation:
 ---------------------------------------------------------------------
 Center     Atomic      Atomic             Coordinates (Angstroms)
 Number     Number       Type             X           Y           Z
 ---------------------------------------------------------------------
      1         12           0       13.526471   -0.755944   -0.125059
      2          6           0       11.920562    2.141787   -1.332695
      3          6           0       15.659951    1.266586    1.655124
      4          6           0       15.159679   -3.463055    1.008386
      5          6           0       11.721858   -2.726683   -2.383984
      6          7           0       13.601445    1.408942    0.173156
      7          6           0       12.922646    2.429400   -0.343261
      8          6           0       13.322872    3.838962    0.139981
      9          6           0       14.700413    3.416146    0.846960
     10          6           0       14.678035    1.907141    0.854514
     11          6           0       15.928693    3.956229    0.155604
     12          6           0       12.265707    4.518384    1.174560
     13          6           0       12.299788    6.049280    1.149181
     14          1           0       10.960384    6.706548    0.727441
     15          7           0       15.105276   -1.099145    1.304458
     16          6           0       15.890627   -0.075326    1.889785
     17          6           0       16.683892   -0.700528    2.923991
     18          6           0       16.544082   -2.077888    2.779330
     19          6           0       15.556349   -2.293595    1.675859
     20          6           0       17.662051    0.048959    3.808815
     21          6           0       17.137817   -3.233261    3.552216
     22          8           0       16.805690   -4.353347    3.294484
     23          6           0       18.082430   -3.024467    4.693553
     24          7           0       13.610361   -2.766940   -0.736563
     25          6           0       14.312682   -3.721793   -0.060750
     26          6           0       13.926733   -5.083523   -0.702227
     27          6           0       12.539378   -4.895138   -1.289325
     28          6           0       12.584832   -3.368076   -1.531787
     29          6           0       14.910406   -5.410361   -1.824905
     30          6           0       11.428352   -5.347238   -0.415692
     31          6           0       11.430053   -4.948158    1.039237
     32          7           0       12.081794   -0.431660   -1.557009
     33          6           0       11.434142   -1.301549   -2.413934
     34          6           0       10.475216   -0.538578   -3.227843
     35          6           0       10.628352    0.794211   -2.807962
     36          6           0       11.581415    0.803828   -1.826353
     37          6           0        9.604237   -1.074949   -4.280291
     38          6           0       10.090223    2.125492   -2.891670
     39          8           0        9.129439    2.589335   -3.573367
     40          6           0       10.928223    3.040644   -1.879098
     41          6           0       11.586527    4.106772   -2.715956
     42          8           0       12.180187    3.865886   -3.725037
     43          8           0       11.510753    5.427554   -2.196612
     44          6           0       12.426021    6.417079   -2.842326
     45          1           0       16.379549    1.891998    2.186471
     46          1           0       15.732526   -4.354266    1.274413
     47          1           0       11.006506   -3.294762   -2.982769
     48          1           0       13.387915    4.520195   -0.709342
     49          1           0       14.617757    3.838746    1.849060
     50          1           0       16.214707    4.852800    0.705329
     51          1           0       15.783618    4.099896   -0.915313
     52          1           0       16.706308    3.235437    0.408126
     53          1           0       12.492041    4.204017    2.193878
     54          1           0       11.255206    4.156874    0.982968
     55          1           0       13.126917    6.234594    0.463584
     56          1           0       12.640050    6.468316    2.095947
     57          1           0       17.337938    1.086977    3.744503
     58          1           0       18.599098   -0.041885    3.260198
     59          1           0       17.632965   -0.291457    4.844086
     60          1           0       17.383433   -2.629878    5.431183
     61          1           0       18.858881   -2.282060    4.510998
     62          1           0       18.523725   -3.973767    4.999112
     63          1           0       13.970199   -5.941909   -0.032761
     64          1           0       12.346860   -5.437339   -2.214503
     65          1           0       14.618144   -5.253852   -2.863314
     66          1           0       15.191642   -6.457501   -1.713558
     67          1           0       15.820197   -4.834751   -1.650685
     68          1           0       11.287162   -6.427265   -0.463312
     69          1           0       10.543014   -4.905605   -0.872738
     70          1           0       10.596358   -4.254820    1.153955
     71          1           0       12.275139   -4.468702    1.534145
     72          1           0       11.173858   -5.827585    1.629848
     73          1           0       10.230584   -1.356840   -5.126586
     74          1           0        8.906840   -0.260798   -4.477187
     75          1           0        9.106620   -1.990919   -3.958911
     76          1           0       10.192420    3.385035   -1.152165
     77          1           0       12.020856    6.736109   -3.802568
     78          1           0       13.435101    6.032192   -2.996588
     79          1           0       12.538881    7.370123   -2.326329
     80         12           0      -13.817069   -0.491582   -0.109248
     81          6           0      -11.623244    1.992930    1.109177
     82          6           0      -16.359760    1.791027   -0.160052
     83          6           0      -15.906134   -2.997792   -0.583387
     84          6           0      -11.237655   -2.861899    0.451173
     85          7           0      -13.910811    1.687043    0.317047
     86          6           0      -12.923216    2.435470    0.767250
     87          6           0      -13.313974    3.892263    0.595607
     88          6           0      -14.890257    3.848361    0.629927
     89          6           0      -15.104563    2.337340    0.243834
     90          6           0      -15.448800    4.330727    2.022444
     91          6           0      -12.850283    4.475685   -0.763832
     92          6           0      -12.749634    6.062699   -0.835683
     93          1           0      -13.123353    6.952761    0.352711
     94          7           0      -15.777866   -0.566538   -0.536261
     95          6           0      -16.710767    0.500394   -0.595300
     96          6           0      -18.015258   -0.049010   -1.032987
     97          6           0      -17.892634   -1.484283   -1.075183
     98          6           0      -16.487306   -1.790392   -0.730299
     99          6           0      -19.202094    0.789523   -1.352982
    100          6           0      -18.908793   -2.637944   -1.432127
    101          8           0      -18.601451   -3.835409   -1.507261
    102          6           0      -20.364079   -2.290353   -1.554849
    103          7           0      -13.629683   -2.666744    0.039822
    104          6           0      -14.617783   -3.469585   -0.253879
    105          6           0      -14.283332   -4.934727   -0.229140
    106          6           0      -12.753125   -4.915022    0.117826
    107          6           0      -12.472563   -3.378653    0.120524
    108          6           0      -15.235424   -5.720977    0.676861
    109          6           0      -11.862314   -5.635776   -0.886222
    110          6           0      -10.675803   -6.480086   -0.297545
    111          7           0      -11.755457   -0.513590    0.567460
    112          6           0      -10.828740   -1.566722    0.695762
    113          6           0       -9.551409   -1.016105    0.993753
    114          6           0       -9.813329    0.346606    1.344772
    115          6           0      -11.122311    0.606803    1.027065
    116          6           0       -8.240175   -1.742074    0.898474
    117          6           0       -9.287938    1.676482    1.736994
    118          8           0       -8.166907    2.007155    2.063191
    119          6           0      -10.529917    2.684777    1.829809
    120          6           0      -10.104242    4.078642    1.502645
    121          8           0       -9.644302    4.461008    0.467309
    122          8           0      -10.214102    4.923416    2.622974
    123          6           0       -9.246731    6.038047    2.708054
    124          1           0      -17.252545    2.404302   -0.018141
    125          1           0      -16.476582   -3.884502   -0.865479
    126          1           0      -10.445932   -3.608822    0.539953
    127          1           0      -12.740620    4.389601    1.377853
    128          1           0      -15.326105    4.483087   -0.142337
    129          1           0      -14.626949    4.583185    2.691627
    130          1           0      -15.874746    3.423292    2.450555
    131          1           0      -16.094979    5.207431    1.976603
    132          1           0      -13.612445    4.143276   -1.469797
    133          1           0      -11.897133    4.005036   -1.004596
    134          1           0      -13.364164    6.333790   -1.695498
    135          1           0      -11.718029    6.259503   -1.128516
    136          1           0      -19.083407    1.869338   -1.434945
    137          1           0      -19.985063    0.702922   -0.600136
    138          1           0      -19.514673    0.428045   -2.332957
    139          1           0      -20.660508   -1.963354   -2.551381
    140          1           0      -20.421192   -1.512288   -0.792637
    141          1           0      -20.910468   -3.174262   -1.226958
    142          1           0      -14.437304   -5.213796   -1.271419
    143          1           0      -12.515741   -5.332112    1.095720
    144          1           0      -15.688124   -5.122209    1.467803
    145          1           0      -14.609817   -6.466168    1.166605
    146          1           0      -16.043028   -6.200839    0.123601
    147          1           0      -11.410888   -4.932865   -1.586183
    148          1           0      -12.567424   -6.165364   -1.526715
    149          1           0      -10.566133   -6.320852    0.775035
    150          1           0       -9.791716   -6.087993   -0.799857
    151          1           0      -10.669522   -7.559312   -0.453795
    152          1           0       -8.401646   -2.678554    1.432577
    153          1           0       -7.399311   -1.223656    1.359587
    154          1           0       -8.032568   -1.998208   -0.140954
    155          1           0      -10.802672    2.799431    2.878397
    156          1           0       -9.807399    6.970488    2.640782
    157          1           0       -8.481187    5.982718    1.933332
    158          1           0       -8.786632    5.940355    3.691314
 ---------------------------------------------------------------------

 SCF Done:  E(RPBE1PBE) =  -4067.35906723     A.U. after   17 cycles

 Excitation energies and oscillator strengths:

 Excited State   1:      Singlet-A      1.8247 eV  679.46 nm  f=0.3781  <S**2>=0.000
     309 -> 316        0.17185
     311 -> 313        0.69421
     311 <- 313       -0.10916
 This state for optimization and/or second-order correction.
 Total Energy, E(TD-HF/TD-DFT) =  -4067.29200911
 Copying the excited state density for this state as the 1-particle RhoCI density.

 Excited State   2:      Singlet-A      1.8893 eV  656.24 nm  f=0.3470  <S**2>=0.000
     310 -> 315       -0.18727
     312 -> 314        0.68538

 Excited State   3:      Singlet-A      1.8985 eV  653.06 nm  f=0.0000  <S**2>=0.000
     312 -> 313        0.70710

 Excited State   4:      Singlet-A      2.0199 eV  613.80 nm  f=0.0000  <S**2>=0.000
     311 -> 314        0.70709

 Excited State   5:      Singlet-A      2.1348 eV  580.77 nm  f=0.0909  <S**2>=0.000
     310 -> 314        0.65943
     312 -> 315        0.23129

 The electronic state is 1-A.
 Alpha  occ. eigenvalues --  -46.91957 -46.91872 -19.25096 -19.23992 -19.20174
 Alpha  occ. eigenvalues --  -19.20139 -19.19805 -19.18978 -19.18842 -19.18645
 Alpha  occ. eigenvalues --  -14.42643 -14.41416 -14.41074 -14.40997 -14.39247
 Alpha  occ. eigenvalues --  -14.39170 -14.38815 -14.37848 -10.36382 -10.35619
 Alpha  occ. eigenvalues --  -10.33569 -10.32211 -10.32031 -10.31999 -10.29590
 Alpha  occ. eigenvalues --  -10.29268 -10.28957 -10.28864 -10.28751 -10.28740
 Alpha  occ. eigenvalues --  -10.28441 -10.28195 -10.28129 -10.28116 -10.27984
 Alpha  occ. eigenvalues --  -10.27937 -10.27875 -10.27790 -10.27715 -10.27423
 Alpha  occ. eigenvalues --  -10.26645 -10.26609 -10.26443 -10.26305 -10.26236
 Alpha  occ. eigenvalues --  -10.26210 -10.26046 -10.25886 -10.25878 -10.25873
 Alpha  occ. eigenvalues --  -10.25793 -10.25753 -10.25710 -10.25504 -10.25475
 Alpha  occ. eigenvalues --  -10.25472 -10.25377 -10.25371 -10.25338 -10.25172
 Alpha  occ. eigenvalues --  -10.25119 -10.25047 -10.24847 -10.24831 -10.24793
 Alpha  occ. eigenvalues --  -10.24521 -10.24514 -10.24451 -10.23880 -10.23859
 Alpha  occ. eigenvalues --  -10.23767 -10.23713 -10.23610 -10.23599 -10.23425
 Alpha  occ. eigenvalues --  -10.23337 -10.23281 -10.23255 -10.23198 -10.23004
 Alpha  occ. eigenvalues --  -10.22815 -10.22733 -10.22517 -10.22516 -10.22332
 Alpha  occ. eigenvalues --  -10.21834  -3.14034  -3.13916  -1.86898  -1.86769
 Alpha  occ. eigenvalues --   -1.86385  -1.86289  -1.86274  -1.86136  -1.10287
 Alpha  occ. eigenvalues --   -1.09993  -1.06569  -1.04824  -1.04530  -1.02159
 Alpha  occ. eigenvalues --   -1.01888  -1.01484  -0.99757  -0.99644  -0.99065
 Alpha  occ. eigenvalues --   -0.97902  -0.97764  -0.96615  -0.96345  -0.95232
 Alpha  occ. eigenvalues --   -0.87339  -0.86300  -0.84191  -0.83648  -0.83514
 Alpha  occ. eigenvalues --   -0.83042  -0.82921  -0.81933  -0.81920  -0.81556
 Alpha  occ. eigenvalues --   -0.81430  -0.81227  -0.80722  -0.80004  -0.78818
 Alpha  occ. eigenvalues --   -0.78130  -0.78059  -0.77832  -0.76753  -0.76742
 Alpha  occ. eigenvalues --   -0.76499  -0.75871  -0.75426  -0.75001  -0.74161
 Alpha  occ. eigenvalues --   -0.74151  -0.72917  -0.72669  -0.71598  -0.71459
 Alpha  occ. eigenvalues --   -0.71430  -0.70740  -0.70505  -0.69712  -0.69363
 Alpha  occ. eigenvalues --   -0.69266  -0.66959  -0.66933  -0.66096  -0.65682
 Alpha  occ. eigenvalues --   -0.64158  -0.63985  -0.63221  -0.62937  -0.62228
 Alpha  occ. eigenvalues --   -0.61709  -0.61326  -0.60914  -0.60369  -0.60127
 Alpha  occ. eigenvalues --   -0.59535  -0.59369  -0.59002  -0.58759  -0.58004
 Alpha  occ. eigenvalues --   -0.57826  -0.56314  -0.55673  -0.54701  -0.54465
 Alpha  occ. eigenvalues --   -0.54383  -0.53703  -0.53684  -0.53545  -0.53052
 Alpha  occ. eigenvalues --   -0.52990  -0.52617  -0.52214  -0.52152  -0.51443
 Alpha  occ. eigenvalues --   -0.50869  -0.50845  -0.50258  -0.49989  -0.49687
 Alpha  occ. eigenvalues --   -0.49167  -0.49000  -0.48717  -0.48573  -0.48425
 Alpha  occ. eigenvalues --   -0.48041  -0.47869  -0.47722  -0.47685  -0.47623
 Alpha  occ. eigenvalues --   -0.47615  -0.47328  -0.47050  -0.46722  -0.46569
 Alpha  occ. eigenvalues --   -0.46448  -0.46265  -0.45968  -0.45886  -0.45882
 Alpha  occ. eigenvalues --   -0.45666  -0.45400  -0.45304  -0.45279  -0.44994
 Alpha  occ. eigenvalues --   -0.44787  -0.44669  -0.44538  -0.44469  -0.44226
 Alpha  occ. eigenvalues --   -0.43965  -0.43895  -0.43765  -0.43655  -0.43645
 Alpha  occ. eigenvalues --   -0.42950  -0.42924  -0.42902  -0.42760  -0.42619
 Alpha  occ. eigenvalues --   -0.42420  -0.42315  -0.42116  -0.42111  -0.41902
 Alpha  occ. eigenvalues --   -0.41854  -0.41707  -0.41368  -0.41024  -0.40994
 Alpha  occ. eigenvalues --   -0.40993  -0.40859  -0.40683  -0.40346  -0.40328
 Alpha  occ. eigenvalues --   -0.40248  -0.40074  -0.39928  -0.39803  -0.39694
 Alpha  occ. eigenvalues --   -0.39539  -0.39076  -0.39049  -0.38798  -0.38603
 Alpha  occ. eigenvalues --   -0.38498  -0.38480  -0.38320  -0.37977  -0.37950
 Alpha  occ. eigenvalues --   -0.37909  -0.37767  -0.37573  -0.37465  -0.37347
 Alpha  occ. eigenvalues --   -0.37248  -0.37211  -0.36931  -0.36806  -0.36610
 Alpha  occ. eigenvalues --   -0.36515  -0.36392  -0.36330  -0.36229  -0.35976
 Alpha  occ. eigenvalues --   -0.35806  -0.35801  -0.35755  -0.35194  -0.35126
 Alpha  occ. eigenvalues --   -0.35065  -0.34852  -0.34637  -0.34375  -0.33911
 Alpha  occ. eigenvalues --   -0.33598  -0.33217  -0.32696  -0.32628  -0.32473
 Alpha  occ. eigenvalues --   -0.32268  -0.32028  -0.31403  -0.31372  -0.31140
 Alpha  occ. eigenvalues --   -0.30766  -0.30341  -0.29740  -0.29455  -0.29331
 Alpha  occ. eigenvalues --   -0.28971  -0.28735  -0.28376  -0.27055  -0.26604
 Alpha  occ. eigenvalues --   -0.26316  -0.25918  -0.25710  -0.25511  -0.25289
 Alpha  occ. eigenvalues --   -0.25212  -0.25177  -0.24196  -0.20955  -0.20525
 Alpha  occ. eigenvalues --   -0.18885  -0.18831
 Alpha virt. eigenvalues --   -0.11362  -0.10978  -0.05445  -0.05175  -0.04133
 Alpha virt. eigenvalues --   -0.03740  -0.02158  -0.01697   0.00052   0.00116
 Alpha virt. eigenvalues --    0.00323   0.00815   0.01015   0.01388   0.01436

 Mulliken charges:
               1
     1  Mg  11.995421
     2  C    6.017069
     3  C    5.988133
     4  C    5.986265
     5  C    6.009986
     6  N    7.011385
     7  C    5.961576
     8  C    6.013692
     9  C    5.983618
    10  C    6.037256
    11  C    5.996428
    12  C    6.001019
    13  C    6.000211
    14  H    1.003465
    15  N    6.993150
    16  C    6.042362
    17  C    6.012276
    18  C    6.021017
    19  C    6.027063
    20  C    5.999592
    21  C    6.011253
    22  O    8.028354
    23  C    5.997309
    24  N    6.999278
    25  C    6.025920
    26  C    5.996598
    27  C    6.003932
    28  C    5.972423
    29  C    6.001674
    30  C    6.006021
    31  C    5.999602
    32  N    6.998296
    33  C    5.962369
    34  C    5.967213
    35  C    5.999720
    36  C    5.973481
    37  C    6.000520
    38  C    5.986826
    39  O    7.970952
    40  C    5.996945
    41  C    5.994546
    42  O    7.997890
    43  O    7.997149
    44  C    6.002045
    45  H    1.010437
    46  H    1.004237
    47  H    0.992095
    48  H    1.002289
    49  H    1.005476
    50  H    1.007938
    51  H    1.013654
    52  H    0.994270
    53  H    0.989348
    54  H    1.005991
    55  H    0.997158
    56  H    0.994679
    57  H    1.014109
    58  H    1.014274
    59  H    1.013699
    60  H    1.007563
    61  H    1.007112
    62  H    1.013702
    63  H    0.998682
    64  H    0.999570
    65  H    1.011282
    66  H    1.001446
    67  H    0.993616
    68  H    0.992921
    69  H    1.006355
    70  H    1.005937
    71  H    0.984780
    72  H    0.997271
    73  H    0.979100
    74  H    0.987249
    75  H    0.980613
    76  H    0.994107
    77  H    0.998533
    78  H    0.994713
    79  H    0.994493
    80  Mg  12.000133
    81  C    5.999678
    82  C    6.000410
    83  C    6.000044
    84  C    5.999753
    85  N    6.999913
    86  C    6.000845
    87  C    5.999871
    88  C    6.000331
    89  C    5.999073
    90  C    5.999987
    91  C    5.999905
    92  C    6.000024
    93  H    0.999913
    94  N    7.000112
    95  C    5.998975
    96  C    5.999423
    97  C    5.999449
    98  C    5.999511
    99  C    6.000134
   100  C    5.999450
   101  O    7.999204
   102  C    6.000069
   103  N    6.999912
   104  C    5.999220
   105  C    6.000228
   106  C    5.999710
   107  C    6.000867
   108  C    6.000164
   109  C    5.999845
   110  C    5.999967
   111  N    6.999943
   112  C    6.000849
   113  C    6.000939
   114  C    6.000113
   115  C    6.000675
   116  C    6.000068
   117  C    6.000584
   118  O    8.001080
   119  C    6.000045
   120  C    6.000169
   121  O    8.000347
   122  O    7.999944
   123  C    5.999933
   124  H    0.999703
   125  H    0.999737
   126  H    1.000344
   127  H    0.999837
   128  H    0.999908
   129  H    0.999656
   130  H    0.999971
   131  H    0.999820
   132  H    1.000327
   133  H    0.999994
   134  H    1.000098
   135  H    1.000115
   136  H    0.999461
   137  H    0.999310
   138  H    0.999535
   139  H    0.999664
   140  H    0.999899
   141  H    0.999490
   142  H    1.000075
   143  H    0.999984
   144  H    0.999926
   145  H    0.999618
   146  H    0.999983
   147  H    1.000156
   148  H    1.000231
   149  H    0.999863
   150  H    1.000191
   151  H    1.000072
   152  H    1.000359
   153  H    1.000638
   154  H    1.000885
   155  H    0.999999
   156  H    1.000048
   157  H    1.000300
   158  H    0.999992
 Sum of Mulliken charges = 624.00000

 Dipole moment (field-independent basis, Debye):
    X=              7.7769    Y=             -1.7014    Z=              6.7763  Tot=             10.4544
 Quadrupole moment (field-independent basis, Debye-Ang):
   XX=            192.9013   YY=              0.4198   ZZ=             -1.5687
   XY=            -28.6350   XZ=             89.7259   YZ=             -4.7571

 Normal termination of Gaussian 16 at Wed Oct 13 20:59:36 2021.
