 Gaussian 16, Revision A.03,
 Gaussian 16:  ES64L-G16RevA.03 25-Dec-2016

 ---------------------------------------------------------
 #p PBE1PBE/Def2SVP td=(nstates=5, root=1) density=current
 ---------------------------------------------------------

 --------------------------------
 TDDFT excited states in gaussian
 --------------------------------
 Symbolic Z-matrix:
 Charge =  0 Multiplicity = 1

                         Standard orientation:
 ---------------------------------------------------------------------
 Center     Atomic      Atomic             Coordinates (Angstroms)
 Number     Number       Type             X           Y           Z
 ---------------------------------------------------------------------
      1         12           0        0.808820    0.089546   -0.256435
      2          6           0       -2.775053    0.104502   -0.163720
      3          6           0        0.671344   -3.354488   -0.362549
      4          6           0        4.030076    0.095157    0.290088
      5          6           0        0.668340    3.536638    0.072588
      6          7           0       -0.915926   -1.502164    0.021054
      7          6           0       -2.243944   -1.189438   -0.087062
      8          6           0       -3.060446   -2.482962   -0.350725
      9          6           0       -1.958239   -3.623320   -0.356489
     10          6           0       -0.612462   -2.825051   -0.202809
     11          6           0       -2.054226   -4.753345    0.753025
     12          6           0       -3.888677   -2.485171   -1.663295
     13          6           0       -5.286956   -2.988091   -1.600497
     14          1           0       -5.833330   -3.897276   -0.434286
     15          7           0        2.229561   -1.443845   -0.042640
     16          6           0        2.028125   -2.808245   -0.249602
     17          6           0        3.302142   -3.516989   -0.022313
     18          6           0        4.311094   -2.481640    0.055690
     19          6           0        3.548460   -1.212980    0.113696
     20          6           0        3.489006   -5.003335    0.023221
     21          6           0        5.854232   -2.569919    0.117109
     22          8           0        6.635574   -1.625338   -0.122822
     23          6           0        6.451717   -3.905867    0.307713
     24          7           0        2.083482    1.565606    0.172103
     25          6           0        3.405074    1.271241    0.426066
     26          6           0        4.266033    2.563335    0.486723
     27          6           0        3.196186    3.654718    0.038165
     28          6           0        1.889272    2.881770    0.076348
     29          6           0        4.995165    2.913490    1.847615
     30          6           0        3.403348    4.309643   -1.318302
     31          6           0        3.715221    5.820593   -1.289423
     32          7           0       -0.700597    1.569511   -0.271254
     33          6           0       -0.598961    2.929564   -0.097864
     34          6           0       -1.938131    3.530892   -0.049890
     35          6           0       -2.794559    2.447372   -0.132881
     36          6           0       -2.008287    1.280900   -0.263334
     37          6           0       -2.322674    4.962206    0.131149
     38          6           0       -4.177160    2.132621   -0.178169
     39          8           0       -5.210637    2.857868   -0.237032
     40          6           0       -4.232519    0.663786   -0.193260
     41          6           0       -5.130211    0.167036    0.907554
     42          8           0       -4.882889    0.206531    2.064233
     43          8           0       -6.221944   -0.391632    0.385560
     44          6           0       -7.343817   -0.650544    1.222740
     45          1           0        0.719782   -4.445318   -0.385390
     46          1           0        5.101302    0.254829    0.435677
     47          1           0        0.634862    4.612080    0.254607
     48          1           0       -3.738843   -2.583181    0.497336
     49          1           0       -1.944191   -4.120260   -1.326051
     50          1           0       -2.966439   -4.746034    1.348955
     51          1           0       -1.253761   -4.557581    1.467978
     52          1           0       -1.889948   -5.736374    0.310658
     53          1           0       -3.439935   -3.097603   -2.446253
     54          1           0       -4.007058   -1.488965   -2.088538
     55          1           0       -5.483970   -3.632821   -2.457543
     56          1           0       -5.943864   -2.120855   -1.661377
     57          1           0        3.980671   -5.277326    0.956399
     58          1           0        4.149227   -5.252908   -0.807399
     59          1           0        2.567530   -5.531521   -0.223908
     60          1           0        6.133148   -4.270427    1.284344
     61          1           0        7.526194   -3.734012    0.366699
     62          1           0        6.284699   -4.556246   -0.550468
     63          1           0        5.001949    2.456635   -0.310876
     64          1           0        3.216650    4.440727    0.792998
     65          1           0        4.786147    2.146720    2.592729
     66          1           0        4.789132    3.926295    2.195966
     67          1           0        6.064641    2.942879    1.638538
     68          1           0        2.650083    4.106157   -2.079541
     69          1           0        4.296038    3.856812   -1.748465
     70          1           0        3.197071    6.446311   -2.015852
     71          1           0        4.733676    5.933389   -1.662048
     72          1           0        3.568154    6.311620   -0.328412
     73          1           0       -1.499915    5.647012   -0.076291
     74          1           0       -2.514487    5.166467    1.184418
     75          1           0       -3.253929    5.102268   -0.417572
     76          1           0       -4.651538    0.393185   -1.162078
     77          1           0       -7.804804    0.318319    1.419937
     78          1           0       -7.025482   -1.007058    2.202476
     79          1           0       -8.082861   -1.268148    0.711677
 ---------------------------------------------------------------------

 SCF Done:  E(RPBE1PBE) =  -2033.68481274     A.U. after   16 cycles

 Excitation energies and oscillator strengths:

 Excited State   1:      Singlet-A      1.8640 eV  665.15 nm  f=0.4057  <S**2>=0.000
     155 ->158         0.17332
     156 ->157         0.69406
     156 <-157        -0.11115
 This state for optimization and/or second-order correction.
 Total Energy, E(TD-HF/TD-DFT) =  -2033.61631206
 Copying the excited state density for this state as the 1-particle RhoCI density.

 Excited State   2:      Singlet-A      2.2040 eV  562.53 nm  f=0.1217  <S**2>=0.000
     155 ->157         0.66062
     156 ->158        -0.24065

 Excited State   3:      Singlet-A      2.9750 eV  416.75 nm  f=0.0006  <S**2>=0.000
     151 ->157         0.39602
     151 ->159        -0.13557
     152 ->157         0.51658
     152 ->159        -0.15094
     154 ->157         0.12419

 Excited State   4:      Singlet-A      3.0521 eV  406.22 nm  f=0.0034  <S**2>=0.000
     151 ->157        -0.14927
     154 ->157         0.67654

 Excited State   5:      Singlet-A      3.1010 eV  399.82 nm  f=0.0000  <S**2>=0.000
     153 ->157         0.66440
     153 ->159         0.15325
     153 ->160         0.11892

 The electronic state is 1-A.
 Alpha  occ. eigenvalues --  -46.92309 -19.25535 -19.19735 -19.19029 -19.18993
 Alpha  occ. eigenvalues --  -14.41537 -14.41162 -14.39344 -14.39224 -10.35913
 Alpha  occ. eigenvalues --  -10.32302 -10.31582 -10.29264 -10.28886 -10.28639
 Alpha  occ. eigenvalues --  -10.28550 -10.28260 -10.27961 -10.27586 -10.27481
 Alpha  occ. eigenvalues --  -10.26746 -10.26723 -10.26138 -10.26094 -10.26082
 Alpha  occ. eigenvalues --  -10.25864 -10.25812 -10.25662 -10.25425 -10.25293
 Alpha  occ. eigenvalues --  -10.25115 -10.24999 -10.24608 -10.24302 -10.24295
 Alpha  occ. eigenvalues --  -10.23814 -10.23692 -10.23449 -10.23440 -10.23015
 Alpha  occ. eigenvalues --  -10.22925 -10.22869 -10.22599  -3.14466  -1.87289
 Alpha  occ. eigenvalues --   -1.86854  -1.86687  -1.13312  -1.04430  -1.03224
 Alpha  occ. eigenvalues --   -1.02546  -0.99346  -0.98368  -0.97244  -0.96540
 Alpha  occ. eigenvalues --   -0.87786  -0.83477  -0.82740  -0.82700  -0.81901
 Alpha  occ. eigenvalues --   -0.81298  -0.80633  -0.78845  -0.77807  -0.76874
 Alpha  occ. eigenvalues --   -0.76352  -0.76035  -0.74858  -0.72687  -0.72004
 Alpha  occ. eigenvalues --   -0.71461  -0.70609  -0.69616  -0.67550  -0.65975
 Alpha  occ. eigenvalues --   -0.63737  -0.63397  -0.61873  -0.60769  -0.60367
 Alpha  occ. eigenvalues --   -0.59448  -0.59251  -0.58971  -0.57519  -0.54743
 Alpha  occ. eigenvalues --   -0.54485  -0.53915  -0.53494  -0.52803  -0.52373
 Alpha  occ. eigenvalues --   -0.50883  -0.50743  -0.49650  -0.49507  -0.48331
 Alpha  occ. eigenvalues --   -0.47986  -0.47760  -0.47642  -0.47316  -0.46973
 Alpha  occ. eigenvalues --   -0.46210  -0.46135  -0.45942  -0.45828  -0.44756
 Alpha  occ. eigenvalues --   -0.44615  -0.44382  -0.43885  -0.43716  -0.43410
 Alpha  occ. eigenvalues --   -0.43265  -0.42982  -0.42940  -0.42409  -0.42106
 Alpha  occ. eigenvalues --   -0.41554  -0.41504  -0.40936  -0.40902  -0.40623
 Alpha  occ. eigenvalues --   -0.40453  -0.40070  -0.39546  -0.39280  -0.39099
 Alpha  occ. eigenvalues --   -0.38466  -0.38320  -0.38014  -0.37609  -0.37430
 Alpha  occ. eigenvalues --   -0.36852  -0.36606  -0.36510  -0.36304  -0.36130
 Alpha  occ. eigenvalues --   -0.35829  -0.35197  -0.34960  -0.34642  -0.33942
 Alpha  occ. eigenvalues --   -0.33205  -0.32873  -0.31997  -0.31377  -0.31248
 Alpha  occ. eigenvalues --   -0.30902  -0.29490  -0.29256  -0.28499  -0.27098
 Alpha  occ. eigenvalues --   -0.26131  -0.26031  -0.25681  -0.25326  -0.21012
 Alpha  occ. eigenvalues --   -0.18935
 Alpha virt. eigenvalues --   -0.11379  -0.05050  -0.04361  -0.02392  -0.00516
 Alpha virt. eigenvalues --    0.01175   0.01654   0.01732   0.03030   0.04038
 Alpha virt. eigenvalues --    0.04658   0.05800   0.06069   0.06231   0.07043

 Mulliken charges:
               1
     1  Mg   0.966499
     2  C   -0.027002
     3  C   -0.038532
     4  C   -0.066708
     5  C   -0.080077
     6  N   -0.365551
     7  C    0.040481
     8  C   -0.049946
     9  C   -0.135486
    10  C    0.066131
    11  C   -0.000244
    12  C   -0.008611
    13  C   -0.149368
    14  H    0.022536
    15  N   -0.477992
    16  C    0.134336
    17  C   -0.200004
    18  C   -0.080667
    19  C    0.170106
    20  C    0.076654
    21  C    0.055399
    22  O   -0.266451
    23  C   -0.020314
    24  N   -0.472158
    25  C    0.129122
    26  C   -0.153966
    27  C   -0.112465
    28  C    0.122416
    29  C    0.018718
    30  C    0.003301
    31  C   -0.080997
    32  N   -0.450199
    33  C    0.120517
    34  C   -0.178285
    35  C   -0.051834
    36  C    0.164781
    37  C    0.079762
    38  C    0.118655
    39  O   -0.273780
    40  C   -0.068237
    41  C    0.252305
    42  O   -0.213531
    43  O   -0.337349
    44  C    0.125028
    45  H   -0.004445
    46  H    0.025564
    47  H    0.003367
    48  H    0.062795
    49  H    0.056282
    50  H    0.048777
    51  H    0.048799
    52  H    0.046796
    53  H    0.040421
    54  H    0.045210
    55  H    0.050631
    56  H    0.067837
    57  H    0.064602
    58  H    0.050151
    59  H    0.040009
    60  H    0.058813
    61  H    0.048544
    62  H    0.070313
    63  H    0.060911
    64  H    0.040986
    65  H    0.058693
    66  H    0.042120
    67  H    0.045354
    68  H    0.050645
    69  H    0.031951
    70  H    0.036678
    71  H    0.038571
    72  H    0.043950
    73  H    0.032512
    74  H    0.059357
    75  H    0.075056
    76  H    0.078016
    77  H    0.052207
    78  H    0.058779
    79  H    0.062752
 Sum of Mulliken charges =  -0.00000

 Dipole moment (field-independent basis, Debye):
    X=              1.4280    Y=             -2.6551    Z=             -1.7933  Tot=              3.5078
 Quadrupole moment (field-independent basis, Debye-Ang):
   XX=           -273.0000   YY=           -223.5879   ZZ=           -256.3683
   XY=             24.0562   XZ=              5.9240   YZ=              1.9815

 Normal termination of Gaussian 16 at Wed Oct 13 15:14:47 2021.
