 Gaussian 16, Revision A.03,
 Gaussian 16:  ES64L-G16RevA.03 25-Dec-2016

 --------------------------------------------------------
 #p PBE1PBE/Def2SVP td=(nstates=5) density=(transition=1)
 --------------------------------------------------------

 --------------------------------
 TDDFT excited states in gaussian
 --------------------------------
 Symbolic Z-matrix:
 Charge =  0 Multiplicity = 1

                         Standard orientation:
 ---------------------------------------------------------------------
 Center     Atomic      Atomic             Coordinates (Angstroms)
 Number     Number       Type             X           Y           Z
 ---------------------------------------------------------------------
      1         12           0       -5.008801    0.631323   -0.328012
      2          6           0       -2.871721   -1.992960   -1.127662
      3          6           0       -7.511580   -1.640489    0.235758
      4          6           0       -7.133404    3.256236    0.130387
      5          6           0       -2.339011    2.804731   -1.212230
      6          7           0       -5.183412   -1.550123   -0.466419
      7          6           0       -4.131454   -2.397209   -0.695789
      8          6           0       -4.674795   -3.818212   -0.526908
      9          6           0       -6.180633   -3.671699   -0.399402
     10          6           0       -6.296314   -2.171326   -0.155534
     11          6           0       -7.078631   -4.172887   -1.498445
     12          6           0       -3.990650   -4.685468    0.634151
     13          6           0       -4.678696   -6.049584    0.961919
     14          1           0       -4.197378   -7.321381    0.215641
     15          7           0       -6.994441    0.756837    0.262163
     16          6           0       -7.861213   -0.275401    0.412949
     17          6           0       -9.140291    0.303703    0.731802
     18          6           0       -9.021041    1.724072    0.692551
     19          6           0       -7.699762    1.981297    0.331431
     20          6           0      -10.319773   -0.573992    1.016849
     21          6           0      -10.180067    2.751370    0.847396
     22          8           0      -10.072158    3.902953    0.465581
     23          6           0      -11.503787    2.402822    1.337450
     24          7           0       -4.760607    2.603193   -0.505390
     25          6           0       -5.759920    3.534433   -0.224507
     26          6           0       -5.268957    4.985894   -0.363896
     27          6           0       -3.721750    4.783123   -0.502614
     28          6           0       -3.599445    3.282388   -0.709252
     29          6           0       -5.995292    5.840785   -1.318099
     30          6           0       -2.733247    5.366651    0.651718
     31          6           0       -1.648964    6.391311    0.304941
     32          7           0       -2.960402    0.474525   -1.103582
     33          6           0       -2.053107    1.449262   -1.411054
     34          6           0       -0.825612    0.886803   -1.863897
     35          6           0       -1.067568   -0.530558   -1.699557
     36          6           0       -2.425717   -0.711112   -1.314853
     37          6           0        0.362711    1.679748   -2.255293
     38          6           0       -0.429283   -1.825736   -1.751676
     39          8           0        0.707708   -2.200338   -1.961520
     40          6           0       -1.645084   -2.859188   -1.372719
     41          6           0       -1.760690   -3.953219   -2.370482
     42          8           0       -2.103867   -3.782109   -3.519691
     43          8           0       -1.456096   -5.156431   -1.853427
     44          6           0       -1.781616   -6.372920   -2.692681
     45          1           0       -8.297984   -2.361810    0.468719
     46          1           0       -7.836621    4.078631    0.276192
     47          1           0       -1.647378    3.626639   -1.409541
     48          1           0       -4.392808   -4.239754   -1.491633
     49          1           0       -6.524873   -4.237670    0.465846
     50          1           0       -7.377206   -3.216068   -1.925654
     51          1           0       -7.893838   -4.792981   -1.125312
     52          1           0       -6.524682   -4.675604   -2.291527
     53          1           0       -4.071981   -4.009513    1.485631
     54          1           0       -2.947094   -4.876149    0.386475
     55          1           0       -5.746339   -6.023471    0.747479
     56          1           0       -4.577678   -6.223952    2.033121
     57          1           0      -10.163201   -1.652277    1.059992
     58          1           0      -10.996197   -0.434706    0.174202
     59          1           0      -10.882711   -0.261537    1.896601
     60          1           0      -12.025303    1.536305    0.932217
     61          1           0      -12.230393    3.215186    1.343748
     62          1           0      -11.315000    2.251325    2.400027
     63          1           0       -5.488475    5.306250    0.654942
     64          1           0       -3.582886    5.228348   -1.487670
     65          1           0       -6.533088    6.695520   -0.906964
     66          1           0       -6.716320    5.209393   -1.837954
     67          1           0       -5.359090    6.311283   -2.067646
     68          1           0       -2.216091    4.516092    1.095382
     69          1           0       -3.197085    5.840019    1.517928
     70          1           0       -0.636638    5.989530    0.254460
     71          1           0       -1.694065    7.317431    0.877273
     72          1           0       -1.805283    6.687474   -0.732432
     73          1           0        0.035680    2.496183   -2.898743
     74          1           0        1.140591    1.072124   -2.716895
     75          1           0        0.675396    2.246150   -1.377481
     76          1           0       -1.342981   -3.325771   -0.435657
     77          1           0       -1.133867   -7.130067   -2.251387
     78          1           0       -1.535249   -6.155056   -3.731687
     79          1           0       -2.828028   -6.611510   -2.501859
     80         12           0        4.833911    0.600308    0.099148
     81          6           0        3.184614   -2.334679    0.835154
     82          6           0        7.647095   -1.272909   -0.433866
     83          6           0        6.529000    3.488022   -0.339252
     84          6           0        2.097094    2.424699    1.226336
     85          7           0        5.316425   -1.605404    0.350017
     86          6           0        4.494040   -2.577806    0.448092
     87          6           0        5.112213   -4.063331    0.308602
     88          6           0        6.634565   -3.656494    0.196624
     89          6           0        6.585321   -2.057849    0.106195
     90          6           0        7.545786   -4.051009    1.473778
     91          6           0        4.579261   -4.912251   -0.925742
     92          6           0        4.498721   -6.471330   -0.760210
     93          1           0        5.168504   -7.054211    0.447377
     94          7           0        6.737770    1.044673   -0.389273
     95          6           0        7.806067    0.104781   -0.669486
     96          6           0        8.975136    0.880147   -1.071193
     97          6           0        8.701622    2.264532   -0.940344
     98          6           0        7.265618    2.320087   -0.584777
     99          6           0       10.162917    0.117798   -1.537288
    100          6           0        9.579997    3.506958   -1.218012
    101          8           0        9.282582    4.639457   -0.978831
    102          6           0       11.017249    3.195228   -1.681911
    103          7           0        4.467644    2.702257    0.485213
    104          6           0        5.276020    3.684703    0.241080
    105          6           0        4.741330    5.027057    0.815908
    106          6           0        3.280521    4.704165    1.211637
    107          6           0        3.236612    3.179831    0.952337
    108          6           0        5.616325    5.515576    1.989888
    109          6           0        2.243223    5.547481    0.408517
    110          6           0        2.183571    7.036024    0.787805
    111          7           0        2.974950    0.174208    0.886159
    112          6           0        1.937454    1.034411    1.199038
    113          6           0        0.816128    0.208649    1.562589
    114          6           0        1.221129   -1.157844    1.490605
    115          6           0        2.561782   -1.062866    1.027545
    116          6           0       -0.446205    0.692671    1.986485
    117          6           0        0.851665   -2.533793    1.591033
    118          8           0       -0.236640   -3.028452    2.011132
    119          6           0        2.172219   -3.338063    1.276200
    120          6           0        2.487456   -4.125655    2.448850
    121          8           0        3.071126   -3.691883    3.441785
    122          8           0        1.884468   -5.347251    2.288750
    123          6           0        1.900674   -6.167304    3.518534
    124          1           0        8.566571   -1.841331   -0.585514
    125          1           0        7.133549    4.379342   -0.523320
    126          1           0        1.240945    3.044432    1.502594
    127          1           0        4.915156   -4.510687    1.283174
    128          1           0        7.087764   -4.137847   -0.669758
    129          1           0        6.881004   -4.214315    2.322485
    130          1           0        8.236825   -3.238120    1.696348
    131          1           0        8.170953   -4.938051    1.366588
    132          1           0        5.304131   -4.699885   -1.711145
    133          1           0        3.702815   -4.518630   -1.441678
    134          1           0        4.888393   -7.024711   -1.614539
    135          1           0        3.456661   -6.758353   -0.619090
    136          1           0       10.777437   -0.191293   -0.691269
    137          1           0       10.695769    0.613136   -2.349082
    138          1           0        9.786575   -0.784080   -2.019490
    139          1           0       11.097626    2.851409   -2.713610
    140          1           0       11.312834    2.434407   -0.960204
    141          1           0       11.741393    3.999956   -1.558465
    142          1           0        4.776245    5.682688   -0.053839
    143          1           0        3.153341    4.847344    2.284657
    144          1           0        6.176228    4.742639    2.516820
    145          1           0        5.118203    5.979074    2.842090
    146          1           0        6.312010    6.229998    1.549842
    147          1           0        1.246617    5.154257    0.604309
    148          1           0        2.439098    5.451678   -0.659987
    149          1           0        2.981184    7.223956    1.506565
    150          1           0        1.307087    7.203306    1.414000
    151          1           0        2.143959    7.782168   -0.005430
    152          1           0       -0.675561    1.498957    1.289672
    153          1           0       -0.487325    1.125766    2.985771
    154          1           0       -1.143230   -0.145230    2.021715
    155          1           0        1.862123   -4.006060    0.472202
    156          1           0        1.264913   -5.646980    4.235447
    157          1           0        2.915510   -6.392088    3.845006
    158          1           0        1.427930   -7.119366    3.276801
 ---------------------------------------------------------------------

 SCF Done:  E(RPBE1PBE) =  -4067.40287564     A.U. after   16 cycles

 Excitation energies and oscillator strengths:

 Excited State   1:      Singlet-A      1.6190 eV  765.81 nm  f=0.0038  <S**2>=0.000
     312 -> 313        0.70003
 This state for optimization and/or second-order correction.
 Total Energy, E(TD-HF/TD-DFT) =  -4067.34337895
 Copying the excited state density for this state as the 1-particle RhoCI density.

 Excited State   2:      Singlet-A      1.7643 eV  702.75 nm  f=0.0602  <S**2>=0.000
     311 -> 313        0.28921
     311 -> 314        0.63461
     312 -> 314        0.10501

 Excited State   3:      Singlet-A      1.8298 eV  677.59 nm  f=0.7557  <S**2>=0.000
     309 -> 315        0.13060
     311 -> 313        0.54323
     311 -> 314       -0.30487
     312 -> 314        0.29871

 Excited State   4:      Singlet-A      1.9120 eV  648.46 nm  f=0.0884  <S**2>=0.000
     310 -> 316       -0.16892
     311 -> 313       -0.31761
     312 -> 314        0.60399

 Excited State   5:      Singlet-A      2.0955 eV  591.66 nm  f=0.0026  <S**2>=0.000
     310 -> 313        0.69989

 The electronic state is 1-A.
 Alpha  occ. eigenvalues --  -46.91370 -46.90955 -19.25115 -19.24704 -19.19880
 Alpha  occ. eigenvalues --  -19.19154 -19.19062 -19.18949 -19.18513 -19.18117
 Alpha  occ. eigenvalues --  -14.41965 -14.41196 -14.41144 -14.40726 -14.38924
 Alpha  occ. eigenvalues --  -14.38446 -14.38208 -14.37802 -10.35133 -10.34550
 Alpha  occ. eigenvalues --  -10.32935 -10.32477 -10.31804 -10.31639 -10.29123
 Alpha  occ. eigenvalues --  -10.29076 -10.28998 -10.28726 -10.28444 -10.28276
 Alpha  occ. eigenvalues --  -10.28141 -10.27802 -10.27786 -10.27746 -10.27665
 Alpha  occ. eigenvalues --  -10.27587 -10.27182 -10.27033 -10.26510 -10.26492
 Alpha  occ. eigenvalues --  -10.26466 -10.26459 -10.26258 -10.26157 -10.26111
 Alpha  occ. eigenvalues --  -10.25915 -10.25682 -10.25506 -10.25490 -10.25462
 Alpha  occ. eigenvalues --  -10.25372 -10.25239 -10.25230 -10.24926 -10.24891
 Alpha  occ. eigenvalues --  -10.24880 -10.24803 -10.24756 -10.24613 -10.24560
 Alpha  occ. eigenvalues --  -10.24552 -10.24415 -10.24414 -10.24262 -10.24247
 Alpha  occ. eigenvalues --  -10.24212 -10.24206 -10.24204 -10.24197 -10.24150
 Alpha  occ. eigenvalues --  -10.24125 -10.24116 -10.24095 -10.23430 -10.23223
 Alpha  occ. eigenvalues --  -10.23193 -10.23180 -10.23151 -10.22982 -10.22965
 Alpha  occ. eigenvalues --  -10.22846 -10.22837 -10.22748 -10.22599 -10.21936
 Alpha  occ. eigenvalues --  -10.21868  -3.13556  -3.13193  -1.86389  -1.86050
 Alpha  occ. eigenvalues --   -1.85937  -1.85784  -1.85570  -1.85419  -1.10253
 Alpha  occ. eigenvalues --   -1.09922  -1.06805  -1.05483  -1.04214  -1.01694
 Alpha  occ. eigenvalues --   -1.01390  -1.01195  -0.99527  -0.99486  -0.98644
 Alpha  occ. eigenvalues --   -0.98499  -0.97836  -0.97699  -0.96729  -0.94945
 Alpha  occ. eigenvalues --   -0.86424  -0.86378  -0.83476  -0.82997  -0.82910
 Alpha  occ. eigenvalues --   -0.82348  -0.82285  -0.81609  -0.81592  -0.81327
 Alpha  occ. eigenvalues --   -0.80986  -0.80957  -0.80752  -0.80691  -0.78661
 Alpha  occ. eigenvalues --   -0.77812  -0.77770  -0.77561  -0.76577  -0.76296
 Alpha  occ. eigenvalues --   -0.76262  -0.75387  -0.75356  -0.74966  -0.74790
 Alpha  occ. eigenvalues --   -0.74198  -0.72868  -0.72407  -0.71971  -0.71502
 Alpha  occ. eigenvalues --   -0.71128  -0.70221  -0.69850  -0.69672  -0.69241
 Alpha  occ. eigenvalues --   -0.68861  -0.66954  -0.66312  -0.65970  -0.65537
 Alpha  occ. eigenvalues --   -0.63730  -0.63489  -0.63023  -0.62728  -0.62358
 Alpha  occ. eigenvalues --   -0.62143  -0.61051  -0.60964  -0.59811  -0.59725
 Alpha  occ. eigenvalues --   -0.59681  -0.59677  -0.58908  -0.58666  -0.58383
 Alpha  occ. eigenvalues --   -0.58241  -0.55790  -0.55673  -0.54819  -0.54158
 Alpha  occ. eigenvalues --   -0.53931  -0.53584  -0.53318  -0.53293  -0.53108
 Alpha  occ. eigenvalues --   -0.52478  -0.52346  -0.52090  -0.51712  -0.51213
 Alpha  occ. eigenvalues --   -0.50676  -0.50206  -0.50079  -0.49834  -0.49377
 Alpha  occ. eigenvalues --   -0.49343  -0.49170  -0.48871  -0.48738  -0.48500
 Alpha  occ. eigenvalues --   -0.48131  -0.47526  -0.47453  -0.47255  -0.47093
 Alpha  occ. eigenvalues --   -0.47033  -0.47015  -0.46848  -0.46799  -0.46475
 Alpha  occ. eigenvalues --   -0.46391  -0.46315  -0.45854  -0.45505  -0.45370
 Alpha  occ. eigenvalues --   -0.45190  -0.45136  -0.44981  -0.44907  -0.44738
 Alpha  occ. eigenvalues --   -0.44556  -0.44471  -0.44457  -0.43909  -0.43880
 Alpha  occ. eigenvalues --   -0.43518  -0.43446  -0.43285  -0.43250  -0.43131
 Alpha  occ. eigenvalues --   -0.42911  -0.42872  -0.42808  -0.42626  -0.42415
 Alpha  occ. eigenvalues --   -0.42279  -0.42188  -0.42013  -0.41976  -0.41511
 Alpha  occ. eigenvalues --   -0.41360  -0.41333  -0.41099  -0.40942  -0.40883
 Alpha  occ. eigenvalues --   -0.40780  -0.40735  -0.40658  -0.40464  -0.40396
 Alpha  occ. eigenvalues --   -0.40067  -0.39698  -0.39497  -0.39449  -0.39389
 Alpha  occ. eigenvalues --   -0.39183  -0.39000  -0.38935  -0.38766  -0.38751
 Alpha  occ. eigenvalues --   -0.38671  -0.38545  -0.38260  -0.38131  -0.37848
 Alpha  occ. eigenvalues --   -0.37835  -0.37547  -0.37514  -0.37393  -0.37316
 Alpha  occ. eigenvalues --   -0.37167  -0.37131  -0.36656  -0.36565  -0.36501
 Alpha  occ. eigenvalues --   -0.36226  -0.36150  -0.36032  -0.35980  -0.35796
 Alpha  occ. eigenvalues --   -0.35737  -0.35583  -0.35223  -0.35114  -0.34809
 Alpha  occ. eigenvalues --   -0.34734  -0.34275  -0.34143  -0.33934  -0.33911
 Alpha  occ. eigenvalues --   -0.33493  -0.33029  -0.32478  -0.32131  -0.32098
 Alpha  occ. eigenvalues --   -0.32061  -0.31610  -0.31528  -0.31150  -0.31006
 Alpha  occ. eigenvalues --   -0.30988  -0.30624  -0.29204  -0.29150  -0.28933
 Alpha  occ. eigenvalues --   -0.28677  -0.28188  -0.27527  -0.26574  -0.26288
 Alpha  occ. eigenvalues --   -0.25925  -0.25844  -0.25416  -0.25123  -0.25098
 Alpha  occ. eigenvalues --   -0.24993  -0.24668  -0.24262  -0.20808  -0.20157
 Alpha  occ. eigenvalues --   -0.18495  -0.18429
 Alpha virt. eigenvalues --   -0.10978  -0.10530  -0.05126  -0.04732  -0.03921
 Alpha virt. eigenvalues --   -0.03311  -0.01958  -0.01484   0.00481   0.00897
 Alpha virt. eigenvalues --    0.01229   0.01299   0.01702   0.01925   0.02071

 Mulliken charges:
               1
     1  Mg  12.000072
     2  C    5.998375
     3  C    5.998183
     4  C    6.001768
     5  C    6.001321
     6  N    6.998436
     7  C    6.000918
     8  C    5.999878
     9  C    5.999993
    10  C    6.000714
    11  C    6.000187
    12  C    6.000140
    13  C    6.000204
    14  H    0.999461
    15  N    7.000337
    16  C    6.000232
    17  C    5.999018
    18  C    6.000238
    19  C    5.998751
    20  C    6.000263
    21  C    5.999756
    22  O    7.999480
    23  C    6.000192
    24  N    7.001630
    25  C    5.998333
    26  C    6.000243
    27  C    5.999650
    28  C    6.000270
    29  C    6.000024
    30  C    5.999907
    31  C    6.000026
    32  N    6.999889
    33  C    6.000726
    34  C    5.999979
    35  C    5.999484
    36  C    6.000624
    37  C    6.001106
    38  C    6.000051
    39  O    7.997090
    40  C    6.000147
    41  C    5.999855
    42  O    7.999501
    43  O    7.999997
    44  C    6.000094
    45  H    0.999168
    46  H    1.000020
    47  H    1.000720
    48  H    0.999818
    49  H    0.999757
    50  H    0.999919
    51  H    0.999656
    52  H    0.999591
    53  H    1.000082
    54  H    1.000047
    55  H    0.999874
    56  H    0.999785
    57  H    0.999826
    58  H    0.999473
    59  H    0.999459
    60  H    0.999969
    61  H    0.999653
    62  H    0.999896
    63  H    0.999983
    64  H    0.999898
    65  H    0.999936
    66  H    1.000051
    67  H    0.999757
    68  H    1.000313
    69  H    1.000195
    70  H    0.999799
    71  H    0.999963
    72  H    0.999887
    73  H    0.999176
    74  H    1.000041
    75  H    1.000486
    76  H    0.999997
    77  H    0.999643
    78  H    0.999682
    79  H    0.999898
    80  Mg  12.000049
    81  C    5.999352
    82  C    5.999113
    83  C    5.999498
    84  C    6.001289
    85  N    7.000159
    86  C    5.999797
    87  C    6.000453
    88  C    5.999346
    89  C    6.002806
    90  C    5.999696
    91  C    6.000314
    92  C    5.999853
    93  H    0.999863
    94  N    6.999634
    95  C    6.002731
    96  C    6.001113
    97  C    6.001309
    98  C    6.001590
    99  C    5.999642
   100  C    6.000818
   101  O    8.001682
   102  C    5.999702
   103  N    6.999817
   104  C    6.002241
   105  C    5.999654
   106  C    6.000436
   107  C    5.998351
   108  C    5.999692
   109  C    6.000693
   110  C    5.999643
   111  N    6.999506
   112  C    5.996533
   113  C    5.998899
   114  C    5.998028
   115  C    6.001129
   116  C    6.000486
   117  C    5.999549
   118  O    7.998077
   119  C    5.999987
   120  C    5.999624
   121  O    7.999463
   122  O    8.000084
   123  C    6.000095
   124  H    1.000767
   125  H    1.000615
   126  H    1.000011
   127  H    1.000499
   128  H    1.000507
   129  H    1.000948
   130  H    0.999819
   131  H    1.000676
   132  H    0.999515
   133  H    1.000709
   134  H    0.999959
   135  H    1.000557
   136  H    1.001289
   137  H    1.001086
   138  H    1.000985
   139  H    1.000676
   140  H    1.000256
   141  H    1.001027
   142  H    1.000203
   143  H    1.000325
   144  H    1.000038
   145  H    1.000881
   146  H    1.000061
   147  H    1.000388
   148  H    0.999663
   149  H    0.999770
   150  H    1.000283
   151  H    0.999986
   152  H    0.998104
   153  H    0.998199
   154  H    0.999168
   155  H    0.999773
   156  H    1.000154
   157  H    0.999495
   158  H    0.999849
 Sum of Mulliken charges = 624.00000

 Dipole moment (field-independent basis, Debye):
    X=              1.0624    Y=              0.3183    Z=             -0.1548  Tot=              1.1198
 Quadrupole moment (field-independent basis, Debye-Ang):
   XX=              4.9073   YY=              0.2403   ZZ=             -0.2345
   XY=              0.5905   XZ=             -0.5373   YZ=             -0.2291

 Normal termination of Gaussian 16 at Fri Oct 15 06:13:43 2021.
