 Gaussian 16, Revision A.03,
 Gaussian 16:  ES64L-G16RevA.03 25-Dec-2016

 --------------------------------------------------------
 #p PBE1PBE/Def2SVP td=(nstates=5) density=(transition=1)
 --------------------------------------------------------

 --------------------------------
 TDDFT excited states in gaussian
 --------------------------------
 Symbolic Z-matrix:
 Charge =  0 Multiplicity = 1

                         Standard orientation:
 ---------------------------------------------------------------------
 Center     Atomic      Atomic             Coordinates (Angstroms)
 Number     Number       Type             X           Y           Z
 ---------------------------------------------------------------------
      1         12           0      -28.702681    0.183255    0.264407
      2          6           0      -26.740928   -2.203237   -1.262752
      3          6           0      -28.654233    1.915737   -2.685712
      4          6           0      -30.376835    2.662680    1.830954
      5          6           0      -28.193922   -1.360679    3.337933
      6          7           0      -27.632429   -0.126654   -1.715350
      7          6           0      -27.095358   -1.199999   -2.152368
      8          6           0      -26.678402   -1.215549   -3.712588
      9          6           0      -27.055298    0.280102   -4.054038
     10          6           0      -27.769659    0.796926   -2.716559
     11          6           0      -25.797887    1.253910   -4.350188
     12          6           0      -27.430545   -2.291010   -4.610347
     13          6           0      -26.653597   -2.893138   -5.834442
     14          1           0      -25.367070   -2.221833   -6.209705
     15          7           0      -29.467072    1.949677   -0.332377
     16          6           0      -29.429014    2.506357   -1.670970
     17          6           0      -30.191188    3.750482   -1.647918
     18          6           0      -30.601392    4.038137   -0.322234
     19          6           0      -30.191849    2.845115    0.452745
     20          6           0      -30.402554    4.436615   -2.949376
     21          6           0      -31.414183    5.218786    0.258887
     22          8           0      -31.623433    5.418209    1.418483
     23          6           0      -31.821102    6.294587   -0.768313
     24          7           0      -29.157739    0.707575    2.318525
     25          6           0      -29.831355    1.738157    2.721535
     26          6           0      -29.799420    1.877580    4.270010
     27          6           0      -29.200910    0.533652    4.750083
     28          6           0      -28.829057   -0.121044    3.398840
     29          6           0      -28.984610    3.116408    4.698824
     30          6           0      -30.193757   -0.280813    5.634997
     31          6           0      -30.433966    0.295175    7.039887
     32          7           0      -27.675769   -1.466946    0.956486
     33          6           0      -27.654563   -2.017303    2.225698
     34          6           0      -26.910800   -3.245533    2.127258
     35          6           0      -26.463606   -3.394436    0.780277
     36          6           0      -27.024225   -2.257480    0.136978
     37          6           0      -26.621899   -4.110041    3.211976
     38          6           0      -25.797574   -4.205589   -0.188360
     39          8           0      -25.136115   -5.270374   -0.003200
     40          6           0      -25.863768   -3.379953   -1.531406
     41          6           0      -24.501573   -3.111132   -1.939996
     42          8           0      -23.809013   -2.196936   -1.493503
     43          8           0      -24.117870   -4.137012   -2.765747
     44          6           0      -22.668360   -4.136568   -3.055648
     45          1           0      -28.635177    2.503173   -3.605545
     46          1           0      -30.944197    3.490087    2.263749
     47          1           0      -28.124088   -1.843474    4.315384
     48          1           0      -25.594630   -1.330812   -3.682542
     49          1           0      -27.690025    0.313268   -4.939322
     50          1           0      -24.907462    0.791014   -3.923833
     51          1           0      -25.968557    2.224839   -3.885400
     52          1           0      -25.589741    1.470086   -5.398573
     53          1           0      -28.287017   -1.741396   -4.999930
     54          1           0      -27.993929   -3.057697   -4.077361
     55          1           0      -27.243969   -2.940726   -6.749401
     56          1           0      -26.333248   -3.905119   -5.586537
     57          1           0      -29.551444    5.074137   -3.190410
     58          1           0      -31.381390    4.909941   -3.027754
     59          1           0      -30.457310    3.657130   -3.708942
     60          1           0      -32.634068    6.003257   -1.434111
     61          1           0      -30.880545    6.451123   -1.295503
     62          1           0      -32.081646    7.269484   -0.357330
     63          1           0      -30.858068    1.946657    4.519057
     64          1           0      -28.266948    0.719252    5.280474
     65          1           0      -28.236974    3.461935    3.984519
     66          1           0      -28.352428    3.032933    5.583461
     67          1           0      -29.722556    3.902405    4.859022
     68          1           0      -29.784565   -1.277816    5.792257
     69          1           0      -31.147506   -0.386142    5.116812
     70          1           0      -29.910336    1.249436    7.097486
     71          1           0      -29.862751   -0.289789    7.760898
     72          1           0      -31.453080    0.347677    7.422212
     73          1           0      -27.562662   -4.184514    3.757566
     74          1           0      -25.876967   -3.758281    3.925540
     75          1           0      -26.205049   -5.035849    2.814133
     76          1           0      -26.310706   -4.088936   -2.228816
     77          1           0      -22.172305   -4.354814   -2.109502
     78          1           0      -22.355619   -3.227372   -3.568053
     79          1           0      -22.476085   -4.965676   -3.736790
     80         12           0       28.438912    0.388448   -0.390500
     81          6           0       25.989410   -1.886484    0.235942
     82          6           0       25.932918    2.724517   -1.268718
     83          6           0       30.685616    2.820641    0.046474
     84          6           0       30.869634   -1.870489    1.034776
     85          7           0       26.267195    0.359988   -0.510517
     86          6           0       25.448764   -0.597655   -0.224487
     87          6           0       23.976235   -0.316795   -0.691294
     88          6           0       24.053587    1.067740   -1.440460
     89          6           0       25.536247    1.452266   -1.107115
     90          6           0       23.576004    1.082567   -2.893227
     91          6           0       22.905935   -0.395159    0.551778
     92          6           0       23.415786   -0.183541    1.968122
     93          1           0       22.451705    0.191858    3.093507
     94          7           0       28.308122    2.484974   -0.579676
     95          6           0       27.245062    3.243812   -1.006825
     96          6           0       27.593996    4.597740   -0.984168
     97          6           0       28.976698    4.688420   -0.563028
     98          6           0       29.390396    3.285029   -0.299217
     99          6           0       26.650560    5.654308   -1.529147
    100          6           0       29.754872    6.009875   -0.428784
    101          8           0       29.150515    7.071954   -0.699226
    102          6           0       31.122437    6.137696   -0.015417
    103          7           0       30.505322    0.496004    0.600354
    104          6           0       31.193969    1.587743    0.423939
    105          6           0       32.693181    1.429895    0.806330
    106          6           0       32.775010   -0.088617    1.075408
    107          6           0       31.291092   -0.604474    0.887996
    108          6           0       33.648244    1.848531   -0.252588
    109          6           0       33.400445   -0.433170    2.508438
    110          6           0       34.830415   -1.114509    2.500133
    111          7           0       28.530254   -1.526999    0.366116
    112          6           0       29.548080   -2.344856    0.872611
    113          6           0       28.965167   -3.682828    1.201881
    114          6           0       27.590315   -3.496242    0.999721
    115          6           0       27.357232   -2.171004    0.526111
    116          6           0       29.628137   -4.878247    1.687230
    117          6           0       26.383859   -4.170629    1.154405
    118          8           0       26.081796   -5.317020    1.517149
    119          6           0       25.302634   -3.208743    0.585003
    120          6           0       24.554135   -3.945203   -0.551332
    121          8           0       23.351563   -4.113503   -0.661072
    122          8           0       25.414857   -4.432492   -1.511023
    123          6           0       24.832269   -5.187389   -2.626805
    124          1           0       25.087243    3.383666   -1.474861
    125          1           0       31.504216    3.543064    0.053156
    126          1           0       31.641319   -2.595603    1.301136
    127          1           0       23.770977   -1.030807   -1.489335
    128          1           0       23.482993    1.843898   -0.929511
    129          1           0       24.417059    1.294759   -3.553017
    130          1           0       22.830077    1.857337   -3.074242
    131          1           0       23.067124    0.180567   -3.233255
    132          1           0       22.459390   -1.375194    0.382108
    133          1           0       22.119203    0.359410    0.536267
    134          1           0       24.152938    0.609361    1.844290
    135          1           0       23.970911   -1.090599    2.207927
    136          1           0       26.981912    6.317735   -2.328427
    137          1           0       26.259550    6.234369   -0.692911
    138          1           0       25.765877    5.162038   -1.932551
    139          1           0       31.886851    5.663470   -0.630696
    140          1           0       31.285467    5.607860    0.922552
    141          1           0       31.415623    7.160933    0.217301
    142          1           0       33.073898    1.980705    1.666325
    143          1           0       33.307565   -0.635601    0.297308
    144          1           0       34.143801    2.803039   -0.075969
    145          1           0       33.117967    2.090655   -1.174306
    146          1           0       34.403295    1.077320   -0.404136
    147          1           0       32.761316   -1.179540    2.982137
    148          1           0       33.572622    0.433649    3.145033
    149          1           0       35.472157   -0.625303    3.231823
    150          1           0       35.299428   -0.893243    1.541314
    151          1           0       34.651937   -2.139597    2.825376
    152          1           0       30.625868   -4.827974    1.250589
    153          1           0       29.118974   -5.773287    1.328006
    154          1           0       29.541435   -4.854021    2.773104
    155          1           0       24.437337   -3.100209    1.238494
    156          1           0       25.600316   -5.846798   -3.031458
    157          1           0       24.487846   -4.632738   -3.499486
    158          1           0       23.929868   -5.739045   -2.361640
 ---------------------------------------------------------------------

 SCF Done:  E(RPBE1PBE) =  -4067.35886284     A.U. after   19 cycles

 Excitation energies and oscillator strengths:

 Excited State   1:      Singlet-A      1.8096 eV  685.16 nm  f=0.0000  <S**2>=0.000
     312 -> 313        0.70711
 This state for optimization and/or second-order correction.
 Total Energy, E(TD-HF/TD-DFT) =  -4067.29236222
 Copying the excited state density for this state as the 1-particle RhoCI density.

 Excited State   2:      Singlet-A      1.8537 eV  668.86 nm  f=0.4153  <S**2>=0.000
     309 -> 315        0.15880
     311 -> 313        0.69708
     311 <- 313       -0.12237

 Excited State   3:      Singlet-A      1.9095 eV  649.29 nm  f=0.3744  <S**2>=0.000
     310 -> 316        0.19440
     312 -> 314        0.68533

 Excited State   4:      Singlet-A      2.2083 eV  561.45 nm  f=0.1060  <S**2>=0.000
     310 -> 314        0.65633
     312 -> 316       -0.25145

 Excited State   5:      Singlet-A      2.2233 eV  557.67 nm  f=0.0000  <S**2>=0.000
     311 -> 314        0.70711

 The electronic state is 1-A.
 Alpha  occ. eigenvalues --  -46.93706 -46.91799 -19.25474 -19.25444 -19.20303
 Alpha  occ. eigenvalues --  -19.20177 -19.19526 -19.19011 -19.18652 -19.17857
 Alpha  occ. eigenvalues --  -14.42692 -14.41586 -14.41398 -14.41062 -14.40105
 Alpha  occ. eigenvalues --  -14.39596 -14.39311 -14.38650 -10.36725 -10.35530
 Alpha  occ. eigenvalues --  -10.33230 -10.32033 -10.31641 -10.31586 -10.30543
 Alpha  occ. eigenvalues --  -10.29442 -10.29251 -10.28859 -10.28678 -10.28676
 Alpha  occ. eigenvalues --  -10.28587 -10.28565 -10.28471 -10.28382 -10.28187
 Alpha  occ. eigenvalues --  -10.28160 -10.28105 -10.27971 -10.27830 -10.27124
 Alpha  occ. eigenvalues --  -10.27063 -10.27038 -10.26963 -10.26873 -10.26822
 Alpha  occ. eigenvalues --  -10.26742 -10.26724 -10.26679 -10.26321 -10.26297
 Alpha  occ. eigenvalues --  -10.26154 -10.25995 -10.25843 -10.25589 -10.25543
 Alpha  occ. eigenvalues --  -10.25428 -10.25378 -10.25364 -10.25278 -10.25055
 Alpha  occ. eigenvalues --  -10.25038 -10.24957 -10.24804 -10.24803 -10.24790
 Alpha  occ. eigenvalues --  -10.24773 -10.24756 -10.24690 -10.24418 -10.24386
 Alpha  occ. eigenvalues --  -10.24378 -10.24220 -10.24119 -10.23924 -10.23577
 Alpha  occ. eigenvalues --  -10.23573 -10.23520 -10.23412 -10.23110 -10.23078
 Alpha  occ. eigenvalues --  -10.23071 -10.22964 -10.22831 -10.22558 -10.22387
 Alpha  occ. eigenvalues --  -10.22198  -3.15695  -3.13989  -1.88511  -1.88102
 Alpha  occ. eigenvalues --   -1.87883  -1.86823  -1.86368  -1.86216  -1.10844
 Alpha  occ. eigenvalues --   -1.10265  -1.07097  -1.03590  -1.02522  -1.02134
 Alpha  occ. eigenvalues --   -1.02020  -1.01580  -0.99997  -0.99591  -0.99110
 Alpha  occ. eigenvalues --   -0.98967  -0.98257  -0.98195  -0.97119  -0.95322
 Alpha  occ. eigenvalues --   -0.87230  -0.86935  -0.84024  -0.83727  -0.83594
 Alpha  occ. eigenvalues --   -0.83322  -0.82578  -0.82448  -0.82088  -0.82023
 Alpha  occ. eigenvalues --   -0.81810  -0.81296  -0.81087  -0.79750  -0.79001
 Alpha  occ. eigenvalues --   -0.78421  -0.78190  -0.77712  -0.77217  -0.76816
 Alpha  occ. eigenvalues --   -0.76560  -0.75803  -0.75679  -0.75350  -0.74571
 Alpha  occ. eigenvalues --   -0.74553  -0.72844  -0.72747  -0.71702  -0.71696
 Alpha  occ. eigenvalues --   -0.71251  -0.70658  -0.70644  -0.70031  -0.69708
 Alpha  occ. eigenvalues --   -0.69162  -0.67838  -0.66685  -0.66428  -0.65888
 Alpha  occ. eigenvalues --   -0.63971  -0.63735  -0.63268  -0.63127  -0.62750
 Alpha  occ. eigenvalues --   -0.62656  -0.61373  -0.61332  -0.60412  -0.60178
 Alpha  occ. eigenvalues --   -0.60143  -0.59789  -0.59360  -0.59286  -0.59106
 Alpha  occ. eigenvalues --   -0.58622  -0.57829  -0.56129  -0.55399  -0.54578
 Alpha  occ. eigenvalues --   -0.54464  -0.53958  -0.53674  -0.53579  -0.53161
 Alpha  occ. eigenvalues --   -0.52885  -0.52661  -0.52447  -0.52139  -0.51688
 Alpha  occ. eigenvalues --   -0.51016  -0.50528  -0.50255  -0.50159  -0.49978
 Alpha  occ. eigenvalues --   -0.49756  -0.49283  -0.49088  -0.48959  -0.48557
 Alpha  occ. eigenvalues --   -0.48414  -0.48042  -0.47847  -0.47765  -0.47636
 Alpha  occ. eigenvalues --   -0.47488  -0.47350  -0.47144  -0.47116  -0.46738
 Alpha  occ. eigenvalues --   -0.46727  -0.46465  -0.46096  -0.45938  -0.45710
 Alpha  occ. eigenvalues --   -0.45579  -0.45546  -0.45427  -0.45304  -0.45274
 Alpha  occ. eigenvalues --   -0.44842  -0.44798  -0.44503  -0.44183  -0.44078
 Alpha  occ. eigenvalues --   -0.43872  -0.43697  -0.43662  -0.43565  -0.43425
 Alpha  occ. eigenvalues --   -0.43273  -0.43132  -0.43078  -0.43012  -0.42780
 Alpha  occ. eigenvalues --   -0.42456  -0.42436  -0.42386  -0.42099  -0.41897
 Alpha  occ. eigenvalues --   -0.41644  -0.41548  -0.41369  -0.41262  -0.41131
 Alpha  occ. eigenvalues --   -0.40999  -0.40998  -0.40700  -0.40671  -0.40489
 Alpha  occ. eigenvalues --   -0.40362  -0.40064  -0.39891  -0.39831  -0.39673
 Alpha  occ. eigenvalues --   -0.39581  -0.39320  -0.39176  -0.39146  -0.39054
 Alpha  occ. eigenvalues --   -0.38904  -0.38558  -0.38495  -0.38480  -0.38186
 Alpha  occ. eigenvalues --   -0.37870  -0.37763  -0.37606  -0.37568  -0.37481
 Alpha  occ. eigenvalues --   -0.37472  -0.37190  -0.37100  -0.36845  -0.36741
 Alpha  occ. eigenvalues --   -0.36596  -0.36462  -0.36352  -0.36272  -0.36056
 Alpha  occ. eigenvalues --   -0.35822  -0.35702  -0.35567  -0.35467  -0.35131
 Alpha  occ. eigenvalues --   -0.34988  -0.34744  -0.34660  -0.34303  -0.34015
 Alpha  occ. eigenvalues --   -0.33590  -0.33157  -0.33036  -0.32924  -0.32881
 Alpha  occ. eigenvalues --   -0.32596  -0.31949  -0.31836  -0.31575  -0.31468
 Alpha  occ. eigenvalues --   -0.31380  -0.31299  -0.29778  -0.29627  -0.29547
 Alpha  occ. eigenvalues --   -0.29290  -0.29077  -0.28566  -0.27144  -0.26945
 Alpha  occ. eigenvalues --   -0.26383  -0.26231  -0.25854  -0.25758  -0.25371
 Alpha  occ. eigenvalues --   -0.25048  -0.24942  -0.24835  -0.21801  -0.20597
 Alpha  occ. eigenvalues --   -0.19316  -0.18819
 Alpha virt. eigenvalues --   -0.11936  -0.10913  -0.05428  -0.05122  -0.04204
 Alpha virt. eigenvalues --   -0.04189  -0.02360  -0.02258  -0.02038  -0.00100
 Alpha virt. eigenvalues --    0.00487   0.00843   0.00895   0.01423   0.01525

 Mulliken charges:
               1
     1  Mg  12.000000
     2  C    6.000000
     3  C    6.000000
     4  C    6.000000
     5  C    6.000000
     6  N    7.000000
     7  C    6.000000
     8  C    6.000000
     9  C    6.000000
    10  C    6.000000
    11  C    6.000000
    12  C    6.000000
    13  C    6.000000
    14  H    1.000000
    15  N    7.000000
    16  C    6.000000
    17  C    6.000000
    18  C    6.000000
    19  C    6.000000
    20  C    6.000000
    21  C    6.000000
    22  O    8.000000
    23  C    6.000000
    24  N    7.000000
    25  C    6.000000
    26  C    6.000000
    27  C    6.000000
    28  C    6.000000
    29  C    6.000000
    30  C    6.000000
    31  C    6.000000
    32  N    7.000000
    33  C    6.000000
    34  C    6.000000
    35  C    6.000000
    36  C    6.000000
    37  C    6.000000
    38  C    6.000000
    39  O    8.000000
    40  C    6.000000
    41  C    6.000000
    42  O    8.000000
    43  O    8.000000
    44  C    6.000000
    45  H    1.000000
    46  H    1.000000
    47  H    1.000000
    48  H    1.000000
    49  H    1.000000
    50  H    1.000000
    51  H    1.000000
    52  H    1.000000
    53  H    1.000000
    54  H    1.000000
    55  H    1.000000
    56  H    1.000000
    57  H    1.000000
    58  H    1.000000
    59  H    1.000000
    60  H    1.000000
    61  H    1.000000
    62  H    1.000000
    63  H    1.000000
    64  H    1.000000
    65  H    1.000000
    66  H    1.000000
    67  H    1.000000
    68  H    1.000000
    69  H    1.000000
    70  H    1.000000
    71  H    1.000000
    72  H    1.000000
    73  H    1.000000
    74  H    1.000000
    75  H    1.000000
    76  H    1.000000
    77  H    1.000000
    78  H    1.000000
    79  H    1.000000
    80  Mg  12.000000
    81  C    6.000000
    82  C    6.000000
    83  C    6.000000
    84  C    6.000000
    85  N    7.000000
    86  C    6.000000
    87  C    6.000000
    88  C    6.000000
    89  C    6.000000
    90  C    6.000000
    91  C    6.000000
    92  C    6.000000
    93  H    1.000000
    94  N    7.000000
    95  C    6.000000
    96  C    6.000000
    97  C    6.000000
    98  C    6.000000
    99  C    6.000000
   100  C    6.000000
   101  O    8.000000
   102  C    6.000000
   103  N    7.000000
   104  C    6.000000
   105  C    6.000000
   106  C    6.000000
   107  C    6.000000
   108  C    6.000000
   109  C    6.000000
   110  C    6.000000
   111  N    7.000000
   112  C    6.000000
   113  C    6.000000
   114  C    6.000000
   115  C    6.000000
   116  C    6.000000
   117  C    6.000000
   118  O    8.000000
   119  C    6.000000
   120  C    6.000000
   121  O    8.000000
   122  O    8.000000
   123  C    6.000000
   124  H    1.000000
   125  H    1.000000
   126  H    1.000000
   127  H    1.000000
   128  H    1.000000
   129  H    1.000000
   130  H    1.000000
   131  H    1.000000
   132  H    1.000000
   133  H    1.000000
   134  H    1.000000
   135  H    1.000000
   136  H    1.000000
   137  H    1.000000
   138  H    1.000000
   139  H    1.000000
   140  H    1.000000
   141  H    1.000000
   142  H    1.000000
   143  H    1.000000
   144  H    1.000000
   145  H    1.000000
   146  H    1.000000
   147  H    1.000000
   148  H    1.000000
   149  H    1.000000
   150  H    1.000000
   151  H    1.000000
   152  H    1.000000
   153  H    1.000000
   154  H    1.000000
   155  H    1.000000
   156  H    1.000000
   157  H    1.000000
   158  H    1.000000
 Sum of Mulliken charges = 624.00000

 Dipole moment (field-independent basis, Debye):
    X=              0.0000    Y=              0.0000    Z=             -0.0000  Tot=              0.0000
 Quadrupole moment (field-independent basis, Debye-Ang):
   XX=              0.0000   YY=              0.0000   ZZ=             -0.0000
   XY=              0.0000   XZ=             -0.0000   YZ=             -0.0000

 Normal termination of Gaussian 16 at Fri Oct 15 09:47:57 2021.
