 Gaussian 16, Revision A.03,
 Gaussian 16:  ES64L-G16RevA.03 25-Dec-2016

 --------------------------------------------------------
 #p PBE1PBE/Def2SVP td=(nstates=5) density=(transition=1)
 --------------------------------------------------------

 --------------------------------
 TDDFT excited states in gaussian
 --------------------------------
 Symbolic Z-matrix:
 Charge =  0 Multiplicity = 1

                         Standard orientation:
 ---------------------------------------------------------------------
 Center     Atomic      Atomic             Coordinates (Angstroms)
 Number     Number       Type             X           Y           Z
 ---------------------------------------------------------------------
      1         12           0        8.255302   -1.015405   -0.214370
      2          6           0       10.601606    1.687648   -0.190382
      3          6           0        5.876650    1.237216    0.739978
      4          6           0        6.272680   -3.453495    0.211716
      5          6           0       10.977598   -3.185158   -0.050252
      6          7           0        8.349568    1.159141    0.189497
      7          6           0        9.296497    2.088249    0.104329
      8          6           0        8.756740    3.538745    0.283485
      9          6           0        7.434601    3.214620    1.113479
     10          6           0        7.183291    1.798362    0.626674
     11          6           0        7.654806    3.183514    2.622467
     12          6           0        8.421083    4.221476   -1.085071
     13          6           0        8.201347    5.735825   -1.023283
     14          1           0        8.646771    6.554255   -2.140922
     15          7           0        6.284072   -1.057199   -0.090451
     16          6           0        5.475537   -0.043043    0.300758
     17          6           0        4.095661   -0.569098    0.224013
     18          6           0        4.180244   -2.028433   -0.061085
     19          6           0        5.601035   -2.245984    0.035881
     20          6           0        2.877893    0.291745    0.364523
     21          6           0        3.143942   -3.064813   -0.361295
     22          8           0        3.409106   -4.315454   -0.348649
     23          6           0        1.771710   -2.575696   -0.586652
     24          7           0        8.557588   -3.024412    0.265369
     25          6           0        7.531647   -3.880022    0.331397
     26          6           0        8.008933   -5.300002    0.407520
     27          6           0        9.581409   -5.253095    0.133898
     28          6           0        9.755942   -3.718338    0.022859
     29          6           0        7.743153   -6.025184    1.733975
     30          6           0       10.122224   -6.141900   -1.014128
     31          6           0        9.615952   -5.627804   -2.343223
     32          7           0       10.415554   -0.828482   -0.311399
     33          6           0       11.357157   -1.861581   -0.198412
     34          6           0       12.691289   -1.234034   -0.216936
     35          6           0       12.431007    0.130795   -0.323423
     36          6           0       11.023061    0.344413   -0.342124
     37          6           0       13.933942   -1.913823   -0.082261
     38          6           0       13.014500    1.460224   -0.400948
     39          8           0       14.159395    1.899170   -0.519412
     40          6           0       11.852997    2.529991   -0.195187
     41          6           0       11.996585    3.569759   -1.272951
     42          8           0       11.801709    3.280337   -2.471126
     43          8           0       12.105276    4.782491   -0.709030
     44          6           0       12.221315    5.863039   -1.724463
     45          1           0        5.103306    1.802007    1.264278
     46          1           0        5.626328   -4.332739    0.251678
     47          1           0       11.874983   -3.805418   -0.088087
     48          1           0        9.406292    4.197398    0.860271
     49          1           0        6.606998    3.864930    0.830827
     50          1           0        8.712776    3.261968    2.872399
     51          1           0        7.255046    2.225424    2.955256
     52          1           0        7.054085    3.947023    3.117407
     53          1           0        7.431113    3.903549   -1.412092
     54          1           0        9.189526    3.998618   -1.826121
     55          1           0        8.556120    6.151887   -0.079917
     56          1           0        7.127896    5.925174   -1.016203
     57          1           0        3.130234    1.285586    0.732148
     58          1           0        2.269320   -0.144383    1.156444
     59          1           0        2.300404    0.339607   -0.558812
     60          1           0        1.432201   -2.036109    0.297727
     61          1           0        1.185395   -3.447344   -0.875293
     62          1           0        1.784417   -1.851384   -1.401612
     63          1           0        7.531850   -5.914322   -0.354994
     64          1           0       10.157687   -5.564635    1.005403
     65          1           0        7.168837   -6.945217    1.622597
     66          1           0        7.239813   -5.328654    2.403891
     67          1           0        8.636458   -6.270523    2.307762
     68          1           0        9.759196   -7.163401   -0.906001
     69          1           0       11.210955   -6.179232   -1.053155
     70          1           0        8.628128   -6.080868   -2.419177
     71          1           0       10.263521   -5.965151   -3.153200
     72          1           0        9.478021   -4.546535   -2.325416
     73          1           0       14.601716   -1.478873   -0.825810
     74          1           0       13.816941   -2.986588   -0.234210
     75          1           0       14.190593   -1.663409    0.946952
     76          1           0       11.987607    2.951231    0.800583
     77          1           0       13.135002    6.414766   -1.503089
     78          1           0       11.280135    6.412620   -1.701071
     79          1           0       12.417070    5.543165   -2.748524
     80         12           0       -8.774967   -0.447848   -0.219456
     81          6           0       -7.060896    2.542263    0.571836
     82          6           0      -11.067551    1.433778   -1.931945
     83          6           0      -10.703780   -3.133970   -0.399048
     84          6           0       -6.624917   -2.141892    1.962048
     85          7           0       -9.117806    1.764811   -0.492860
     86          6           0       -8.203453    2.768168   -0.161236
     87          6           0       -8.579556    4.084477   -0.885198
     88          6           0       -9.887527    3.702781   -1.670029
     89          6           0      -10.059261    2.180944   -1.407342
     90          6           0      -11.093827    4.607392   -1.488303
     91          6           0       -7.499465    4.705636   -1.784539
     92          6           0       -7.165733    6.183117   -1.439929
     93          1           0       -7.309891    7.165625   -2.580924
     94          7           0      -10.602113   -0.794760   -1.138918
     95          6           0      -11.427595    0.089564   -1.768975
     96          6           0      -12.499304   -0.665372   -2.373369
     97          6           0      -12.486315   -2.008697   -1.800696
     98          6           0      -11.232985   -1.980050   -1.062472
     99          6           0      -13.655222    0.028527   -3.263811
    100          6           0      -13.532097   -3.032064   -1.681170
    101          8           0      -13.432939   -4.122726   -1.195498
    102          6           0      -14.903925   -2.649438   -2.228623
    103          7           0       -8.763748   -2.325131    0.851629
    104          6           0       -9.650723   -3.288227    0.533953
    105          6           0       -9.225898   -4.632904    1.128670
    106          6           0       -7.772527   -4.371561    1.555449
    107          6           0       -7.667844   -2.868421    1.425142
    108          6           0      -10.154812   -5.045425    2.360974
    109          6           0       -6.791657   -5.093333    0.497873
    110          6           0       -6.700043   -4.424985   -0.901108
    111          7           0       -7.073187   -0.016214    0.962773
    112          6           0       -6.327519   -0.798437    1.759836
    113          6           0       -5.283160    0.008886    2.330862
    114          6           0       -5.503271    1.289021    1.858170
    115          6           0       -6.654027    1.266916    1.065415
    116          6           0       -4.171170   -0.395243    3.280040
    117          6           0       -4.967550    2.646623    1.989389
    118          8           0       -4.129590    3.223999    2.622970
    119          6           0       -5.904463    3.505696    1.099680
    120          6           0       -6.470135    4.540248    2.000836
    121          8           0       -7.041915    4.242519    3.019354
    122          8           0       -6.194222    5.836519    1.596510
    123          6           0       -6.467994    6.919846    2.599105
    124          1           0      -11.665846    2.010099   -2.640885
    125          1           0      -11.238679   -4.078332   -0.522731
    126          1           0       -5.790289   -2.618164    2.480772
    127          1           0       -8.893937    4.814343   -0.138879
    128          1           0       -9.696387    3.857291   -2.732138
    129          1           0      -10.980778    5.243273   -0.611497
    130          1           0      -12.040692    4.070264   -1.427668
    131          1           0      -11.084785    5.286974   -2.340097
    132          1           0       -7.697978    4.768222   -2.854494
    133          1           0       -6.575467    4.130403   -1.730492
    134          1           0       -6.202291    6.268272   -0.937413
    135          1           0       -7.900313    6.521856   -0.710457
    136          1           0      -13.771830   -0.560151   -4.173667
    137          1           0      -13.452691    1.040087   -3.613671
    138          1           0      -14.636785    0.186539   -2.817032
    139          1           0      -14.712453   -2.486776   -3.289533
    140          1           0      -15.162850   -1.729246   -1.705835
    141          1           0      -15.658264   -3.433655   -2.157652
    142          1           0       -9.192272   -5.441722    0.397976
    143          1           0       -7.446383   -4.600990    2.570134
    144          1           0      -10.166537   -6.135140    2.395300
    145          1           0      -11.201155   -4.738286    2.352032
    146          1           0       -9.625155   -4.656537    3.230508
    147          1           0       -7.026432   -6.148101    0.356230
    148          1           0       -5.757745   -4.975065    0.822418
    149          1           0       -6.177666   -5.002804   -1.662834
    150          1           0       -6.155377   -3.488444   -0.780328
    151          1           0       -7.717120   -4.199780   -1.223599
    152          1           0       -3.471847   -1.123130    2.869294
    153          1           0       -4.702305   -0.856399    4.112295
    154          1           0       -3.644720    0.461360    3.700933
    155          1           0       -5.216636    3.973757    0.395697
    156          1           0       -6.949241    7.638739    1.936012
    157          1           0       -5.560171    7.355472    3.016052
    158          1           0       -7.088851    6.717721    3.471549
 ---------------------------------------------------------------------

 SCF Done:  E(RPBE1PBE) =  -4067.38968685     A.U. after   16 cycles

 Excitation energies and oscillator strengths:

 Excited State   1:      Singlet-A      1.6741 eV  740.58 nm  f=0.0000  <S**2>=0.000
     312 -> 313        0.70704
 This state for optimization and/or second-order correction.
 Total Energy, E(TD-HF/TD-DFT) =  -4067.32816317
 Copying the excited state density for this state as the 1-particle RhoCI density.

 Excited State   2:      Singlet-A      1.8359 eV  675.34 nm  f=0.6277  <S**2>=0.000
     310 -> 315        0.14886
     311 -> 313       -0.25196
     312 -> 314        0.64656
     312 <- 314       -0.10277

 Excited State   3:      Singlet-A      1.8711 eV  662.62 nm  f=0.1767  <S**2>=0.000
     309 -> 316        0.15785
     311 -> 313        0.64738
     312 -> 314        0.25014
     311 <- 313       -0.10478

 Excited State   4:      Singlet-A      2.0109 eV  616.55 nm  f=0.0000  <S**2>=0.000
     311 -> 314        0.70700

 Excited State   5:      Singlet-A      2.1923 eV  565.55 nm  f=0.0549  <S**2>=0.000
     309 -> 313       -0.11560
     310 -> 314        0.64198
     312 -> 315       -0.23689

 The electronic state is 1-A.
 Alpha  occ. eigenvalues --  -46.93099 -46.91132 -19.26867 -19.25983 -19.20024
 Alpha  occ. eigenvalues --  -19.19669 -19.19249 -19.18992 -19.18772 -19.18359
 Alpha  occ. eigenvalues --  -14.41881 -14.41861 -14.41542 -14.40904 -14.39597
 Alpha  occ. eigenvalues --  -14.39049 -14.38994 -14.38198 -10.36051 -10.35989
 Alpha  occ. eigenvalues --  -10.32511 -10.32476 -10.31632 -10.31516 -10.29403
 Alpha  occ. eigenvalues --  -10.29234 -10.29074 -10.28851 -10.28698 -10.28683
 Alpha  occ. eigenvalues --  -10.28613 -10.28569 -10.28152 -10.28131 -10.28085
 Alpha  occ. eigenvalues --  -10.27949 -10.27878 -10.27585 -10.27496 -10.27198
 Alpha  occ. eigenvalues --  -10.27174 -10.26985 -10.26978 -10.26710 -10.26487
 Alpha  occ. eigenvalues --  -10.26044 -10.26018 -10.26002 -10.25969 -10.25935
 Alpha  occ. eigenvalues --  -10.25865 -10.25807 -10.25741 -10.25579 -10.25499
 Alpha  occ. eigenvalues --  -10.25395 -10.25339 -10.25273 -10.25221 -10.25217
 Alpha  occ. eigenvalues --  -10.25151 -10.25022 -10.24917 -10.24815 -10.24721
 Alpha  occ. eigenvalues --  -10.24717 -10.24382 -10.24365 -10.24299 -10.24204
 Alpha  occ. eigenvalues --  -10.24099 -10.23820 -10.23767 -10.23624 -10.23603
 Alpha  occ. eigenvalues --  -10.23590 -10.23580 -10.23559 -10.23226 -10.23147
 Alpha  occ. eigenvalues --  -10.22909 -10.22886 -10.22537 -10.22483 -10.22351
 Alpha  occ. eigenvalues --  -10.22069  -3.15087  -3.13450  -1.87909  -1.87474
 Alpha  occ. eigenvalues --   -1.87302  -1.86272  -1.85838  -1.85684  -1.11365
 Alpha  occ. eigenvalues --   -1.10611  -1.06648  -1.05979  -1.03312  -1.02633
 Alpha  occ. eigenvalues --   -1.01823  -1.01394  -0.99986  -0.99135  -0.99108
 Alpha  occ. eigenvalues --   -0.98698  -0.98311  -0.97842  -0.97032  -0.96782
 Alpha  occ. eigenvalues --   -0.86887  -0.86270  -0.83786  -0.83371  -0.83326
 Alpha  occ. eigenvalues --   -0.83248  -0.82737  -0.82548  -0.82241  -0.82147
 Alpha  occ. eigenvalues --   -0.81907  -0.81375  -0.81059  -0.80760  -0.79163
 Alpha  occ. eigenvalues --   -0.78892  -0.78185  -0.77913  -0.77116  -0.76913
 Alpha  occ. eigenvalues --   -0.76817  -0.75837  -0.75656  -0.75366  -0.74888
 Alpha  occ. eigenvalues --   -0.74574  -0.73038  -0.72841  -0.71862  -0.71485
 Alpha  occ. eigenvalues --   -0.71242  -0.71164  -0.70613  -0.70167  -0.69737
 Alpha  occ. eigenvalues --   -0.69177  -0.67737  -0.67181  -0.66393  -0.66026
 Alpha  occ. eigenvalues --   -0.64181  -0.63834  -0.63793  -0.63166  -0.62681
 Alpha  occ. eigenvalues --   -0.62067  -0.61806  -0.61491  -0.60072  -0.60002
 Alpha  occ. eigenvalues --   -0.59800  -0.59638  -0.59360  -0.59231  -0.59033
 Alpha  occ. eigenvalues --   -0.58722  -0.57041  -0.56819  -0.55174  -0.54890
 Alpha  occ. eigenvalues --   -0.54451  -0.54232  -0.54043  -0.53565  -0.53522
 Alpha  occ. eigenvalues --   -0.53059  -0.52804  -0.52331  -0.52051  -0.51750
 Alpha  occ. eigenvalues --   -0.50808  -0.50791  -0.50313  -0.50089  -0.50004
 Alpha  occ. eigenvalues --   -0.49836  -0.49788  -0.49380  -0.49033  -0.48862
 Alpha  occ. eigenvalues --   -0.48382  -0.48193  -0.47895  -0.47760  -0.47698
 Alpha  occ. eigenvalues --   -0.47493  -0.47233  -0.47056  -0.47048  -0.46941
 Alpha  occ. eigenvalues --   -0.46863  -0.46696  -0.46365  -0.46326  -0.46119
 Alpha  occ. eigenvalues --   -0.45925  -0.45803  -0.45511  -0.45026  -0.44842
 Alpha  occ. eigenvalues --   -0.44586  -0.44556  -0.44429  -0.44242  -0.44195
 Alpha  occ. eigenvalues --   -0.44080  -0.44072  -0.43809  -0.43803  -0.43631
 Alpha  occ. eigenvalues --   -0.43230  -0.43158  -0.43069  -0.43068  -0.42967
 Alpha  occ. eigenvalues --   -0.42724  -0.42429  -0.42274  -0.42183  -0.41884
 Alpha  occ. eigenvalues --   -0.41853  -0.41503  -0.41290  -0.41172  -0.41067
 Alpha  occ. eigenvalues --   -0.41010  -0.40987  -0.40822  -0.40772  -0.40497
 Alpha  occ. eigenvalues --   -0.40468  -0.40245  -0.40013  -0.39895  -0.39473
 Alpha  occ. eigenvalues --   -0.39247  -0.39167  -0.39073  -0.38845  -0.38774
 Alpha  occ. eigenvalues --   -0.38694  -0.38650  -0.38341  -0.38252  -0.38224
 Alpha  occ. eigenvalues --   -0.38176  -0.38013  -0.37909  -0.37797  -0.37493
 Alpha  occ. eigenvalues --   -0.37438  -0.37402  -0.37280  -0.37159  -0.37004
 Alpha  occ. eigenvalues --   -0.36812  -0.36506  -0.36481  -0.36421  -0.36294
 Alpha  occ. eigenvalues --   -0.35902  -0.35897  -0.35715  -0.35566  -0.35433
 Alpha  occ. eigenvalues --   -0.35376  -0.34938  -0.34841  -0.34299  -0.34112
 Alpha  occ. eigenvalues --   -0.33480  -0.33370  -0.33221  -0.32996  -0.32655
 Alpha  occ. eigenvalues --   -0.32332  -0.32271  -0.32184  -0.31655  -0.31533
 Alpha  occ. eigenvalues --   -0.31396  -0.31202  -0.29768  -0.29451  -0.29294
 Alpha  occ. eigenvalues --   -0.28948  -0.28860  -0.28359  -0.27409  -0.26662
 Alpha  occ. eigenvalues --   -0.26385  -0.26169  -0.25986  -0.25941  -0.25250
 Alpha  occ. eigenvalues --   -0.25060  -0.24898  -0.24773  -0.21297  -0.20917
 Alpha  occ. eigenvalues --   -0.19361  -0.18699
 Alpha virt. eigenvalues --   -0.11761  -0.11165  -0.05296  -0.05161  -0.04100
 Alpha virt. eigenvalues --   -0.03880  -0.02124  -0.02110  -0.01289   0.00414
 Alpha virt. eigenvalues --    0.00478   0.00504   0.00615   0.00980   0.02142

 Mulliken charges:
               1
     1  Mg  12.000000
     2  C    5.999995
     3  C    5.999999
     4  C    6.000003
     5  C    6.000002
     6  N    6.999996
     7  C    6.000006
     8  C    5.999999
     9  C    6.000001
    10  C    6.000001
    11  C    6.000000
    12  C    6.000000
    13  C    6.000000
    14  H    1.000000
    15  N    7.000002
    16  C    6.000001
    17  C    6.000008
    18  C    6.000000
    19  C    5.999993
    20  C    6.000001
    21  C    6.000003
    22  O    8.000003
    23  C    5.999997
    24  N    7.000005
    25  C    5.999998
    26  C    6.000000
    27  C    6.000000
    28  C    6.000000
    29  C    6.000000
    30  C    6.000000
    31  C    6.000000
    32  N    6.999998
    33  C    6.000001
    34  C    6.000005
    35  C    6.000000
    36  C    6.000005
    37  C    6.000000
    38  C    6.000001
    39  O    8.000002
    40  C    6.000000
    41  C    6.000001
    42  O    8.000000
    43  O    8.000000
    44  C    6.000000
    45  H    1.000000
    46  H    0.999999
    47  H    1.000000
    48  H    1.000000
    49  H    1.000000
    50  H    0.999999
    51  H    1.000000
    52  H    1.000000
    53  H    1.000001
    54  H    1.000000
    55  H    1.000000
    56  H    1.000000
    57  H    0.999999
    58  H    0.999992
    59  H    1.000002
    60  H    0.999996
    61  H    0.999999
    62  H    1.000001
    63  H    1.000000
    64  H    1.000000
    65  H    1.000000
    66  H    1.000000
    67  H    1.000000
    68  H    1.000001
    69  H    1.000000
    70  H    1.000000
    71  H    1.000000
    72  H    1.000000
    73  H    1.000001
    74  H    1.000001
    75  H    1.000001
    76  H    1.000000
    77  H    1.000000
    78  H    1.000000
    79  H    1.000000
    80  Mg  12.000000
    81  C    5.999998
    82  C    5.999999
    83  C    6.000001
    84  C    5.999999
    85  N    6.999998
    86  C    6.000002
    87  C    5.999999
    88  C    6.000001
    89  C    5.999998
    90  C    6.000000
    91  C    6.000000
    92  C    6.000000
    93  H    1.000000
    94  N    7.000000
    95  C    5.999997
    96  C    5.999997
    97  C    5.999997
    98  C    5.999998
    99  C    6.000000
   100  C    5.999999
   101  O    7.999997
   102  C    6.000000
   103  N    7.000000
   104  C    5.999997
   105  C    6.000001
   106  C    6.000000
   107  C    6.000002
   108  C    6.000000
   109  C    6.000000
   110  C    6.000000
   111  N    7.000000
   112  C    6.000002
   113  C    6.000004
   114  C    5.999997
   115  C    6.000003
   116  C    6.000000
   117  C    6.000000
   118  O    8.000000
   119  C    6.000001
   120  C    6.000000
   121  O    8.000000
   122  O    8.000000
   123  C    6.000000
   124  H    0.999999
   125  H    1.000000
   126  H    1.000001
   127  H    1.000000
   128  H    1.000000
   129  H    0.999999
   130  H    1.000000
   131  H    1.000000
   132  H    1.000000
   133  H    1.000000
   134  H    1.000000
   135  H    1.000000
   136  H    0.999999
   137  H    0.999999
   138  H    0.999999
   139  H    1.000000
   140  H    1.000000
   141  H    0.999999
   142  H    1.000000
   143  H    1.000000
   144  H    1.000000
   145  H    1.000000
   146  H    0.999999
   147  H    1.000001
   148  H    1.000000
   149  H    1.000000
   150  H    0.999999
   151  H    1.000001
   152  H    0.999995
   153  H    1.000003
   154  H    1.000001
   155  H    1.000000
   156  H    1.000000
   157  H    1.000000
   158  H    1.000000
 Sum of Mulliken charges = 624.00000

 Dipole moment (field-independent basis, Debye):
    X=              0.0025    Y=              0.0001    Z=              0.0002  Tot=              0.0025
 Quadrupole moment (field-independent basis, Debye-Ang):
   XX=             -0.0030   YY=              0.0004   ZZ=             -0.0003
   XY=             -0.0022   XZ=             -0.0039   YZ=              0.0000

 Normal termination of Gaussian 16 at Thu Oct 14 15:51:51 2021.
