 Gaussian 16, Revision A.03,
 Gaussian 16:  ES64L-G16RevA.03 25-Dec-2016

 --------------------------------------------------------
 #p PBE1PBE/Def2SVP td=(nstates=5) density=(transition=1)
 --------------------------------------------------------

 --------------------------------
 TDDFT excited states in gaussian
 --------------------------------
 Symbolic Z-matrix:
 Charge =  0 Multiplicity = 1

                         Standard orientation:
 ---------------------------------------------------------------------
 Center     Atomic      Atomic             Coordinates (Angstroms)
 Number     Number       Type             X           Y           Z
 ---------------------------------------------------------------------
      1         12           0      -13.809716    0.999229   -0.273760
      2          6           0      -13.923266   -2.581736    0.081204
      3          6           0      -10.456613    0.672528   -0.824947
      4          6           0      -13.662154    4.350200   -0.299947
      5          6           0      -17.041880    1.107743    0.771468
      6          7           0      -12.327239   -0.855809   -0.410691
      7          6           0      -12.676351   -2.167210   -0.266539
      8          6           0      -11.491774   -2.977612   -0.634460
      9          6           0      -10.330350   -1.957715   -0.793438
     10          6           0      -11.010431   -0.570946   -0.629626
     11          6           0       -9.223254   -2.162723    0.289044
     12          6           0      -11.656204   -3.878247   -1.833031
     13          6           0      -10.583335   -4.911306   -2.137469
     14          1           0      -11.038351   -6.288091   -2.385163
     15          7           0      -12.313619    2.302516   -0.633570
     16          6           0      -10.934380    1.974515   -0.747164
     17          6           0      -10.232402    3.227873   -1.081729
     18          6           0      -11.143222    4.252302   -0.837079
     19          6           0      -12.444682    3.643871   -0.506672
     20          6           0       -8.753962    3.236112   -1.409824
     21          6           0      -10.961712    5.780902   -0.956900
     22          8           0      -11.764373    6.617031   -0.501549
     23          6           0       -9.770825    6.254843   -1.685265
     24          7           0      -15.147024    2.561448    0.236526
     25          6           0      -14.915506    3.855129    0.147652
     26          6           0      -16.123453    4.730136    0.581579
     27          6           0      -17.224298    3.670495    0.665256
     28          6           0      -16.446874    2.383893    0.507177
     29          6           0      -15.856666    5.441942    1.950713
     30          6           0      -18.357510    3.781731   -0.329649
     31          6           0      -19.778157    3.545432    0.213065
     32          7           0      -15.206913   -0.431971    0.211190
     33          6           0      -16.506526   -0.212798    0.612731
     34          6           0      -17.235428   -1.500240    0.821187
     35          6           0      -16.194659   -2.386013    0.627575
     36          6           0      -14.996047   -1.731299    0.319399
     37          6           0      -18.700772   -1.722337    1.017243
     38          6           0      -15.900586   -3.811465    0.636549
     39          8           0      -16.684618   -4.735653    0.820605
     40          6           0      -14.410556   -4.018027    0.280188
     41          6           0      -13.863508   -4.883403    1.293790
     42          8           0      -13.554395   -4.568250    2.468205
     43          8           0      -13.553196   -6.097143    0.759928
     44          6           0      -12.746116   -7.012005    1.537328
     45          1           0       -9.401039    0.578664   -1.087425
     46          1           0      -13.581721    5.428116   -0.145762
     47          1           0      -17.976511    1.260466    1.314804
     48          1           0      -11.328481   -3.580191    0.258075
     49          1           0       -9.842995   -2.030630   -1.765843
     50          1           0       -8.162357   -2.255710    0.054636
     51          1           0       -9.506776   -3.092104    0.782720
     52          1           0       -9.266552   -1.471364    1.131048
     53          1           0      -11.668503   -3.303539   -2.759284
     54          1           0      -12.670183   -4.269151   -1.912867
     55          1           0       -9.876416   -4.986282   -1.312543
     56          1           0      -10.217999   -4.656556   -3.131983
     57          1           0       -8.184756    4.008571   -0.893124
     58          1           0       -8.536005    3.334259   -2.473100
     59          1           0       -8.210894    2.341875   -1.103026
     60          1           0       -9.729376    5.742688   -2.646661
     61          1           0       -8.959054    5.923775   -1.038496
     62          1           0       -9.942358    7.309332   -1.898278
     63          1           0      -16.288299    5.439752   -0.229926
     64          1           0      -17.720470    3.569756    1.630114
     65          1           0      -16.498814    5.049609    2.738716
     66          1           0      -16.087426    6.505809    1.895350
     67          1           0      -14.813200    5.230688    2.184983
     68          1           0      -18.210893    3.123596   -1.185483
     69          1           0      -18.159406    4.720390   -0.846104
     70          1           0      -20.453315    4.120637   -0.419750
     71          1           0      -19.862391    3.726608    1.285041
     72          1           0      -19.877645    2.469616    0.070302
     73          1           0      -19.231237   -2.034402    0.117425
     74          1           0      -19.060866   -0.823392    1.516760
     75          1           0      -18.848068   -2.424104    1.839114
     76          1           0      -14.432535   -4.643153   -0.612423
     77          1           0      -12.353139   -6.595979    2.465392
     78          1           0      -11.963214   -7.452801    0.920792
     79          1           0      -13.311209   -7.890439    1.850074
     80         12           0       14.283324   -0.148763    0.375584
     81          6           0       11.629169   -1.449892   -1.456337
     82          6           0       15.471769    1.265550   -2.558866
     83          6           0       16.531802    1.591404    2.061223
     84          6           0       12.739061   -1.180622    3.296038
     85          7           0       13.553638    0.042610   -1.715165
     86          6           0       12.519785   -0.687941   -2.264106
     87          6           0       12.458886   -0.578462   -3.758967
     88          6           0       13.912370   -0.024048   -4.098530
     89          6           0       14.349216    0.503979   -2.738527
     90          6           0       14.978368   -0.884863   -4.929037
     91          6           0       11.232073    0.269978   -4.334372
     92          6           0       10.711293    1.462798   -3.478562
     93          1           0       10.368003    2.697019   -4.277592
     94          7           0       15.729415    1.335965   -0.149703
     95          6           0       16.074019    1.769819   -1.435875
     96          6           0       17.079140    2.796305   -1.394657
     97          6           0       17.404791    2.937263   -0.024561
     98          6           0       16.545114    1.971578    0.722675
     99          6           0       17.744407    3.276253   -2.685589
    100          6           0       18.495997    3.921032    0.455646
    101          8           0       19.065573    4.697091   -0.318355
    102          6           0       18.855638    3.838404    1.879361
    103          7           0       14.466807    0.221964    2.401004
    104          6           0       15.664998    0.757572    2.842531
    105          6           0       15.841960    0.657358    4.373658
    106          6           0       14.462328   -0.040342    4.717191
    107          6           0       13.823559   -0.308929    3.427677
    108          6           0       17.022878   -0.072619    4.931339
    109          6           0       13.492644    0.889952    5.607525
    110          6           0       12.898747    0.113753    6.753948
    111          7           0       12.622362   -1.300938    0.881507
    112          6           0       12.118682   -1.637351    2.124340
    113          6           0       10.876193   -2.427564    1.967503
    114          6           0       10.644658   -2.381028    0.548690
    115          6           0       11.719659   -1.692123   -0.024967
    116          6           0        9.903825   -2.892308    2.974162
    117          6           0        9.730195   -2.700246   -0.568280
    118          8           0        8.632248   -3.206260   -0.539137
    119          6           0       10.346018   -2.152294   -1.895813
    120          6           0       10.491732   -3.232603   -2.872138
    121          8           0        9.975277   -3.372887   -3.981016
    122          8           0       11.142254   -4.303125   -2.204290
    123          6           0       11.439678   -5.485571   -3.040753
    124          1           0       15.942717    1.473341   -3.522461
    125          1           0       17.337852    1.954853    2.701852
    126          1           0       12.376539   -1.522901    4.266959
    127          1           0       12.314170   -1.563028   -4.203562
    128          1           0       13.652194    0.837877   -4.713450
    129          1           0       14.616122   -1.832423   -5.327400
    130          1           0       15.843912   -1.195276   -4.343880
    131          1           0       15.221153   -0.358971   -5.852806
    132          1           0       10.406215   -0.386825   -4.605643
    133          1           0       11.560079    0.652544   -5.300859
    134          1           0       11.428406    1.718868   -2.698043
    135          1           0        9.791852    1.176458   -2.968678
    136          1           0       18.071605    4.315925   -2.652078
    137          1           0       17.009034    3.269381   -3.489701
    138          1           0       18.611491    2.630822   -2.827864
    139          1           0       19.386192    2.901747    2.047887
    140          1           0       17.957595    3.926297    2.491635
    141          1           0       19.526598    4.680623    2.048177
    142          1           0       15.728158    1.662782    4.779636
    143          1           0       14.781130   -1.014374    5.088255
    144          1           0       16.821131   -0.191362    5.996031
    145          1           0       17.872464    0.608032    4.876053
    146          1           0       17.187368   -1.004502    4.389079
    147          1           0       12.742418    1.290310    4.925757
    148          1           0       13.910828    1.823058    5.987180
    149          1           0       11.833688   -0.007202    6.557626
    150          1           0       12.843672    0.702904    7.669957
    151          1           0       13.319594   -0.891263    6.776621
    152          1           0       10.147413   -2.662121    4.012426
    153          1           0        9.900355   -3.979455    2.903497
    154          1           0        9.052370   -2.258353    2.727537
    155          1           0        9.632631   -1.402196   -2.236380
    156          1           0       12.467995   -5.709200   -2.754451
    157          1           0       11.394536   -5.431249   -4.128499
    158          1           0       10.876359   -6.293528   -2.573505
 ---------------------------------------------------------------------

 SCF Done:  E(RPBE1PBE) =  -4067.38773049     A.U. after   16 cycles

 Excitation energies and oscillator strengths:

 Excited State   1:      Singlet-A      1.8602 eV  666.52 nm  f=0.0000  <S**2>=0.000
     312 -> 313        0.70710
 This state for optimization and/or second-order correction.
 Total Energy, E(TD-HF/TD-DFT) =  -4067.31937010
 Copying the excited state density for this state as the 1-particle RhoCI density.

 Excited State   2:      Singlet-A      1.8711 eV  662.64 nm  f=0.3736  <S**2>=0.000
     309 -> 315       -0.17699
     311 -> 313        0.68983
     311 <- 313       -0.10399

 Excited State   3:      Singlet-A      1.9171 eV  646.72 nm  f=0.3583  <S**2>=0.000
     310 -> 316       -0.19061
     312 -> 314        0.68778

 Excited State   4:      Singlet-A      2.1290 eV  582.37 nm  f=0.0000  <S**2>=0.000
     311 -> 314        0.70710

 Excited State   5:      Singlet-A      2.2140 eV  560.01 nm  f=0.0894  <S**2>=0.000
     309 -> 313        0.64345
     311 -> 315        0.27386

 The electronic state is 1-A.
 Alpha  occ. eigenvalues --  -46.92552 -46.91827 -19.25746 -19.25082 -19.20828
 Alpha  occ. eigenvalues --  -19.19223 -19.19174 -19.19141 -19.19015 -19.18787
 Alpha  occ. eigenvalues --  -14.41809 -14.41737 -14.41337 -14.40542 -14.39349
 Alpha  occ. eigenvalues --  -14.39299 -14.39189 -14.38944 -10.36806 -10.36048
 Alpha  occ. eigenvalues --  -10.32417 -10.32257 -10.32221 -10.31575 -10.29383
 Alpha  occ. eigenvalues --  -10.29021 -10.28590 -10.28382 -10.28358 -10.28334
 Alpha  occ. eigenvalues --  -10.28324 -10.28306 -10.28191 -10.28144 -10.28073
 Alpha  occ. eigenvalues --  -10.28007 -10.27968 -10.27957 -10.27740 -10.26981
 Alpha  occ. eigenvalues --  -10.26776 -10.26560 -10.26526 -10.26405 -10.26352
 Alpha  occ. eigenvalues --  -10.26099 -10.26052 -10.26050 -10.25996 -10.25981
 Alpha  occ. eigenvalues --  -10.25925 -10.25817 -10.25789 -10.25764 -10.25703
 Alpha  occ. eigenvalues --  -10.25617 -10.25513 -10.25309 -10.25004 -10.24927
 Alpha  occ. eigenvalues --  -10.24899 -10.24888 -10.24884 -10.24830 -10.24816
 Alpha  occ. eigenvalues --  -10.24658 -10.24624 -10.24614 -10.24467 -10.24419
 Alpha  occ. eigenvalues --  -10.24416 -10.23783 -10.23755 -10.23679 -10.23617
 Alpha  occ. eigenvalues --  -10.23536 -10.23429 -10.23410 -10.23395 -10.23359
 Alpha  occ. eigenvalues --  -10.23319 -10.23278 -10.23255 -10.23245 -10.23074
 Alpha  occ. eigenvalues --  -10.22279  -3.14657  -3.14011  -1.87482  -1.87047
 Alpha  occ. eigenvalues --   -1.86873  -1.86861  -1.86376  -1.86247  -1.10817
 Alpha  occ. eigenvalues --   -1.09608  -1.05253  -1.04160  -1.04075  -1.03647
 Alpha  occ. eigenvalues --   -1.01792  -1.00669  -1.00365  -0.99742  -0.99243
 Alpha  occ. eigenvalues --   -0.98416  -0.97901  -0.97603  -0.97021  -0.96736
 Alpha  occ. eigenvalues --   -0.87481  -0.86886  -0.84366  -0.84004  -0.83574
 Alpha  occ. eigenvalues --   -0.83498  -0.82703  -0.82339  -0.82011  -0.81789
 Alpha  occ. eigenvalues --   -0.81322  -0.81307  -0.80905  -0.80488  -0.79089
 Alpha  occ. eigenvalues --   -0.78907  -0.78821  -0.78272  -0.77141  -0.77005
 Alpha  occ. eigenvalues --   -0.76668  -0.76637  -0.75519  -0.75252  -0.75202
 Alpha  occ. eigenvalues --   -0.74560  -0.72862  -0.72741  -0.71966  -0.71838
 Alpha  occ. eigenvalues --   -0.71687  -0.71155  -0.70803  -0.70571  -0.70151
 Alpha  occ. eigenvalues --   -0.69527  -0.67395  -0.67172  -0.66638  -0.66337
 Alpha  occ. eigenvalues --   -0.63871  -0.63808  -0.63717  -0.63575  -0.62644
 Alpha  occ. eigenvalues --   -0.62417  -0.61304  -0.60917  -0.60862  -0.60791
 Alpha  occ. eigenvalues --   -0.59774  -0.59580  -0.59426  -0.59136  -0.59047
 Alpha  occ. eigenvalues --   -0.58608  -0.57137  -0.57072  -0.54855  -0.54849
 Alpha  occ. eigenvalues --   -0.54430  -0.54037  -0.53991  -0.53599  -0.53334
 Alpha  occ. eigenvalues --   -0.52953  -0.52785  -0.52175  -0.52159  -0.51834
 Alpha  occ. eigenvalues --   -0.50989  -0.50946  -0.50416  -0.50184  -0.50018
 Alpha  occ. eigenvalues --   -0.49962  -0.49700  -0.49177  -0.48896  -0.48496
 Alpha  occ. eigenvalues --   -0.48445  -0.48374  -0.47873  -0.47671  -0.47663
 Alpha  occ. eigenvalues --   -0.47385  -0.47317  -0.47076  -0.46781  -0.46583
 Alpha  occ. eigenvalues --   -0.46543  -0.46430  -0.46314  -0.46167  -0.45779
 Alpha  occ. eigenvalues --   -0.45714  -0.45442  -0.45356  -0.45122  -0.44971
 Alpha  occ. eigenvalues --   -0.44838  -0.44792  -0.44510  -0.44351  -0.44268
 Alpha  occ. eigenvalues --   -0.44174  -0.43939  -0.43562  -0.43549  -0.43246
 Alpha  occ. eigenvalues --   -0.43212  -0.42993  -0.42962  -0.42927  -0.42847
 Alpha  occ. eigenvalues --   -0.42502  -0.42463  -0.42321  -0.41955  -0.41948
 Alpha  occ. eigenvalues --   -0.41818  -0.41704  -0.41635  -0.41301  -0.41214
 Alpha  occ. eigenvalues --   -0.41035  -0.40986  -0.40878  -0.40777  -0.40521
 Alpha  occ. eigenvalues --   -0.40315  -0.40204  -0.39944  -0.39882  -0.39856
 Alpha  occ. eigenvalues --   -0.39807  -0.39765  -0.39574  -0.39471  -0.39257
 Alpha  occ. eigenvalues --   -0.38792  -0.38702  -0.38492  -0.38448  -0.38332
 Alpha  occ. eigenvalues --   -0.38046  -0.38014  -0.37957  -0.37893  -0.37744
 Alpha  occ. eigenvalues --   -0.37389  -0.37280  -0.37136  -0.37056  -0.36841
 Alpha  occ. eigenvalues --   -0.36835  -0.36653  -0.36573  -0.36517  -0.36393
 Alpha  occ. eigenvalues --   -0.36304  -0.36155  -0.36003  -0.35903  -0.35674
 Alpha  occ. eigenvalues --   -0.35395  -0.34965  -0.34918  -0.34829  -0.34120
 Alpha  occ. eigenvalues --   -0.33676  -0.33574  -0.33021  -0.32844  -0.32496
 Alpha  occ. eigenvalues --   -0.32052  -0.32009  -0.31668  -0.31002  -0.30902
 Alpha  occ. eigenvalues --   -0.30631  -0.30519  -0.30363  -0.29776  -0.29000
 Alpha  occ. eigenvalues --   -0.28948  -0.28504  -0.28116  -0.27096  -0.26971
 Alpha  occ. eigenvalues --   -0.26128  -0.25937  -0.25817  -0.25806  -0.25668
 Alpha  occ. eigenvalues --   -0.25588  -0.25401  -0.25336  -0.21060  -0.20938
 Alpha  occ. eigenvalues --   -0.18926  -0.18535
 Alpha virt. eigenvalues --   -0.11220  -0.10623  -0.05769  -0.05169  -0.03592
 Alpha virt. eigenvalues --   -0.03434  -0.02015  -0.01846  -0.01170  -0.00570
 Alpha virt. eigenvalues --   -0.00060   0.00450   0.00740   0.01522   0.01944

 Mulliken charges:
               1
     1  Mg  12.000000
     2  C    6.000000
     3  C    6.000000
     4  C    6.000000
     5  C    6.000000
     6  N    7.000000
     7  C    6.000000
     8  C    6.000000
     9  C    6.000000
    10  C    6.000000
    11  C    6.000000
    12  C    6.000000
    13  C    6.000000
    14  H    1.000000
    15  N    7.000000
    16  C    6.000000
    17  C    6.000000
    18  C    6.000000
    19  C    6.000000
    20  C    6.000000
    21  C    6.000000
    22  O    8.000000
    23  C    6.000000
    24  N    7.000000
    25  C    6.000000
    26  C    6.000000
    27  C    6.000000
    28  C    6.000000
    29  C    6.000000
    30  C    6.000000
    31  C    6.000000
    32  N    7.000000
    33  C    6.000000
    34  C    6.000000
    35  C    6.000000
    36  C    6.000000
    37  C    6.000000
    38  C    6.000000
    39  O    8.000000
    40  C    6.000000
    41  C    6.000000
    42  O    8.000000
    43  O    8.000000
    44  C    6.000000
    45  H    1.000000
    46  H    1.000000
    47  H    1.000000
    48  H    1.000000
    49  H    1.000000
    50  H    1.000000
    51  H    1.000000
    52  H    1.000000
    53  H    1.000000
    54  H    1.000000
    55  H    1.000000
    56  H    1.000000
    57  H    1.000000
    58  H    1.000000
    59  H    1.000000
    60  H    1.000000
    61  H    1.000000
    62  H    1.000000
    63  H    1.000000
    64  H    1.000000
    65  H    1.000000
    66  H    1.000000
    67  H    1.000000
    68  H    1.000000
    69  H    1.000000
    70  H    1.000000
    71  H    1.000000
    72  H    1.000000
    73  H    1.000000
    74  H    1.000000
    75  H    1.000000
    76  H    1.000000
    77  H    1.000000
    78  H    1.000000
    79  H    1.000000
    80  Mg  12.000000
    81  C    6.000000
    82  C    6.000000
    83  C    6.000000
    84  C    6.000000
    85  N    7.000000
    86  C    6.000000
    87  C    6.000000
    88  C    6.000000
    89  C    6.000000
    90  C    6.000000
    91  C    6.000000
    92  C    6.000000
    93  H    1.000000
    94  N    7.000000
    95  C    6.000000
    96  C    6.000000
    97  C    6.000000
    98  C    6.000000
    99  C    6.000000
   100  C    6.000000
   101  O    8.000000
   102  C    6.000000
   103  N    7.000000
   104  C    6.000000
   105  C    6.000000
   106  C    6.000000
   107  C    6.000000
   108  C    6.000000
   109  C    6.000000
   110  C    6.000000
   111  N    7.000000
   112  C    6.000000
   113  C    6.000000
   114  C    6.000000
   115  C    6.000000
   116  C    6.000000
   117  C    6.000000
   118  O    8.000000
   119  C    6.000000
   120  C    6.000000
   121  O    8.000000
   122  O    8.000000
   123  C    6.000000
   124  H    1.000000
   125  H    1.000000
   126  H    1.000000
   127  H    1.000000
   128  H    1.000000
   129  H    1.000000
   130  H    1.000000
   131  H    1.000000
   132  H    1.000000
   133  H    1.000000
   134  H    1.000000
   135  H    1.000000
   136  H    1.000000
   137  H    1.000000
   138  H    1.000000
   139  H    1.000000
   140  H    1.000000
   141  H    1.000000
   142  H    1.000000
   143  H    1.000000
   144  H    1.000000
   145  H    1.000000
   146  H    1.000000
   147  H    1.000000
   148  H    1.000000
   149  H    1.000000
   150  H    1.000000
   151  H    1.000000
   152  H    1.000000
   153  H    1.000000
   154  H    1.000000
   155  H    1.000000
   156  H    1.000000
   157  H    1.000000
   158  H    1.000000
 Sum of Mulliken charges = 624.00000

 Dipole moment (field-independent basis, Debye):
    X=             -0.0000    Y=             -0.0000    Z=              0.0000  Tot=              0.0000
 Quadrupole moment (field-independent basis, Debye-Ang):
   XX=             -0.0000   YY=             -0.0000   ZZ=              0.0000
   XY=             -0.0000   XZ=              0.0000   YZ=             -0.0000

 Normal termination of Gaussian 16 at Fri Oct 15 05:41:43 2021.
