 Gaussian 16, Revision A.03,
 Gaussian 16:  ES64L-G16RevA.03 25-Dec-2016

 --------------------------------------------------------
 #p PBE1PBE/Def2SVP td=(nstates=5) density=(transition=1)
 --------------------------------------------------------

 --------------------------------
 TDDFT excited states in gaussian
 --------------------------------
 Symbolic Z-matrix:
 Charge =  0 Multiplicity = 1

                         Standard orientation:
 ---------------------------------------------------------------------
 Center     Atomic      Atomic             Coordinates (Angstroms)
 Number     Number       Type             X           Y           Z
 ---------------------------------------------------------------------
      1         12           0      -21.804562    0.331948   -0.264734
      2          6           0      -18.421417    0.493563    0.355342
      3          6           0      -21.118769   -1.270150   -3.201955
      4          6           0      -24.880866   -0.867288   -0.160325
      5          6           0      -22.327428    1.950179    2.806979
      6          7           0      -19.953777   -0.699689   -1.023272
      7          6           0      -18.690635   -0.288867   -0.740944
      8          6           0      -17.676053   -0.826441   -1.706374
      9          6           0      -18.572305   -0.979876   -2.977687
     10          6           0      -19.974657   -0.906613   -2.391909
     11          6           0      -18.254574    0.072634   -4.078268
     12          6           0      -17.075922   -2.244129   -1.233145
     13          6           0      -15.536974   -2.491123   -1.589694
     14          1           0      -15.455515   -3.709033   -2.476318
     15          7           0      -22.900245   -0.739282   -1.623113
     16          6           0      -22.477810   -1.397746   -2.724717
     17          6           0      -23.580975   -2.116135   -3.350123
     18          6           0      -24.690037   -1.978223   -2.490361
     19          6           0      -24.168645   -1.165285   -1.355830
     20          6           0      -23.381377   -2.899152   -4.670471
     21          6           0      -25.969884   -2.743676   -2.679991
     22          8           0      -26.101731   -3.448201   -3.646688
     23          6           0      -27.147158   -2.741749   -1.686202
     24          7           0      -23.479214    0.602318    1.064631
     25          6           0      -24.574473    0.007536    0.890117
     26          6           0      -25.524271    0.174182    2.018132
     27          6           0      -24.719491    1.108923    3.004306
     28          6           0      -23.447741    1.240812    2.285277
     29          6           0      -26.919810    0.690864    1.529940
     30          6           0      -24.543359    0.448095    4.449282
     31          6           0      -24.178631    1.401759    5.642101
     32          7           0      -20.674607    1.156653    1.252645
     33          6           0      -21.033781    1.870720    2.381367
     34          6           0      -19.871786    2.420297    3.023001
     35          6           0      -18.786531    1.935362    2.212204
     36          6           0      -19.320629    1.108160    1.243142
     37          6           0      -19.819207    3.287740    4.239195
     38          6           0      -17.374346    1.984862    2.051135
     39          8           0      -16.441729    2.524339    2.660434
     40          6           0      -17.061375    0.902453    0.965566
     41          6           0      -16.067614    1.509737    0.032385
     42          8           0      -14.838980    1.377934    0.123468
     43          8           0      -16.714497    2.275674   -0.897771
     44          6           0      -15.703729    2.911248   -1.788983
     45          1           0      -21.015555   -1.662674   -4.216096
     46          1           0      -25.870662   -1.325982   -0.125033
     47          1           0      -22.485226    2.330782    3.819013
     48          1           0      -16.968891   -0.006573   -1.825718
     49          1           0      -18.362472   -1.941895   -3.445516
     50          1           0      -17.876692   -0.436613   -4.964349
     51          1           0      -17.430359    0.683122   -3.707935
     52          1           0      -19.153795    0.668998   -4.229508
     53          1           0      -17.646302   -3.128371   -1.517147
     54          1           0      -17.134287   -2.335263   -0.149008
     55          1           0      -15.082664   -2.748520   -0.632786
     56          1           0      -14.931209   -1.669986   -1.973119
     57          1           0      -23.608325   -3.963602   -4.612149
     58          1           0      -22.391125   -2.781393   -5.111910
     59          1           0      -24.027123   -2.430493   -5.412335
     60          1           0      -27.618881   -1.765462   -1.579553
     61          1           0      -26.889474   -3.129848   -0.700448
     62          1           0      -27.810588   -3.527010   -2.049870
     63          1           0      -25.593378   -0.830712    2.434468
     64          1           0      -25.051637    2.139183    3.129880
     65          1           0      -27.654960   -0.053545    1.834949
     66          1           0      -26.942027    0.846115    0.451131
     67          1           0      -27.299328    1.546002    2.089014
     68          1           0      -23.770818   -0.320442    4.416441
     69          1           0      -25.492138   -0.046084    4.653155
     70          1           0      -24.832627    1.495145    6.508657
     71          1           0      -24.115564    2.433801    5.299837
     72          1           0      -23.202796    1.137671    6.049695
     73          1           0      -20.770730    3.668050    4.610253
     74          1           0      -19.164585    4.072819    3.862897
     75          1           0      -19.249767    2.638599    4.904493
     76          1           0      -16.681272   -0.037966    1.366036
     77          1           0      -15.151552    3.664648   -1.228112
     78          1           0      -16.155223    3.531070   -2.563658
     79          1           0      -15.089487    2.114850   -2.209690
     80         12           0       20.943185   -0.852437    0.024428
     81          6           0       21.685478    2.362979   -1.061847
     82          6           0       17.636914    0.183485    0.182909
     83          6           0       20.260361   -3.806367    1.565300
     84          6           0       24.313867   -1.620505   -0.042389
     85          7           0       19.808004    1.077881   -0.342253
     86          6           0       20.309680    2.277121   -0.824705
     87          6           0       19.231905    3.427557   -0.918350
     88          6           0       18.023483    2.722832   -0.188450
     89          6           0       18.510609    1.232416   -0.061106
     90          6           0       17.535788    3.207023    1.180206
     91          6           0       18.997772    3.843089   -2.382298
     92          6           0       19.546480    5.177861   -2.812952
     93          1           0       18.697597    5.988104   -3.808678
     94          7           0       19.197058   -1.808131    0.604358
     95          6           0       17.976577   -1.217414    0.498736
     96          6           0       17.016283   -2.201832    1.034600
     97          6           0       17.729085   -3.305269    1.529098
     98          6           0       19.088849   -3.047586    1.252544
     99          6           0       15.562424   -1.998123    0.892534
    100          6           0       17.241182   -4.529411    2.246988
    101          8           0       17.985030   -5.505723    2.542145
    102          6           0       15.897368   -4.705499    2.700444
    103          7           0       22.073275   -2.473278    0.581762
    104          6           0       21.575256   -3.592296    1.175327
    105          6           0       22.606218   -4.602208    1.494463
    106          6           0       23.916957   -3.946144    0.929336
    107          6           0       23.418660   -2.607554    0.532228
    108          6           0       22.835758   -5.164279    2.928311
    109          6           0       24.683894   -4.797253   -0.199317
    110          6           0       24.306537   -4.741498   -1.709493
    111          7           0       22.683568    0.112980   -0.399039
    112          6           0       23.975039   -0.328978   -0.421694
    113          6           0       24.802685    0.631672   -1.009371
    114          6           0       23.912101    1.758873   -1.191183
    115          6           0       22.638227    1.369097   -0.828540
    116          6           0       26.280887    0.504334   -1.372876
    117          6           0       23.878390    3.075318   -1.760678
    118          8           0       24.679029    3.768211   -2.355002
    119          6           0       22.430466    3.606636   -1.472858
    120          6           0       22.472780    4.625837   -0.405571
    121          8           0       21.994187    4.517775    0.744874
    122          8           0       23.123871    5.761079   -0.740790
    123          6           0       23.035688    6.962037    0.158221
    124          1           0       16.609237    0.534582    0.291505
    125          1           0       20.112246   -4.753136    2.089247
    126          1           0       25.362548   -1.841894   -0.253837
    127          1           0       19.421469    4.227110   -0.201427
    128          1           0       17.197121    2.756903   -0.898359
    129          1           0       17.777726    2.471122    1.947396
    130          1           0       16.448356    3.159741    1.145777
    131          1           0       17.894622    4.190096    1.486960
    132          1           0       17.914577    3.921034   -2.482744
    133          1           0       19.323252    3.023690   -3.023193
    134          1           0       20.514460    4.996064   -3.280669
    135          1           0       19.783649    5.871772   -2.006394
    136          1           0       15.226118   -2.826298    0.270071
    137          1           0       15.186443   -1.066065    0.468653
    138          1           0       15.085167   -2.087979    1.868335
    139          1           0       15.624614   -3.755400    3.159059
    140          1           0       15.797194   -5.631455    3.265250
    141          1           0       15.203900   -4.762086    1.861358
    142          1           0       22.258379   -5.410186    0.851480
    143          1           0       24.612702   -3.770111    1.748889
    144          1           0       22.591277   -6.224354    2.996506
    145          1           0       22.190788   -4.667731    3.654054
    146          1           0       23.845064   -4.995397    3.303480
    147          1           0       24.480330   -5.821047    0.115265
    148          1           0       25.716866   -4.524269    0.016963
    149          1           0       23.589363   -3.968330   -1.983914
    150          1           0       24.061868   -5.695324   -2.177746
    151          1           0       25.254115   -4.515692   -2.196818
    152          1           0       26.884851    1.279659   -0.900331
    153          1           0       26.368898    0.671971   -2.446183
    154          1           0       26.707855   -0.483337   -1.196814
    155          1           0       22.118727    4.182775   -2.344224
    156          1           0       23.410415    7.689660   -0.561809
    157          1           0       23.636192    6.905429    1.065531
    158          1           0       21.997340    7.130240    0.445626
 ---------------------------------------------------------------------

 SCF Done:  E(RPBE1PBE) =  -4067.37082600     A.U. after   17 cycles

 Excitation energies and oscillator strengths:

 Excited State   1:      Singlet-A      1.7987 eV  689.31 nm  f=0.3493  <S**2>=0.000
     309 -> 315        0.16143
     311 -> 313        0.69480
     311 <- 313       -0.10914
 This state for optimization and/or second-order correction.
 Total Energy, E(TD-HF/TD-DFT) =  -4067.30472592
 Copying the excited state density for this state as the 1-particle RhoCI density.

 Excited State   2:      Singlet-A      1.8655 eV  664.63 nm  f=0.3683  <S**2>=0.000
     310 -> 316       -0.17022
     312 -> 314        0.69168
     312 <- 314       -0.10905

 Excited State   3:      Singlet-A      1.9083 eV  649.71 nm  f=0.0000  <S**2>=0.000
     312 -> 313        0.70711

 Excited State   4:      Singlet-A      2.0191 eV  614.06 nm  f=0.0000  <S**2>=0.000
     311 -> 314        0.70710

 Excited State   5:      Singlet-A      2.1990 eV  563.82 nm  f=0.1036  <S**2>=0.000
     309 -> 313        0.65396
     311 -> 315       -0.25088

 The electronic state is 1-A.
 Alpha  occ. eigenvalues --  -46.92603 -46.90895 -19.26322 -19.24634 -19.19467
 Alpha  occ. eigenvalues --  -19.19431 -19.18486 -19.18468 -19.18463 -19.18127
 Alpha  occ. eigenvalues --  -14.41526 -14.41485 -14.41427 -14.41362 -14.39759
 Alpha  occ. eigenvalues --  -14.39145 -14.38466 -14.38017 -10.35858 -10.35487
 Alpha  occ. eigenvalues --  -10.32628 -10.31546 -10.31505 -10.31314 -10.29785
 Alpha  occ. eigenvalues --  -10.29182 -10.29039 -10.29029 -10.28697 -10.28540
 Alpha  occ. eigenvalues --  -10.28326 -10.28212 -10.28209 -10.28128 -10.28101
 Alpha  occ. eigenvalues --  -10.27902 -10.27749 -10.27640 -10.26643 -10.26536
 Alpha  occ. eigenvalues --  -10.26381 -10.26341 -10.26244 -10.26173 -10.26166
 Alpha  occ. eigenvalues --  -10.26112 -10.25944 -10.25936 -10.25925 -10.25916
 Alpha  occ. eigenvalues --  -10.25681 -10.25591 -10.25439 -10.25414 -10.25370
 Alpha  occ. eigenvalues --  -10.25355 -10.25271 -10.25243 -10.25211 -10.25160
 Alpha  occ. eigenvalues --  -10.25104 -10.25068 -10.24913 -10.24878 -10.24795
 Alpha  occ. eigenvalues --  -10.24644 -10.24638 -10.24440 -10.24437 -10.24366
 Alpha  occ. eigenvalues --  -10.24311 -10.24272 -10.24219 -10.23935 -10.23851
 Alpha  occ. eigenvalues --  -10.23782 -10.23779 -10.23733 -10.23641 -10.23455
 Alpha  occ. eigenvalues --  -10.23416 -10.23377 -10.23120 -10.22855 -10.22573
 Alpha  occ. eigenvalues --  -10.22374  -3.14756  -3.13187  -1.87582  -1.87144
 Alpha  occ. eigenvalues --   -1.86970  -1.86040  -1.85565  -1.85415  -1.10840
 Alpha  occ. eigenvalues --   -1.09832  -1.06431  -1.04285  -1.03142  -1.02561
 Alpha  occ. eigenvalues --   -1.01696  -1.01399  -0.99835  -0.99488  -0.99091
 Alpha  occ. eigenvalues --   -0.98721  -0.98555  -0.97822  -0.97715  -0.96831
 Alpha  occ. eigenvalues --   -0.87444  -0.87092  -0.84117  -0.83227  -0.82954
 Alpha  occ. eigenvalues --   -0.82691  -0.82570  -0.82548  -0.81792  -0.81660
 Alpha  occ. eigenvalues --   -0.81285  -0.81220  -0.80818  -0.80418  -0.78584
 Alpha  occ. eigenvalues --   -0.78534  -0.78217  -0.77896  -0.76931  -0.76669
 Alpha  occ. eigenvalues --   -0.76558  -0.75891  -0.75260  -0.75193  -0.74833
 Alpha  occ. eigenvalues --   -0.74725  -0.72844  -0.72841  -0.71981  -0.71788
 Alpha  occ. eigenvalues --   -0.71125  -0.71096  -0.70471  -0.70376  -0.69807
 Alpha  occ. eigenvalues --   -0.69607  -0.67516  -0.67237  -0.66646  -0.65735
 Alpha  occ. eigenvalues --   -0.64919  -0.64453  -0.63666  -0.63082  -0.62607
 Alpha  occ. eigenvalues --   -0.62396  -0.62059  -0.61461  -0.61366  -0.59816
 Alpha  occ. eigenvalues --   -0.59635  -0.59459  -0.59457  -0.59172  -0.59076
 Alpha  occ. eigenvalues --   -0.58867  -0.57097  -0.56033  -0.54953  -0.54451
 Alpha  occ. eigenvalues --   -0.54241  -0.54135  -0.53757  -0.53677  -0.53410
 Alpha  occ. eigenvalues --   -0.53223  -0.52601  -0.52208  -0.51796  -0.51461
 Alpha  occ. eigenvalues --   -0.51310  -0.50801  -0.50730  -0.50321  -0.50074
 Alpha  occ. eigenvalues --   -0.49563  -0.49423  -0.48882  -0.48850  -0.48356
 Alpha  occ. eigenvalues --   -0.48301  -0.47791  -0.47567  -0.47216  -0.47176
 Alpha  occ. eigenvalues --   -0.47059  -0.46974  -0.46821  -0.46550  -0.46479
 Alpha  occ. eigenvalues --   -0.46466  -0.46311  -0.45948  -0.45805  -0.45619
 Alpha  occ. eigenvalues --   -0.45393  -0.45366  -0.44918  -0.44825  -0.44787
 Alpha  occ. eigenvalues --   -0.44752  -0.44531  -0.44302  -0.44160  -0.44156
 Alpha  occ. eigenvalues --   -0.43956  -0.43902  -0.43663  -0.43561  -0.43402
 Alpha  occ. eigenvalues --   -0.43337  -0.43002  -0.42988  -0.42770  -0.42560
 Alpha  occ. eigenvalues --   -0.42456  -0.42393  -0.42374  -0.42042  -0.41851
 Alpha  occ. eigenvalues --   -0.41607  -0.41453  -0.41390  -0.41139  -0.41068
 Alpha  occ. eigenvalues --   -0.41046  -0.40947  -0.40735  -0.40684  -0.40553
 Alpha  occ. eigenvalues --   -0.40387  -0.40135  -0.40085  -0.40032  -0.39880
 Alpha  occ. eigenvalues --   -0.39806  -0.39544  -0.39502  -0.39240  -0.39144
 Alpha  occ. eigenvalues --   -0.39001  -0.38941  -0.38742  -0.38730  -0.38534
 Alpha  occ. eigenvalues --   -0.38501  -0.38346  -0.38137  -0.38059  -0.37724
 Alpha  occ. eigenvalues --   -0.37626  -0.37583  -0.37481  -0.37310  -0.37071
 Alpha  occ. eigenvalues --   -0.36925  -0.36828  -0.36407  -0.36267  -0.36211
 Alpha  occ. eigenvalues --   -0.36149  -0.35956  -0.35770  -0.35596  -0.35132
 Alpha  occ. eigenvalues --   -0.35001  -0.34761  -0.34623  -0.34561  -0.33778
 Alpha  occ. eigenvalues --   -0.33652  -0.33266  -0.33182  -0.32794  -0.32697
 Alpha  occ. eigenvalues --   -0.31939  -0.31872  -0.31836  -0.31549  -0.31528
 Alpha  occ. eigenvalues --   -0.31432  -0.30480  -0.30223  -0.29489  -0.29107
 Alpha  occ. eigenvalues --   -0.28739  -0.28410  -0.27525  -0.26866  -0.26621
 Alpha  occ. eigenvalues --   -0.26308  -0.26127  -0.25592  -0.25367  -0.25162
 Alpha  occ. eigenvalues --   -0.24978  -0.24849  -0.24771  -0.21062  -0.20570
 Alpha  occ. eigenvalues --   -0.18775  -0.18665
 Alpha virt. eigenvalues --   -0.11343  -0.11042  -0.05356  -0.04838  -0.04017
 Alpha virt. eigenvalues --   -0.03471  -0.02296  -0.01988  -0.00827   0.00219
 Alpha virt. eigenvalues --    0.00655   0.00880   0.01167   0.01479   0.01968

 Mulliken charges:
               1
     1  Mg  12.000606
     2  C    6.013017
     3  C    5.992613
     4  C    5.984825
     5  C    6.003243
     6  N    7.008340
     7  C    5.965978
     8  C    6.010346
     9  C    5.986194
    10  C    6.031871
    11  C    5.996998
    12  C    5.998916
    13  C    6.002186
    14  H    0.991138
    15  N    6.995367
    16  C    6.035539
    17  C    6.022217
    18  C    6.013500
    19  C    6.029303
    20  C    5.996203
    21  C    6.009329
    22  O    8.018849
    23  C    5.998424
    24  N    7.000629
    25  C    6.029080
    26  C    5.991706
    27  C    6.010086
    28  C    5.965682
    29  C    5.997316
    30  C    6.006308
    31  C    6.001352
    32  N    6.999778
    33  C    5.973128
    34  C    5.968332
    35  C    6.000309
    36  C    5.975399
    37  C    5.999114
    38  C    5.984309
    39  O    7.971010
    40  C    6.001373
    41  C    5.995964
    42  O    7.993215
    43  O    8.000886
    44  C    6.000826
    45  H    1.010277
    46  H    1.006240
    47  H    0.991693
    48  H    1.002859
    49  H    1.005170
    50  H    1.003428
    51  H    1.015020
    52  H    0.999583
    53  H    0.989360
    54  H    1.004975
    55  H    1.002076
    56  H    1.000461
    57  H    1.017275
    58  H    1.017208
    59  H    1.016922
    60  H    1.010573
    61  H    1.010992
    62  H    1.010735
    63  H    0.998029
    64  H    0.998391
    65  H    0.999992
    66  H    0.994137
    67  H    1.008792
    68  H    0.997208
    69  H    0.988161
    70  H    0.994277
    71  H    1.001507
    72  H    1.003521
    73  H    0.982793
    74  H    0.984981
    75  H    0.982974
    76  H    0.991680
    77  H    1.000062
    78  H    0.993713
    79  H    0.994132
    80  Mg  11.999990
    81  C    6.000169
    82  C    5.999937
    83  C    5.999806
    84  C    5.999933
    85  N    6.999978
    86  C    5.999824
    87  C    6.000066
    88  C    5.999954
    89  C    6.000157
    90  C    5.999976
    91  C    6.000008
    92  C    6.000026
    93  H    0.999978
    94  N    6.999985
    95  C    6.000192
    96  C    6.000232
    97  C    5.999980
    98  C    6.000224
    99  C    5.999919
   100  C    6.000063
   101  O    8.000119
   102  C    5.999963
   103  N    6.999960
   104  C    6.000242
   105  C    5.999896
   106  C    6.000087
   107  C    5.999823
   108  C    6.000019
   109  C    6.000030
   110  C    6.000023
   111  N    6.999998
   112  C    5.999901
   113  C    5.999811
   114  C    6.000003
   115  C    5.999876
   116  C    6.000035
   117  C    5.999912
   118  O    7.999814
   119  C    5.999942
   120  C    5.999997
   121  O    7.999977
   122  O    7.999992
   123  C    6.000007
   124  H    1.000130
   125  H    1.000047
   126  H    0.999879
   127  H    1.000004
   128  H    1.000039
   129  H    0.999990
   130  H    1.000070
   131  H    1.000095
   132  H    0.999993
   133  H    0.999968
   134  H    0.999990
   135  H    1.000014
   136  H    1.000117
   137  H    1.000156
   138  H    1.000197
   139  H    1.000070
   140  H    1.000079
   141  H    1.000052
   142  H    0.999979
   143  H    0.999978
   144  H    0.999973
   145  H    1.000008
   146  H    1.000026
   147  H    0.999906
   148  H    0.999981
   149  H    1.000022
   150  H    0.999915
   151  H    0.999973
   152  H    0.999879
   153  H    0.999863
   154  H    0.999884
   155  H    0.999945
   156  H    0.999967
   157  H    0.999982
   158  H    1.000006
 Sum of Mulliken charges = 624.00000

 Dipole moment (field-independent basis, Debye):
    X=             -5.4720    Y=             -4.9282    Z=             -6.9414  Tot=             10.1200
 Quadrupole moment (field-independent basis, Debye-Ang):
   XX=            229.6907   YY=             -1.2641   ZZ=              2.0938
   XY=            107.2982   XZ=            153.1651   YZ=              0.0612

 Normal termination of Gaussian 16 at Fri Oct 15 07:05:06 2021.
