 Gaussian 16, Revision A.03,
 Gaussian 16:  ES64L-G16RevA.03 25-Dec-2016

 --------------------------------------------------------
 #p PBE1PBE/Def2SVP td=(nstates=5) density=(transition=1)
 --------------------------------------------------------

 --------------------------------
 TDDFT excited states in gaussian
 --------------------------------
 Symbolic Z-matrix:
 Charge =  0 Multiplicity = 1

                         Standard orientation:
 ---------------------------------------------------------------------
 Center     Atomic      Atomic             Coordinates (Angstroms)
 Number     Number       Type             X           Y           Z
 ---------------------------------------------------------------------
      1         12           0       -9.250600   -1.013027    0.357528
      2          6           0      -10.455144    1.933055   -0.967475
      3          6           0       -7.596741    1.008242    2.808470
      4          6           0       -7.768352   -3.681839    1.512323
      5          6           0      -10.624696   -2.808065   -2.260659
      6          7           0       -8.903964    1.293885    0.707491
      7          6           0       -9.682885    2.217079    0.169072
      8          6           0       -9.673901    3.518691    1.019554
      9          6           0       -8.344013    3.302204    1.822970
     10          6           0       -8.222557    1.769945    1.816165
     11          6           0       -7.113634    4.002623    1.144135
     12          6           0      -10.952442    3.472977    1.885610
     13          6           0      -11.260222    4.724073    2.719552
     14          1           0      -10.219859    5.815991    2.868425
     15          7           0       -7.981142   -1.397249    1.958394
     16          6           0       -7.449773   -0.415777    2.864099
     17          6           0       -6.791220   -1.166186    3.924593
     18          6           0       -6.936279   -2.552234    3.604315
     19          6           0       -7.558754   -2.612646    2.282610
     20          6           0       -6.116043   -0.523968    5.193401
     21          6           0       -6.537845   -3.773245    4.497585
     22          8           0       -6.620378   -4.871801    4.020527
     23          6           0       -6.033113   -3.565227    5.888530
     24          7           0       -9.280168   -3.007148   -0.242007
     25          6           0       -8.578209   -3.967621    0.400643
     26          6           0       -8.676455   -5.337477   -0.269681
     27          6           0       -9.704282   -5.068844   -1.393268
     28          6           0       -9.886616   -3.499794   -1.293936
     29          6           0       -7.322193   -5.933066   -0.803723
     30          6           0      -10.959908   -5.902951   -1.398450
     31          6           0      -11.783204   -6.125469   -0.106847
     32          7           0      -10.312337   -0.615684   -1.311871
     33          6           0      -10.820612   -1.424037   -2.288044
     34          6           0      -11.628402   -0.590884   -3.153596
     35          6           0      -11.567882    0.766296   -2.684210
     36          6           0      -10.720694    0.673329   -1.546170
     37          6           0      -12.379699   -1.100627   -4.343700
     38          6           0      -11.940156    2.121697   -2.914432
     39          8           0      -12.616505    2.679164   -3.806123
     40          6           0      -10.963084    2.946574   -1.911939
     41          6           0      -11.780990    4.126336   -1.383936
     42          8           0      -12.830955    4.052630   -0.869732
     43          8           0      -11.091147    5.272462   -1.659858
     44          6           0      -11.468456    6.479912   -0.954352
     45          1           0       -7.043209    1.634728    3.510369
     46          1           0       -7.258792   -4.595679    1.824947
     47          1           0      -11.068871   -3.312251   -3.120577
     48          1           0       -9.561628    4.412234    0.405663
     49          1           0       -8.583124    3.688683    2.814001
     50          1           0       -6.859230    4.903915    1.700495
     51          1           0       -7.387235    4.229517    0.113538
     52          1           0       -6.204825    3.401094    1.164396
     53          1           0      -10.817673    2.677474    2.618032
     54          1           0      -11.819711    3.135931    1.318684
     55          1           0      -11.787087    4.501889    3.647803
     56          1           0      -12.103759    5.184343    2.204721
     57          1           0       -5.102123   -0.891321    5.354642
     58          1           0       -6.790546   -0.738843    6.022085
     59          1           0       -6.132066    0.562772    5.102304
     60          1           0       -6.338503   -4.491489    6.375737
     61          1           0       -6.570762   -2.779524    6.418056
     62          1           0       -5.027393   -3.182729    6.062454
     63          1           0       -9.081390   -5.996187    0.498259
     64          1           0       -9.275669   -5.155915   -2.391647
     65          1           0       -7.581475   -6.473624   -1.713647
     66          1           0       -7.037307   -6.612419   -0.000073
     67          1           0       -6.566395   -5.151597   -0.881692
     68          1           0      -10.524465   -6.893357   -1.526745
     69          1           0      -11.699950   -5.697888   -2.172732
     70          1           0      -11.892060   -7.142869    0.266508
     71          1           0      -12.834775   -5.882774   -0.259634
     72          1           0      -11.338067   -5.549036    0.704259
     73          1           0      -12.826547   -0.220307   -4.804842
     74          1           0      -13.202335   -1.739557   -4.019751
     75          1           0      -11.807912   -1.736046   -5.019375
     76          1           0      -10.107155    3.225175   -2.526996
     77          1           0      -11.579040    7.023197   -1.892924
     78          1           0      -10.736640    6.804111   -0.214153
     79          1           0      -12.443240    6.432276   -0.468239
     80         12           0        9.803653   -0.420659   -0.158725
     81          6           0        7.809907    2.471975   -0.360253
     82          6           0       12.425165    1.621362    0.865196
     83          6           0       11.726673   -3.124351   -0.298770
     84          6           0        7.304878   -2.203058   -2.021429
     85          7           0       10.087769    1.763949    0.181279
     86          6           0        9.069099    2.726578    0.147647
     87          6           0        9.515136    3.949990    0.926808
     88          6           0       11.055922    3.795676    1.071293
     89          6           0       11.203502    2.292751    0.686225
     90          6           0       11.933190    4.806609    0.268079
     91          6           0        8.759625    4.173845    2.282494
     92          6           0        8.607991    5.702884    2.699353
     93          1           0        9.244015    6.758082    1.790485
     94          7           0       11.702010   -0.717340    0.337285
     95          6           0       12.602331    0.221783    0.810169
     96          6           0       13.839005   -0.402381    1.182707
     97          6           0       13.719193   -1.758647    0.740242
     98          6           0       12.350909   -1.909077    0.278092
     99          6           0       15.059240    0.375184    1.763758
    100          6           0       14.752767   -2.837104    0.738270
    101          8           0       14.549990   -3.938307    0.173283
    102          6           0       16.204159   -2.808454    1.301457
    103          7           0        9.683733   -2.304341   -1.262980
    104          6           0       10.573372   -3.293419   -1.055249
    105          6           0       10.017943   -4.641365   -1.579847
    106          6           0        8.623918   -4.355322   -2.149619
    107          6           0        8.505298   -2.823263   -1.732700
    108          6           0       11.004280   -5.347703   -2.459158
    109          6           0        7.459705   -5.228670   -1.634637
    110          6           0        7.219930   -5.177864   -0.105550
    111          7           0        7.932546    0.001739   -1.103220
    112          6           0        7.022177   -0.840069   -1.645780
    113          6           0        5.782756   -0.078526   -1.792705
    114          6           0        5.984340    1.236560   -1.287867
    115          6           0        7.349828    1.263381   -0.913524
    116          6           0        4.445347   -0.637933   -2.270514
    117          6           0        5.379262    2.508234   -1.050880
    118          8           0        4.230436    2.934490   -1.133764
    119          6           0        6.626728    3.439924   -0.461633
    120          6           0        6.751383    4.695708   -1.303717
    121          8           0        7.313283    4.729996   -2.380890
    122          8           0        6.238548    5.785475   -0.637475
    123          6           0        5.912515    6.988156   -1.396958
    124          1           0       13.132321    2.331876    1.297844
    125          1           0       12.373222   -4.001315   -0.229512
    126          1           0        6.543865   -2.847459   -2.465803
    127          1           0        9.310362    4.844893    0.339352
    128          1           0       11.286403    3.903755    2.130758
    129          1           0       12.564054    4.145575   -0.325233
    130          1           0       12.604926    5.347942    0.935370
    131          1           0       11.458113    5.516787   -0.408674
    132          1           0        9.308665    3.744237    3.119830
    133          1           0        7.795079    3.670636    2.228801
    134          1           0        9.161367    5.840814    3.628381
    135          1           0        7.542753    5.900809    2.815977
    136          1           0       15.960906   -0.059326    1.330408
    137          1           0       15.146317    0.271023    2.844745
    138          1           0       15.149290    1.455479    1.650933
    139          1           0       16.201635   -2.533014    2.356458
    140          1           0       16.863446   -2.160545    0.723890
    141          1           0       16.638829   -3.792796    1.471255
    142          1           0       10.020671   -5.308658   -0.718936
    143          1           0        8.771596   -4.312108   -3.229281
    144          1           0       11.518609   -6.162387   -1.949054
    145          1           0       11.712532   -4.630081   -2.873594
    146          1           0       10.568629   -5.784683   -3.358379
    147          1           0        7.777036   -6.239214   -1.892747
    148          1           0        6.541145   -4.983615   -2.168656
    149          1           0        6.200495   -4.810453    0.010436
    150          1           0        7.954103   -4.484071    0.304110
    151          1           0        7.414016   -6.117746    0.411454
    152          1           0        3.606219   -0.289100   -1.669288
    153          1           0        4.393233   -1.717821   -2.134848
    154          1           0        4.356485   -0.434411   -3.338005
    155          1           0        6.285150    3.744923    0.527838
    156          1           0        6.709258    7.115851   -2.130232
    157          1           0        5.861740    7.902983   -0.806421
    158          1           0        4.918305    6.811078   -1.807263
 ---------------------------------------------------------------------

 SCF Done:  E(RPBE1PBE) =  -4067.37859157     A.U. after   16 cycles

 Excitation energies and oscillator strengths:

 Excited State   1:      Singlet-A      1.7035 eV  727.83 nm  f=0.0000  <S**2>=0.000
     312 -> 313        0.70707
 This state for optimization and/or second-order correction.
 Total Energy, E(TD-HF/TD-DFT) =  -4067.31598953
 Copying the excited state density for this state as the 1-particle RhoCI density.

 Excited State   2:      Singlet-A      1.8180 eV  681.97 nm  f=0.4145  <S**2>=0.000
     309 -> 316       -0.16247
     311 -> 313        0.69624
     311 <- 313       -0.11873

 Excited State   3:      Singlet-A      1.8857 eV  657.50 nm  f=0.3443  <S**2>=0.000
     310 -> 315       -0.18992
     312 -> 314        0.68761
     312 <- 314       -0.10009

 Excited State   4:      Singlet-A      2.0384 eV  608.24 nm  f=0.0000  <S**2>=0.000
     311 -> 314        0.70708

 Excited State   5:      Singlet-A      2.1900 eV  566.14 nm  f=0.1253  <S**2>=0.000
     309 -> 313        0.66415
     311 -> 316        0.21989

 The electronic state is 1-A.
 Alpha  occ. eigenvalues --  -46.92370 -46.91566 -19.24983 -19.24924 -19.20302
 Alpha  occ. eigenvalues --  -19.19740 -19.19514 -19.19280 -19.19102 -19.18565
 Alpha  occ. eigenvalues --  -14.41975 -14.41159 -14.41123 -14.41073 -14.39928
 Alpha  occ. eigenvalues --  -14.39182 -14.38919 -14.38827 -10.36168 -10.35771
 Alpha  occ. eigenvalues --  -10.32867 -10.32591 -10.32390 -10.32059 -10.29136
 Alpha  occ. eigenvalues --  -10.28686 -10.28681 -10.28586 -10.28568 -10.28430
 Alpha  occ. eigenvalues --  -10.28282 -10.28278 -10.28262 -10.28200 -10.28146
 Alpha  occ. eigenvalues --  -10.28060 -10.28057 -10.27774 -10.27129 -10.27022
 Alpha  occ. eigenvalues --  -10.26974 -10.26878 -10.26838 -10.26605 -10.26191
 Alpha  occ. eigenvalues --  -10.26170 -10.26073 -10.25983 -10.25970 -10.25949
 Alpha  occ. eigenvalues --  -10.25926 -10.25766 -10.25607 -10.25557 -10.25506
 Alpha  occ. eigenvalues --  -10.25389 -10.25377 -10.25328 -10.25223 -10.25178
 Alpha  occ. eigenvalues --  -10.25170 -10.25167 -10.25151 -10.25025 -10.25007
 Alpha  occ. eigenvalues --  -10.24727 -10.24453 -10.24439 -10.24236 -10.24230
 Alpha  occ. eigenvalues --  -10.24095 -10.24014 -10.23902 -10.23747 -10.23728
 Alpha  occ. eigenvalues --  -10.23605 -10.23548 -10.23483 -10.23287 -10.23203
 Alpha  occ. eigenvalues --  -10.23189 -10.23106 -10.23067 -10.22627 -10.22549
 Alpha  occ. eigenvalues --  -10.22416  -3.14519  -3.13781  -1.87328  -1.86893
 Alpha  occ. eigenvalues --   -1.86755  -1.86623  -1.86172  -1.85996  -1.12247
 Alpha  occ. eigenvalues --   -1.10270  -1.06258  -1.04515  -1.04332  -1.03078
 Alpha  occ. eigenvalues --   -1.02578  -1.02333  -0.99786  -0.98933  -0.98556
 Alpha  occ. eigenvalues --   -0.98110  -0.97931  -0.97587  -0.96926  -0.96724
 Alpha  occ. eigenvalues --   -0.87239  -0.86640  -0.83585  -0.83558  -0.82960
 Alpha  occ. eigenvalues --   -0.82842  -0.82661  -0.82454  -0.81767  -0.81554
 Alpha  occ. eigenvalues --   -0.81043  -0.80613  -0.79859  -0.79777  -0.78259
 Alpha  occ. eigenvalues --   -0.78107  -0.77920  -0.77714  -0.76622  -0.76507
 Alpha  occ. eigenvalues --   -0.75885  -0.75639  -0.75389  -0.75024  -0.74515
 Alpha  occ. eigenvalues --   -0.74169  -0.72907  -0.72244  -0.71587  -0.71329
 Alpha  occ. eigenvalues --   -0.71113  -0.70970  -0.70203  -0.70077  -0.69808
 Alpha  occ. eigenvalues --   -0.69384  -0.67080  -0.67003  -0.66356  -0.65549
 Alpha  occ. eigenvalues --   -0.64557  -0.64293  -0.63589  -0.63197  -0.62899
 Alpha  occ. eigenvalues --   -0.62403  -0.61965  -0.60597  -0.59811  -0.59564
 Alpha  occ. eigenvalues --   -0.59353  -0.59334  -0.58796  -0.58727  -0.58656
 Alpha  occ. eigenvalues --   -0.58536  -0.56792  -0.56297  -0.55450  -0.54996
 Alpha  occ. eigenvalues --   -0.54114  -0.54103  -0.53617  -0.53428  -0.53279
 Alpha  occ. eigenvalues --   -0.52793  -0.52640  -0.52283  -0.52085  -0.51511
 Alpha  occ. eigenvalues --   -0.50678  -0.50534  -0.50489  -0.50335  -0.50153
 Alpha  occ. eigenvalues --   -0.49769  -0.49415  -0.49382  -0.48699  -0.48545
 Alpha  occ. eigenvalues --   -0.48187  -0.48067  -0.47965  -0.47751  -0.47572
 Alpha  occ. eigenvalues --   -0.47353  -0.47204  -0.46898  -0.46750  -0.46661
 Alpha  occ. eigenvalues --   -0.46554  -0.46520  -0.46165  -0.45958  -0.45698
 Alpha  occ. eigenvalues --   -0.45377  -0.45273  -0.45164  -0.44690  -0.44541
 Alpha  occ. eigenvalues --   -0.44511  -0.44193  -0.44190  -0.44028  -0.43921
 Alpha  occ. eigenvalues --   -0.43890  -0.43855  -0.43809  -0.43753  -0.43484
 Alpha  occ. eigenvalues --   -0.43259  -0.43255  -0.42881  -0.42825  -0.42706
 Alpha  occ. eigenvalues --   -0.42529  -0.42519  -0.42383  -0.42213  -0.42132
 Alpha  occ. eigenvalues --   -0.41459  -0.41449  -0.41327  -0.41144  -0.41125
 Alpha  occ. eigenvalues --   -0.41009  -0.40634  -0.40596  -0.40554  -0.40227
 Alpha  occ. eigenvalues --   -0.40144  -0.40011  -0.39840  -0.39595  -0.39491
 Alpha  occ. eigenvalues --   -0.39439  -0.39321  -0.39043  -0.38909  -0.38847
 Alpha  occ. eigenvalues --   -0.38591  -0.38264  -0.38101  -0.38079  -0.38043
 Alpha  occ. eigenvalues --   -0.37715  -0.37694  -0.37630  -0.37502  -0.37499
 Alpha  occ. eigenvalues --   -0.37332  -0.37130  -0.36851  -0.36840  -0.36799
 Alpha  occ. eigenvalues --   -0.36748  -0.36597  -0.36543  -0.36337  -0.36305
 Alpha  occ. eigenvalues --   -0.36204  -0.35748  -0.35620  -0.35491  -0.35062
 Alpha  occ. eigenvalues --   -0.34991  -0.34636  -0.34361  -0.34338  -0.34188
 Alpha  occ. eigenvalues --   -0.33698  -0.33247  -0.32867  -0.32706  -0.32687
 Alpha  occ. eigenvalues --   -0.32441  -0.32074  -0.31964  -0.31417  -0.31193
 Alpha  occ. eigenvalues --   -0.30937  -0.30789  -0.30038  -0.29252  -0.29037
 Alpha  occ. eigenvalues --   -0.28958  -0.28735  -0.28478  -0.27120  -0.26868
 Alpha  occ. eigenvalues --   -0.26337  -0.25957  -0.25873  -0.25532  -0.25313
 Alpha  occ. eigenvalues --   -0.25146  -0.25002  -0.24898  -0.21110  -0.20657
 Alpha  occ. eigenvalues --   -0.19037  -0.18638
 Alpha virt. eigenvalues --   -0.11681  -0.10849  -0.05254  -0.05072  -0.04327
 Alpha virt. eigenvalues --   -0.03918  -0.02367  -0.01721  -0.01325   0.00365
 Alpha virt. eigenvalues --    0.00535   0.01013   0.01384   0.01571   0.01769

 Mulliken charges:
               1
     1  Mg  12.000000
     2  C    6.000000
     3  C    6.000000
     4  C    6.000000
     5  C    6.000000
     6  N    7.000000
     7  C    6.000000
     8  C    6.000000
     9  C    6.000000
    10  C    6.000000
    11  C    6.000000
    12  C    6.000000
    13  C    6.000000
    14  H    1.000000
    15  N    7.000000
    16  C    6.000000
    17  C    6.000000
    18  C    6.000000
    19  C    6.000000
    20  C    6.000000
    21  C    6.000000
    22  O    8.000000
    23  C    6.000000
    24  N    7.000000
    25  C    6.000000
    26  C    6.000000
    27  C    6.000000
    28  C    6.000000
    29  C    6.000000
    30  C    6.000000
    31  C    6.000000
    32  N    7.000000
    33  C    6.000000
    34  C    6.000000
    35  C    6.000000
    36  C    6.000000
    37  C    6.000000
    38  C    6.000000
    39  O    8.000000
    40  C    6.000000
    41  C    6.000000
    42  O    8.000000
    43  O    8.000000
    44  C    6.000000
    45  H    1.000000
    46  H    1.000000
    47  H    1.000000
    48  H    1.000000
    49  H    1.000000
    50  H    1.000000
    51  H    1.000000
    52  H    1.000000
    53  H    1.000000
    54  H    1.000000
    55  H    1.000000
    56  H    1.000000
    57  H    1.000000
    58  H    1.000000
    59  H    1.000000
    60  H    1.000000
    61  H    1.000000
    62  H    1.000000
    63  H    1.000000
    64  H    1.000000
    65  H    1.000000
    66  H    1.000000
    67  H    1.000000
    68  H    1.000000
    69  H    1.000000
    70  H    1.000000
    71  H    1.000000
    72  H    1.000000
    73  H    1.000000
    74  H    1.000000
    75  H    1.000000
    76  H    1.000000
    77  H    1.000000
    78  H    1.000000
    79  H    1.000000
    80  Mg  12.000000
    81  C    6.000000
    82  C    6.000000
    83  C    6.000000
    84  C    6.000000
    85  N    7.000000
    86  C    6.000000
    87  C    6.000000
    88  C    6.000000
    89  C    6.000000
    90  C    6.000000
    91  C    6.000000
    92  C    6.000000
    93  H    1.000000
    94  N    7.000000
    95  C    6.000000
    96  C    6.000000
    97  C    6.000000
    98  C    6.000000
    99  C    6.000000
   100  C    6.000000
   101  O    8.000000
   102  C    6.000000
   103  N    7.000000
   104  C    6.000000
   105  C    6.000000
   106  C    6.000000
   107  C    6.000000
   108  C    6.000000
   109  C    6.000000
   110  C    6.000000
   111  N    7.000000
   112  C    6.000000
   113  C    6.000000
   114  C    6.000000
   115  C    6.000000
   116  C    6.000000
   117  C    6.000000
   118  O    8.000000
   119  C    6.000000
   120  C    6.000000
   121  O    8.000000
   122  O    8.000000
   123  C    6.000000
   124  H    1.000000
   125  H    1.000000
   126  H    1.000000
   127  H    1.000000
   128  H    1.000000
   129  H    1.000000
   130  H    1.000000
   131  H    1.000000
   132  H    1.000000
   133  H    1.000000
   134  H    1.000000
   135  H    1.000000
   136  H    1.000000
   137  H    1.000000
   138  H    1.000000
   139  H    1.000000
   140  H    1.000000
   141  H    1.000000
   142  H    1.000000
   143  H    1.000000
   144  H    1.000000
   145  H    1.000000
   146  H    1.000000
   147  H    1.000000
   148  H    1.000000
   149  H    1.000000
   150  H    1.000000
   151  H    1.000000
   152  H    1.000000
   153  H    1.000000
   154  H    1.000000
   155  H    1.000000
   156  H    1.000000
   157  H    1.000000
   158  H    1.000000
 Sum of Mulliken charges = 624.00000

 Dipole moment (field-independent basis, Debye):
    X=              0.0000    Y=             -0.0000    Z=              0.0000  Tot=              0.0000
 Quadrupole moment (field-independent basis, Debye-Ang):
   XX=             -0.0000   YY=              0.0000   ZZ=              0.0000
   XY=              0.0000   XZ=             -0.0000   YZ=             -0.0000

 Normal termination of Gaussian 16 at Thu Oct 14 06:52:04 2021.
