 Gaussian 16, Revision A.03,
 Gaussian 16:  ES64L-G16RevA.03 25-Dec-2016

 --------------------------------------------------------
 #p PBE1PBE/Def2SVP td=(nstates=5) density=(transition=1)
 --------------------------------------------------------

 --------------------------------
 TDDFT excited states in gaussian
 --------------------------------
 Symbolic Z-matrix:
 Charge =  0 Multiplicity = 1

                         Standard orientation:
 ---------------------------------------------------------------------
 Center     Atomic      Atomic             Coordinates (Angstroms)
 Number     Number       Type             X           Y           Z
 ---------------------------------------------------------------------
      1         12           0       28.700855    0.427940    0.554288
      2          6           0       28.389822   -2.247754   -1.802857
      3          6           0       28.949495    2.546704   -2.108808
      4          6           0       29.430117    2.738958    2.599769
      5          6           0       29.557128   -1.967123    2.936752
      6          7           0       28.658777    0.074598   -1.630666
      7          6           0       28.473887   -0.990231   -2.404699
      8          6           0       28.301894   -0.635920   -3.912099
      9          6           0       29.054104    0.769759   -3.927701
     10          6           0       28.845805    1.172810   -2.478534
     11          6           0       30.551393    0.656601   -4.195700
     12          6           0       26.797559   -0.485232   -4.319530
     13          6           0       26.527878   -0.463672   -5.826899
     14          1           0       25.312893   -1.086676   -6.329915
     15          7           0       28.647008    2.391278    0.341557
     16          6           0       28.745855    3.083130   -0.818984
     17          6           0       28.650372    4.512163   -0.450977
     18          6           0       28.678643    4.602134    1.035361
     19          6           0       28.949598    3.232131    1.388989
     20          6           0       28.498229    5.612286   -1.456130
     21          6           0       28.501611    5.743839    1.985782
     22          8           0       28.794154    5.647503    3.226633
     23          6           0       28.054555    7.021420    1.401857
     24          7           0       29.607001    0.426101    2.434855
     25          6           0       29.750879    1.558097    3.132614
     26          6           0       30.159594    1.278548    4.548504
     27          6           0       30.029467   -0.301066    4.742510
     28          6           0       29.623832   -0.683649    3.297740
     29          6           0       31.575700    1.725485    4.936968
     30          6           0       29.142628   -0.795100    5.912923
     31          6           0       27.695358   -0.450785    5.640980
     32          7           0       28.768811   -1.739707    0.642225
     33          6           0       29.177524   -2.527077    1.728354
     34          6           0       29.155180   -3.930612    1.277066
     35          6           0       28.748307   -3.860425   -0.053863
     36          6           0       28.555618   -2.497394   -0.418978
     37          6           0       29.540794   -5.060912    2.050473
     38          6           0       28.455287   -4.618140   -1.259626
     39          8           0       28.356515   -5.816281   -1.528317
     40          6           0       28.329262   -3.596893   -2.474944
     41          6           0       27.079858   -3.947936   -3.235909
     42          8           0       25.953306   -3.796817   -2.720731
     43          8           0       27.391647   -4.177934   -4.520600
     44          6           0       26.192089   -4.502961   -5.337650
     45          1           0       29.273139    3.271930   -2.857970
     46          1           0       29.588692    3.496919    3.369696
     47          1           0       29.730391   -2.775299    3.649693
     48          1           0       28.789704   -1.326846   -4.599911
     49          1           0       28.568875    1.483605   -4.593057
     50          1           0       30.877208   -0.383448   -4.203704
     51          1           0       31.034343    1.200594   -3.383713
     52          1           0       30.821854    1.182916   -5.111463
     53          1           0       26.451880    0.514037   -4.054902
     54          1           0       26.192362   -1.265180   -3.856126
     55          1           0       27.395099   -0.806619   -6.391898
     56          1           0       26.396348    0.573462   -6.135531
     57          1           0       28.676812    5.256031   -2.469903
     58          1           0       29.302524    6.324489   -1.272866
     59          1           0       27.535026    6.115603   -1.371025
     60          1           0       28.774546    7.344892    0.649841
     61          1           0       27.896939    7.697113    2.241766
     62          1           0       27.113554    6.858964    0.875478
     63          1           0       29.497761    1.780677    5.252968
     64          1           0       30.995937   -0.771836    4.924134
     65          1           0       31.601825    2.407504    5.787187
     66          1           0       32.039407    2.175985    4.059861
     67          1           0       32.267976    0.912602    5.154663
     68          1           0       29.423024   -0.294032    6.838804
     69          1           0       29.213380   -1.869538    6.082712
     70          1           0       27.622154    0.580923    5.983108
     71          1           0       27.035161   -1.100667    6.216308
     72          1           0       27.478924   -0.455898    4.572515
     73          1           0       28.789378   -5.828287    1.864791
     74          1           0       29.601086   -4.813725    3.110127
     75          1           0       30.516407   -5.279233    1.616456
     76          1           0       29.226038   -3.719290   -3.081521
     77          1           0       26.379950   -5.464682   -5.815180
     78          1           0       26.015126   -3.643105   -5.983976
     79          1           0       25.277724   -4.722563   -4.785336
     80         12           0      -29.200158   -0.542355   -0.462647
     81          6           0      -26.394260    1.779174   -0.413790
     82          6           0      -27.032021   -2.953609    0.666341
     83          6           0      -31.806909   -2.146327    0.884400
     84          6           0      -31.167227    1.931194   -1.711060
     85          7           0      -26.978434   -0.495424    0.250620
     86          6           0      -26.012749    0.563903    0.098279
     87          6           0      -24.611823    0.020236    0.392574
     88          6           0      -24.782429   -1.527287    0.362407
     89          6           0      -26.358957   -1.740433    0.417393
     90          6           0      -24.171107   -2.215295   -0.948554
     91          6           0      -23.881552    0.602488    1.567331
     92          6           0      -24.715752    1.378253    2.613940
     93          1           0      -24.202426    1.998875    3.926105
     94          7           0      -29.412041   -2.404840    0.521039
     95          6           0      -28.383273   -3.234297    0.909393
     96          6           0      -28.982510   -4.481324    1.479090
     97          6           0      -30.330475   -4.166587    1.631077
     98          6           0      -30.602498   -2.848327    1.062948
     99          6           0      -28.125731   -5.635467    1.862557
    100          6           0      -31.377161   -5.088786    2.321491
    101          8           0      -30.976299   -6.116657    2.838091
    102          6           0      -32.812817   -4.736105    2.528702
    103          7           0      -31.181178   -0.023453   -0.316637
    104          6           0      -32.075146   -0.971186    0.180375
    105          6           0      -33.521655   -0.530467   -0.043820
    106          6           0      -33.371327    0.602353   -1.122887
    107          6           0      -31.857778    0.826126   -1.090823
    108          6           0      -34.563083   -1.597830   -0.467912
    109          6           0      -34.208450    1.899085   -0.880445
    110          6           0      -35.468701    2.106554   -1.839112
    111          7           0      -28.883996    1.441518   -1.055164
    112          6           0      -29.800510    2.307660   -1.633411
    113          6           0      -29.108673    3.486860   -2.092773
    114          6           0      -27.826338    3.315687   -1.553804
    115          6           0      -27.756797    2.033631   -0.954828
    116          6           0      -29.800279    4.656054   -2.815051
    117          6           0      -26.516997    3.882641   -1.447041
    118          8           0      -26.161436    4.968722   -1.947456
    119          6           0      -25.455627    2.869983   -0.826420
    120          6           0      -24.799971    3.640792    0.248800
    121          8           0      -25.359102    4.301483    1.130484
    122          8           0      -23.473174    3.379178    0.155828
    123          6           0      -22.572908    4.199085    1.025862
    124          1           0      -26.344939   -3.714218    1.041709
    125          1           0      -32.650025   -2.688945    1.317641
    126          1           0      -31.800567    2.657807   -2.223533
    127          1           0      -24.142183    0.342932   -0.536656
    128          1           0      -24.450591   -2.010115    1.281741
    129          1           0      -23.336294   -2.794898   -0.556536
    130          1           0      -23.892026   -1.443532   -1.666309
    131          1           0      -24.949582   -2.884875   -1.315984
    132          1           0      -23.060887    1.186427    1.151046
    133          1           0      -23.445897   -0.298416    2.000692
    134          1           0      -25.518776    0.692907    2.886982
    135          1           0      -25.161911    2.255931    2.145833
    136          1           0      -28.161351   -5.683703    2.950516
    137          1           0      -27.119304   -5.449727    1.488666
    138          1           0      -28.489333   -6.535697    1.365857
    139          1           0      -33.047923   -3.897789    3.183381
    140          1           0      -33.368374   -5.520755    3.041460
    141          1           0      -33.144796   -4.649218    1.494223
    142          1           0      -33.708437   -0.170484    0.968586
    143          1           0      -33.622294    0.114228   -2.064875
    144          1           0      -35.183354   -1.952163    0.356007
    145          1           0      -34.046583   -2.485782   -0.830896
    146          1           0      -35.146008   -1.176234   -1.287515
    147          1           0      -33.628381    2.821380   -0.922567
    148          1           0      -34.509731    1.822656    0.164374
    149          1           0      -36.233082    2.433623   -1.134683
    150          1           0      -35.793442    1.213278   -2.372900
    151          1           0      -35.159835    2.807305   -2.613955
    152          1           0      -29.169286    5.215396   -3.506118
    153          1           0      -30.048965    5.296170   -1.969277
    154          1           0      -30.582276    4.281004   -3.474928
    155          1           0      -24.766343    2.548773   -1.608708
    156          1           0      -21.539461    3.890245    0.864907
    157          1           0      -22.800446    4.048986    2.081398
    158          1           0      -22.778210    5.208535    0.672326
 ---------------------------------------------------------------------

 SCF Done:  E(RPBE1PBE) =  -4067.34606947     A.U. after   16 cycles

 Excitation energies and oscillator strengths:

 Excited State   1:      Singlet-A      1.8047 eV  686.99 nm  f=0.3424  <S**2>=0.000
     309 -> 316        0.15296
     312 -> 314        0.69766
     312 <- 314       -0.11784
 This state for optimization and/or second-order correction.
 Total Energy, E(TD-HF/TD-DFT) =  -4067.27974627
 Copying the excited state density for this state as the 1-particle RhoCI density.

 Excited State   2:      Singlet-A      1.8414 eV  673.31 nm  f=0.3782  <S**2>=0.000
     310 -> 315       -0.16195
     311 -> 313        0.69324
     311 <- 313       -0.11106

 Excited State   3:      Singlet-A      1.9084 eV  649.67 nm  f=0.0000  <S**2>=0.000
     312 -> 313        0.70711

 Excited State   4:      Singlet-A      2.0212 eV  613.43 nm  f=0.0000  <S**2>=0.000
     311 -> 314        0.70711

 Excited State   5:      Singlet-A      2.1929 eV  565.38 nm  f=0.0924  <S**2>=0.000
     310 -> 313        0.65168
     311 -> 315        0.24157

 The electronic state is 1-A.
 Alpha  occ. eigenvalues --  -46.92679 -46.91180 -19.26914 -19.26063 -19.19738
 Alpha  occ. eigenvalues --  -19.19294 -19.19079 -19.19000 -19.18405 -19.17599
 Alpha  occ. eigenvalues --  -14.41963 -14.41935 -14.41147 -14.40949 -14.39257
 Alpha  occ. eigenvalues --  -14.39040 -14.38495 -14.38245 -10.36223 -10.36097
 Alpha  occ. eigenvalues --  -10.32487 -10.32482 -10.31562 -10.30957 -10.29459
 Alpha  occ. eigenvalues --  -10.29367 -10.29258 -10.29135 -10.29010 -10.28897
 Alpha  occ. eigenvalues --  -10.28625 -10.28388 -10.28280 -10.28208 -10.28171
 Alpha  occ. eigenvalues --  -10.28126 -10.27992 -10.27534 -10.27248 -10.27104
 Alpha  occ. eigenvalues --  -10.27026 -10.26557 -10.26479 -10.26437 -10.26385
 Alpha  occ. eigenvalues --  -10.26213 -10.26209 -10.26052 -10.26008 -10.25890
 Alpha  occ. eigenvalues --  -10.25825 -10.25610 -10.25565 -10.25462 -10.25443
 Alpha  occ. eigenvalues --  -10.25365 -10.25339 -10.25262 -10.25244 -10.25201
 Alpha  occ. eigenvalues --  -10.25102 -10.25071 -10.24947 -10.24893 -10.24841
 Alpha  occ. eigenvalues --  -10.24833 -10.24766 -10.24739 -10.24378 -10.24324
 Alpha  occ. eigenvalues --  -10.24271 -10.23980 -10.23901 -10.23784 -10.23677
 Alpha  occ. eigenvalues --  -10.23641 -10.23603 -10.23603 -10.23533 -10.23504
 Alpha  occ. eigenvalues --  -10.23265 -10.22903 -10.22584 -10.22391 -10.22081
 Alpha  occ. eigenvalues --  -10.22017  -3.14748  -3.13497  -1.87559  -1.87145
 Alpha  occ. eigenvalues --   -1.86951  -1.86320  -1.85885  -1.85731  -1.11412
 Alpha  occ. eigenvalues --   -1.10893  -1.05237  -1.03357  -1.02369  -1.01827
 Alpha  occ. eigenvalues --   -1.01616  -1.01440  -0.99679  -0.99161  -0.98774
 Alpha  occ. eigenvalues --   -0.98357  -0.97889  -0.97266  -0.97078  -0.94864
 Alpha  occ. eigenvalues --   -0.86399  -0.86320  -0.83822  -0.83647  -0.83443
 Alpha  occ. eigenvalues --   -0.83220  -0.82883  -0.82581  -0.82193  -0.81964
 Alpha  occ. eigenvalues --   -0.81428  -0.81089  -0.80899  -0.80507  -0.79223
 Alpha  occ. eigenvalues --   -0.78594  -0.78214  -0.78073  -0.77146  -0.76862
 Alpha  occ. eigenvalues --   -0.76762  -0.76589  -0.75883  -0.75341  -0.74932
 Alpha  occ. eigenvalues --   -0.74526  -0.73093  -0.72281  -0.72077  -0.71534
 Alpha  occ. eigenvalues --   -0.71220  -0.70844  -0.70349  -0.70231  -0.69533
 Alpha  occ. eigenvalues --   -0.69215  -0.67539  -0.67231  -0.66081  -0.66077
 Alpha  occ. eigenvalues --   -0.64209  -0.64025  -0.63326  -0.63221  -0.62156
 Alpha  occ. eigenvalues --   -0.62108  -0.61543  -0.61318  -0.60561  -0.59796
 Alpha  occ. eigenvalues --   -0.59696  -0.59408  -0.59258  -0.59086  -0.58757
 Alpha  occ. eigenvalues --   -0.58129  -0.56864  -0.56756  -0.54934  -0.54295
 Alpha  occ. eigenvalues --   -0.54104  -0.53757  -0.53680  -0.53612  -0.53108
 Alpha  occ. eigenvalues --   -0.52515  -0.52094  -0.52037  -0.51802  -0.51792
 Alpha  occ. eigenvalues --   -0.51357  -0.50862  -0.50723  -0.50363  -0.50043
 Alpha  occ. eigenvalues --   -0.49824  -0.49735  -0.49178  -0.49069  -0.48784
 Alpha  occ. eigenvalues --   -0.48449  -0.48308  -0.47942  -0.47767  -0.47742
 Alpha  occ. eigenvalues --   -0.47544  -0.47450  -0.47135  -0.47092  -0.46969
 Alpha  occ. eigenvalues --   -0.46967  -0.46478  -0.46406  -0.46174  -0.45918
 Alpha  occ. eigenvalues --   -0.45848  -0.45802  -0.45501  -0.45323  -0.45072
 Alpha  occ. eigenvalues --   -0.44623  -0.44592  -0.44472  -0.44333  -0.44118
 Alpha  occ. eigenvalues --   -0.43983  -0.43852  -0.43697  -0.43638  -0.43351
 Alpha  occ. eigenvalues --   -0.43209  -0.43105  -0.43000  -0.42991  -0.42805
 Alpha  occ. eigenvalues --   -0.42463  -0.42326  -0.42273  -0.41939  -0.41865
 Alpha  occ. eigenvalues --   -0.41559  -0.41554  -0.41366  -0.41236  -0.41234
 Alpha  occ. eigenvalues --   -0.41060  -0.40997  -0.40864  -0.40544  -0.40487
 Alpha  occ. eigenvalues --   -0.40220  -0.39935  -0.39930  -0.39704  -0.39305
 Alpha  occ. eigenvalues --   -0.39292  -0.39212  -0.38889  -0.38828  -0.38814
 Alpha  occ. eigenvalues --   -0.38733  -0.38727  -0.38343  -0.38271  -0.38228
 Alpha  occ. eigenvalues --   -0.38226  -0.37849  -0.37661  -0.37565  -0.37480
 Alpha  occ. eigenvalues --   -0.37435  -0.37365  -0.37069  -0.37036  -0.36848
 Alpha  occ. eigenvalues --   -0.36788  -0.36662  -0.36553  -0.36358  -0.35956
 Alpha  occ. eigenvalues --   -0.35952  -0.35767  -0.35746  -0.35582  -0.35471
 Alpha  occ. eigenvalues --   -0.35000  -0.34898  -0.34325  -0.34324  -0.34034
 Alpha  occ. eigenvalues --   -0.33407  -0.33381  -0.32715  -0.32410  -0.32371
 Alpha  occ. eigenvalues --   -0.32245  -0.32152  -0.31696  -0.31586  -0.31386
 Alpha  occ. eigenvalues --   -0.31246  -0.30863  -0.29499  -0.29270  -0.29045
 Alpha  occ. eigenvalues --   -0.28908  -0.28404  -0.28300  -0.27092  -0.26710
 Alpha  occ. eigenvalues --   -0.25992  -0.25831  -0.25399  -0.25274  -0.25105
 Alpha  occ. eigenvalues --   -0.24943  -0.24818  -0.24292  -0.21263  -0.20967
 Alpha  occ. eigenvalues --   -0.18749  -0.18454
 Alpha virt. eigenvalues --   -0.11214  -0.11094  -0.05334  -0.05298  -0.04144
 Alpha virt. eigenvalues --   -0.03122  -0.02165  -0.02009  -0.01397   0.00164
 Alpha virt. eigenvalues --    0.00363   0.00433   0.00460   0.01024   0.02154

 Mulliken charges:
               1
     1  Mg  11.999998
     2  C    6.000019
     3  C    5.999978
     4  C    6.000006
     5  C    5.999997
     6  N    7.000016
     7  C    6.000052
     8  C    5.999986
     9  C    6.000017
    10  C    5.999932
    11  C    6.000008
    12  C    5.999985
    13  C    6.000003
    14  H    0.999997
    15  N    6.999969
    16  C    5.999895
    17  C    5.999892
    18  C    5.999933
    19  C    5.999949
    20  C    6.000036
    21  C    5.999914
    22  O    7.999872
    23  C    6.000028
    24  N    6.999968
    25  C    5.999957
    26  C    6.000036
    27  C    5.999953
    28  C    6.000093
    29  C    5.999995
    30  C    5.999978
    31  C    5.999998
    32  N    7.000023
    33  C    6.000143
    34  C    6.000101
    35  C    5.999997
    36  C    6.000077
    37  C    5.999987
    38  C    6.000104
    39  O    8.000131
    40  C    6.000001
    41  C    6.000014
    42  O    8.000022
    43  O    8.000007
    44  C    5.999990
    45  H    0.999962
    46  H    0.999981
    47  H    1.000040
    48  H    0.999995
    49  H    0.999992
    50  H    0.999938
    51  H    1.000020
    52  H    0.999975
    53  H    1.000049
    54  H    0.999981
    55  H    1.000003
    56  H    1.000013
    57  H    0.999911
    58  H    0.999904
    59  H    0.999892
    60  H    0.999973
    61  H    0.999923
    62  H    0.999960
    63  H    1.000005
    64  H    1.000024
    65  H    1.000000
    66  H    1.000018
    67  H    0.999968
    68  H    1.000043
    69  H    1.000001
    70  H    1.000041
    71  H    1.000018
    72  H    0.999983
    73  H    1.000085
    74  H    1.000076
    75  H    1.000083
    76  H    1.000034
    77  H    1.000023
    78  H    1.000017
    79  H    1.000015
    80  Mg  11.999713
    81  C    5.972585
    82  C    5.991154
    83  C    6.031108
    84  C    6.007835
    85  N    6.976382
    86  C    6.025724
    87  C    5.996454
    88  C    6.002155
    89  C    5.988045
    90  C    6.002017
    91  C    5.998647
    92  C    5.994116
    93  H    1.001976
    94  N    7.008209
    95  C    5.968271
    96  C    5.973105
    97  C    5.997985
    98  C    5.954842
    99  C    6.004507
   100  C    5.988138
   101  O    7.984133
   102  C    6.001785
   103  N    7.008560
   104  C    5.960675
   105  C    6.010179
   106  C    5.988570
   107  C    6.031908
   108  C    5.999925
   109  C    5.993536
   110  C    6.001984
   111  N    7.000360
   112  C    6.030562
   113  C    6.023983
   114  C    6.001271
   115  C    6.035681
   116  C    6.001270
   117  C    6.016180
   118  O    8.032231
   119  C    6.007004
   120  C    6.003890
   121  O    8.001110
   122  O    8.002255
   123  C    6.000102
   124  H    0.986715
   125  H    0.994879
   126  H    1.015721
   127  H    0.995127
   128  H    1.000784
   129  H    0.994999
   130  H    0.986091
   131  H    1.002785
   132  H    0.997200
   133  H    1.007779
   134  H    1.009912
   135  H    0.993162
   136  H    0.982563
   137  H    0.985731
   138  H    0.982028
   139  H    0.989719
   140  H    0.989079
   141  H    0.992474
   142  H    0.999519
   143  H    1.006658
   144  H    1.002833
   145  H    1.004890
   146  H    0.991229
   147  H    0.994582
   148  H    1.008895
   149  H    1.004831
   150  H    1.005616
   151  H    0.997483
   152  H    1.014880
   153  H    1.015497
   154  H    1.013014
   155  H    1.005759
   156  H    1.004561
   157  H    1.004047
   158  H    0.998837
 Sum of Mulliken charges = 624.00000

 Dipole moment (field-independent basis, Debye):
    X=             -0.0098    Y=              9.2053    Z=             -3.9125  Tot=             10.0022
 Quadrupole moment (field-independent basis, Debye-Ang):
   XX=              2.5464   YY=             -7.8307   ZZ=              1.8439
   XY=           -268.7697   XZ=            117.2132   YZ=              0.3842

 Normal termination of Gaussian 16 at Thu Oct 14 13:47:15 2021.
