 Gaussian 16, Revision A.03,
 Gaussian 16:  ES64L-G16RevA.03 25-Dec-2016

 --------------------------------------------------------
 #p PBE1PBE/Def2SVP td=(nstates=5) density=(transition=1)
 --------------------------------------------------------

 --------------------------------
 TDDFT excited states in gaussian
 --------------------------------
 Symbolic Z-matrix:
 Charge =  0 Multiplicity = 1

                         Standard orientation:
 ---------------------------------------------------------------------
 Center     Atomic      Atomic             Coordinates (Angstroms)
 Number     Number       Type             X           Y           Z
 ---------------------------------------------------------------------
      1         12           0       -8.897678    0.292575    0.616418
      2          6           0       -8.023829   -1.860897   -1.970541
      3          6           0       -6.772388   -1.505478    2.683742
      4          6           0       -9.203791    2.564519    2.997547
      5          6           0      -10.583813    2.290508   -1.651564
      6          7           0       -7.438699   -1.363743    0.355098
      7          6           0       -7.355601   -2.179424   -0.754700
      8          6           0       -6.504996   -3.393138   -0.523021
      9          6           0       -6.441023   -3.440045    1.067262
     10          6           0       -6.864021   -2.020001    1.419122
     11          6           0       -7.099971   -4.632719    1.910120
     12          6           0       -5.098121   -3.398895   -1.282416
     13          6           0       -4.393639   -2.028904   -1.513217
     14          1           0       -2.901059   -2.052318   -1.286816
     15          7           0       -8.008764    0.574485    2.540446
     16          6           0       -7.157779   -0.305140    3.221109
     17          6           0       -6.745947    0.233950    4.488160
     18          6           0       -7.436397    1.463735    4.606439
     19          6           0       -8.245927    1.623104    3.361764
     20          6           0       -5.975481   -0.636159    5.482507
     21          6           0       -7.307972    2.351478    5.865228
     22          8           0       -6.526245    2.079647    6.782165
     23          6           0       -8.213102    3.508828    5.931677
     24          7           0       -9.680371    2.205310    0.568791
     25          6           0       -9.924126    2.822122    1.784359
     26          6           0      -10.828555    4.067749    1.657354
     27          6           0      -11.034352    4.040641    0.087291
     28          6           0      -10.367803    2.823003   -0.377554
     29          6           0      -12.116637    4.121901    2.416534
     30          6           0      -10.386343    5.317446   -0.653170
     31          6           0      -11.344030    5.907151   -1.655451
     32          7           0       -9.436257    0.175231   -1.393165
     33          6           0      -10.130209    1.074161   -2.181744
     34          6           0      -10.211117    0.568035   -3.571025
     35          6           0       -9.384304   -0.608236   -3.531424
     36          6           0       -8.958069   -0.771679   -2.208205
     37          6           0      -10.714516    1.214119   -4.797408
     38          6           0       -8.740783   -1.696362   -4.297994
     39          8           0       -8.744676   -1.900175   -5.489981
     40          6           0       -7.880428   -2.560434   -3.320752
     41          6           0       -8.297549   -3.961854   -3.380283
     42          8           0       -7.665407   -4.962562   -3.719392
     43          8           0       -9.710620   -3.974610   -3.245065
     44          6           0      -10.333641   -5.315353   -3.221336
     45          1           0       -6.305833   -2.232833    3.352147
     46          1           0       -9.535886    3.273708    3.758455
     47          1           0      -11.199790    2.950172   -2.265307
     48          1           0       -7.003127   -4.282102   -0.909784
     49          1           0       -5.362831   -3.504190    1.215990
     50          1           0       -7.511253   -5.455798    1.326019
     51          1           0       -7.955381   -4.325283    2.511524
     52          1           0       -6.318869   -5.152226    2.465862
     53          1           0       -5.172219   -3.946376   -2.221456
     54          1           0       -4.439917   -4.032571   -0.688054
     55          1           0       -4.846417   -1.253841   -0.894102
     56          1           0       -4.530085   -1.714267   -2.547493
     57          1           0       -5.297786   -0.074437    6.126167
     58          1           0       -5.308670   -1.300334    4.933279
     59          1           0       -6.733228   -1.123520    6.096476
     60          1           0       -9.228715    3.144841    6.084184
     61          1           0       -8.114669    4.105750    5.024438
     62          1           0       -7.885141    4.071161    6.805885
     63          1           0      -10.198908    4.943243    1.817666
     64          1           0      -12.101221    3.836542   -0.003238
     65          1           0      -12.663452    4.973083    2.010510
     66          1           0      -11.870523    4.402989    3.440524
     67          1           0      -12.639743    3.167161    2.350663
     68          1           0       -9.455208    4.971004   -1.101387
     69          1           0       -9.997884    6.115191   -0.018816
     70          1           0      -10.946059    5.711714   -2.650915
     71          1           0      -11.316020    6.997257   -1.664958
     72          1           0      -12.300147    5.386802   -1.602908
     73          1           0      -11.139752    2.210704   -4.669718
     74          1           0      -11.531208    0.585270   -5.150194
     75          1           0       -9.778517    1.363781   -5.335185
     76          1           0       -6.857919   -2.434547   -3.675969
     77          1           0      -11.033027   -5.222366   -2.389695
     78          1           0       -9.734270   -6.211751   -3.061949
     79          1           0      -10.990440   -5.321641   -4.091405
     80         12           0        8.957827    0.710067   -0.250486
     81          6           0        7.487518   -2.443379    0.700190
     82          6           0        5.723539    1.748073   -1.121835
     83          6           0       10.257248    3.628213   -1.009315
     84          6           0       12.124937   -0.627240    0.383667
     85          7           0        6.833036   -0.319894   -0.213836
     86          6           0        6.471638   -1.479610    0.395835
     87          6           0        4.965274   -1.586598    0.568654
     88          6           0        4.377911   -0.374507   -0.348390
     89          6           0        5.709255    0.389188   -0.604572
     90          6           0        3.585025   -0.826087   -1.600429
     91          6           0        4.521248   -1.505693    2.068279
     92          6           0        3.692462   -2.725818    2.546905
     93          1           0        2.158724   -2.352218    2.976518
     94          7           0        8.131323    2.396020   -0.938742
     95          6           0        6.771345    2.691765   -1.292508
     96          6           0        6.575810    4.081350   -1.769312
     97          6           0        7.904359    4.609487   -1.666616
     98          6           0        8.809219    3.548114   -1.194278
     99          6           0        5.244375    4.668714   -2.241811
    100          6           0        8.393716    5.952546   -2.055140
    101          8           0        9.474231    6.438318   -1.738486
    102          6           0        7.421670    6.884351   -2.805192
    103          7           0       10.861315    1.419341   -0.133412
    104          6           0       11.169874    2.673290   -0.535822
    105          6           0       12.650437    2.901589   -0.662862
    106          6           0       13.286262    1.574941   -0.179393
    107          6           0       12.029738    0.722025    0.106544
    108          6           0       13.102489    3.388687   -2.023568
    109          6           0       14.158260    1.816478    1.188943
    110          6           0       15.697849    1.300887    1.143118
    111          7           0        9.720024   -1.233409    0.153411
    112          6           0       11.058603   -1.574660    0.463254
    113          6           0       11.072442   -2.977571    0.893127
    114          6           0        9.700150   -3.264805    1.116719
    115          6           0        8.939159   -2.242390    0.547918
    116          6           0       12.250439   -3.916899    1.133587
    117          6           0        8.801261   -4.405171    1.451883
    118          8           0        8.964994   -5.612477    1.782109
    119          6           0        7.340658   -3.828592    1.299942
    120          6           0        6.554531   -4.753350    0.418087
    121          8           0        6.968031   -5.228836   -0.601384
    122          8           0        5.362575   -5.052821    1.017257
    123          6           0        4.683329   -6.211309    0.383945
    124          1           0        4.725081    1.972945   -1.502042
    125          1           0       10.750823    4.572904   -1.248037
    126          1           0       13.100362   -1.054629    0.624213
    127          1           0        4.676641   -2.528422    0.101937
    128          1           0        3.751841    0.313624    0.220235
    129          1           0        4.103756   -0.535338   -2.514400
    130          1           0        2.581856   -0.397883   -1.591048
    131          1           0        3.355919   -1.890076   -1.660407
    132          1           0        3.906022   -0.626220    2.260106
    133          1           0        5.379149   -1.452403    2.739082
    134          1           0        4.038637   -3.131959    3.497690
    135          1           0        3.704312   -3.586450    1.878859
    136          1           0        4.336928    4.139476   -1.949329
    137          1           0        5.170425    4.862888   -3.311778
    138          1           0        5.189636    5.648767   -1.766818
    139          1           0        7.131901    6.442382   -3.758462
    140          1           0        7.830217    7.886042   -2.942835
    141          1           0        6.528909    6.997406   -2.190156
    142          1           0       12.915680    3.741576   -0.019434
    143          1           0       13.872354    1.106100   -0.969278
    144          1           0       13.402702    4.436850   -2.032563
    145          1           0       12.337336    3.369048   -2.799534
    146          1           0       13.918825    2.746051   -2.353937
    147          1           0       13.726116    1.355571    2.076555
    148          1           0       14.233744    2.870619    1.454454
    149          1           0       15.950758    1.238685    0.084507
    150          1           0       15.817774    0.335406    1.636333
    151          1           0       16.382159    2.059497    1.522133
    152          1           0       12.044327   -4.642748    1.919960
    153          1           0       13.059157   -3.319538    1.556186
    154          1           0       12.510592   -4.256106    0.130807
    155          1           0        6.889762   -3.912200    2.288456
    156          1           0        4.598088   -5.994378   -0.680671
    157          1           0        3.674360   -6.165874    0.793554
    158          1           0        5.139581   -7.198856    0.451844
 ---------------------------------------------------------------------

 SCF Done:  E(RPBE1PBE) =  -4067.36870991     A.U. after   16 cycles

 Excitation energies and oscillator strengths:

 Excited State   1:      Singlet-A      1.8269 eV  678.67 nm  f=0.3441  <S**2>=0.000
     310 -> 316        0.18268
     312 -> 314        0.69132
     312 <- 314       -0.10665
 This state for optimization and/or second-order correction.
 Total Energy, E(TD-HF/TD-DFT) =  -4067.30157341
 Copying the excited state density for this state as the 1-particle RhoCI density.

 Excited State   2:      Singlet-A      1.8393 eV  674.07 nm  f=0.0000  <S**2>=0.000
     312 -> 313        0.70706

 Excited State   3:      Singlet-A      1.8712 eV  662.60 nm  f=0.3604  <S**2>=0.000
     309 -> 315        0.17693
     311 -> 313        0.68983
     311 <- 313       -0.10395

 Excited State   4:      Singlet-A      1.8953 eV  654.18 nm  f=0.0000  <S**2>=0.000
     311 -> 314        0.70709

 Excited State   5:      Singlet-A      2.1726 eV  570.68 nm  f=0.1317  <S**2>=0.000
     310 -> 314        0.65721
     312 -> 316       -0.25510

 The electronic state is 1-A.
 Alpha  occ. eigenvalues --  -46.92649 -46.91871 -19.26205 -19.25147 -19.20899
 Alpha  occ. eigenvalues --  -19.19866 -19.19312 -19.19257 -19.18968 -19.18949
 Alpha  occ. eigenvalues --  -14.41909 -14.41854 -14.41833 -14.41497 -14.40211
 Alpha  occ. eigenvalues --  -14.39395 -14.39039 -14.38919 -10.36878 -10.35751
 Alpha  occ. eigenvalues --  -10.32501 -10.32339 -10.32310 -10.32026 -10.29478
 Alpha  occ. eigenvalues --  -10.29346 -10.29121 -10.29063 -10.28990 -10.28990
 Alpha  occ. eigenvalues --  -10.28943 -10.28640 -10.28599 -10.28421 -10.28402
 Alpha  occ. eigenvalues --  -10.28391 -10.28103 -10.28051 -10.27992 -10.27846
 Alpha  occ. eigenvalues --  -10.27076 -10.26870 -10.26776 -10.26751 -10.26674
 Alpha  occ. eigenvalues --  -10.26617 -10.26504 -10.26448 -10.26335 -10.26328
 Alpha  occ. eigenvalues --  -10.26316 -10.26210 -10.26192 -10.26139 -10.26016
 Alpha  occ. eigenvalues --  -10.25881 -10.25823 -10.25710 -10.25691 -10.25573
 Alpha  occ. eigenvalues --  -10.25516 -10.25372 -10.25097 -10.24999 -10.24928
 Alpha  occ. eigenvalues --  -10.24910 -10.24886 -10.24828 -10.24757 -10.24736
 Alpha  occ. eigenvalues --  -10.24548 -10.24511 -10.24459 -10.23855 -10.23837
 Alpha  occ. eigenvalues --  -10.23819 -10.23774 -10.23599 -10.23477 -10.23405
 Alpha  occ. eigenvalues --  -10.23369 -10.23364 -10.23349 -10.23133 -10.22993
 Alpha  occ. eigenvalues --  -10.22915  -3.14755  -3.14090  -1.87579  -1.87145
 Alpha  occ. eigenvalues --   -1.86970  -1.86929  -1.86465  -1.86335  -1.11636
 Alpha  occ. eigenvalues --   -1.09676  -1.05335  -1.04477  -1.04164  -1.03419
 Alpha  occ. eigenvalues --   -1.01860  -1.01805  -0.99838  -0.98566  -0.98513
 Alpha  occ. eigenvalues --   -0.97998  -0.97755  -0.97155  -0.97118  -0.96532
 Alpha  occ. eigenvalues --   -0.86977  -0.85851  -0.84097  -0.83667  -0.82810
 Alpha  occ. eigenvalues --   -0.82677  -0.82444  -0.82218  -0.82115  -0.81622
 Alpha  occ. eigenvalues --   -0.81397  -0.81139  -0.80580  -0.79991  -0.79184
 Alpha  occ. eigenvalues --   -0.78913  -0.78139  -0.77396  -0.77094  -0.76745
 Alpha  occ. eigenvalues --   -0.75990  -0.75398  -0.75343  -0.74914  -0.74659
 Alpha  occ. eigenvalues --   -0.73884  -0.73164  -0.72830  -0.71928  -0.71391
 Alpha  occ. eigenvalues --   -0.71259  -0.71015  -0.70648  -0.70240  -0.70220
 Alpha  occ. eigenvalues --   -0.69497  -0.67264  -0.66946  -0.66732  -0.65753
 Alpha  occ. eigenvalues --   -0.63924  -0.63818  -0.63398  -0.63077  -0.62746
 Alpha  occ. eigenvalues --   -0.61869  -0.61426  -0.61406  -0.61010  -0.60293
 Alpha  occ. eigenvalues --   -0.59912  -0.59521  -0.59229  -0.58900  -0.58711
 Alpha  occ. eigenvalues --   -0.58467  -0.57214  -0.56863  -0.55192  -0.54940
 Alpha  occ. eigenvalues --   -0.54129  -0.53772  -0.53691  -0.53224  -0.53049
 Alpha  occ. eigenvalues --   -0.52859  -0.52382  -0.52272  -0.51918  -0.51641
 Alpha  occ. eigenvalues --   -0.51038  -0.50599  -0.50505  -0.50052  -0.49787
 Alpha  occ. eigenvalues --   -0.49785  -0.49388  -0.49288  -0.48977  -0.48519
 Alpha  occ. eigenvalues --   -0.48304  -0.47856  -0.47754  -0.47402  -0.47189
 Alpha  occ. eigenvalues --   -0.47165  -0.46866  -0.46807  -0.46631  -0.46567
 Alpha  occ. eigenvalues --   -0.46407  -0.46178  -0.45968  -0.45914  -0.45861
 Alpha  occ. eigenvalues --   -0.45541  -0.45351  -0.45234  -0.44997  -0.44927
 Alpha  occ. eigenvalues --   -0.44616  -0.44442  -0.44442  -0.44362  -0.44266
 Alpha  occ. eigenvalues --   -0.44027  -0.43810  -0.43644  -0.43630  -0.43325
 Alpha  occ. eigenvalues --   -0.43179  -0.43077  -0.42929  -0.42864  -0.42704
 Alpha  occ. eigenvalues --   -0.42561  -0.42539  -0.42179  -0.42044  -0.41973
 Alpha  occ. eigenvalues --   -0.41789  -0.41610  -0.41491  -0.41394  -0.41134
 Alpha  occ. eigenvalues --   -0.41109  -0.41078  -0.40835  -0.40638  -0.40619
 Alpha  occ. eigenvalues --   -0.40297  -0.40235  -0.40037  -0.39947  -0.39867
 Alpha  occ. eigenvalues --   -0.39671  -0.39649  -0.39566  -0.39560  -0.39406
 Alpha  occ. eigenvalues --   -0.39157  -0.38891  -0.38805  -0.38661  -0.38423
 Alpha  occ. eigenvalues --   -0.38368  -0.38089  -0.38012  -0.37984  -0.37841
 Alpha  occ. eigenvalues --   -0.37598  -0.37475  -0.37355  -0.37151  -0.37003
 Alpha  occ. eigenvalues --   -0.36933  -0.36750  -0.36681  -0.36667  -0.36291
 Alpha  occ. eigenvalues --   -0.36266  -0.36054  -0.35588  -0.35517  -0.35513
 Alpha  occ. eigenvalues --   -0.35270  -0.35057  -0.35015  -0.34383  -0.34235
 Alpha  occ. eigenvalues --   -0.33685  -0.33457  -0.33150  -0.33123  -0.32605
 Alpha  occ. eigenvalues --   -0.32418  -0.32160  -0.32107  -0.31811  -0.31356
 Alpha  occ. eigenvalues --   -0.30695  -0.30548  -0.30462  -0.29855  -0.29655
 Alpha  occ. eigenvalues --   -0.29271  -0.29039  -0.28490  -0.27067  -0.27041
 Alpha  occ. eigenvalues --   -0.26025  -0.25902  -0.25899  -0.25681  -0.25603
 Alpha  occ. eigenvalues --   -0.25494  -0.25478  -0.24922  -0.21156  -0.20749
 Alpha  occ. eigenvalues --   -0.19021  -0.18826
 Alpha virt. eigenvalues --   -0.11315  -0.11303  -0.05864  -0.05221  -0.03978
 Alpha virt. eigenvalues --   -0.03684  -0.02285  -0.02105  -0.01253  -0.00648
 Alpha virt. eigenvalues --    0.00095   0.00638   0.00796   0.01102   0.01385

 Mulliken charges:
               1
     1  Mg  11.999786
     2  C    6.000368
     3  C    5.999901
     4  C    5.999308
     5  C    5.999866
     6  N    7.000031
     7  C    5.999267
     8  C    6.000166
     9  C    5.999774
    10  C    6.000292
    11  C    5.999802
    12  C    5.999952
    13  C    6.000521
    14  H    0.998587
    15  N    6.999881
    16  C    6.000631
    17  C    6.000059
    18  C    6.000150
    19  C    6.000549
    20  C    6.000103
    21  C    6.000058
    22  O    8.000535
    23  C    6.000002
    24  N    6.999798
    25  C    6.000761
    26  C    5.999701
    27  C    6.000324
    28  C    5.999216
    29  C    5.999990
    30  C    6.000207
    31  C    6.000103
    32  N    7.000058
    33  C    5.999317
    34  C    5.999357
    35  C    5.999899
    36  C    5.999445
    37  C    6.000072
    38  C    5.999605
    39  O    7.999528
    40  C    6.000021
    41  C    5.999903
    42  O    8.000104
    43  O    8.000047
    44  C    5.999905
    45  H    1.000789
    46  H    1.000160
    47  H    0.999750
    48  H    1.000444
    49  H    1.000245
    50  H    1.000636
    51  H    1.000115
    52  H    1.000668
    53  H    1.000369
    54  H    1.000586
    55  H    0.999592
    56  H    0.999684
    57  H    1.000287
    58  H    1.000408
    59  H    1.000788
    60  H    1.000477
    61  H    0.999762
    62  H    1.000264
    63  H    0.999729
    64  H    1.000211
    65  H    1.000183
    66  H    0.999985
    67  H    1.000320
    68  H    0.999451
    69  H    0.999468
    70  H    0.999860
    71  H    0.999771
    72  H    1.000311
    73  H    0.999607
    74  H    0.999947
    75  H    0.999313
    76  H    0.999509
    77  H    1.000065
    78  H    1.000191
    79  H    1.000109
    80  Mg  11.995894
    81  C    6.024592
    82  C    6.002522
    83  C    5.970939
    84  C    6.002634
    85  N    7.017378
    86  C    5.967895
    87  C    6.009765
    88  C    5.988821
    89  C    6.027107
    90  C    5.997659
    91  C    6.001188
    92  C    6.002127
    93  H    0.993456
    94  N    6.997213
    95  C    6.030305
    96  C    6.024160
    97  C    6.012490
    98  C    6.026339
    99  C    5.996832
   100  C    6.011755
   101  O    8.031031
   102  C    5.996215
   103  N    6.991227
   104  C    6.035733
   105  C    5.991349
   106  C    6.010599
   107  C    5.971401
   108  C    5.999443
   109  C    6.004510
   110  C    6.000719
   111  N    7.001934
   112  C    5.963393
   113  C    5.969601
   114  C    5.997643
   115  C    5.971650
   116  C    5.998423
   117  C    5.988194
   118  O    7.970976
   119  C    5.996446
   120  C    5.993058
   121  O    7.999965
   122  O    7.998278
   123  C    6.001581
   124  H    1.013218
   125  H    1.001522
   126  H    0.987620
   127  H    1.002508
   128  H    1.000847
   129  H    0.999456
   130  H    1.003421
   131  H    1.012824
   132  H    0.992030
   133  H    1.004545
   134  H    1.002911
   135  H    1.001878
   136  H    1.014631
   137  H    1.018222
   138  H    1.014770
   139  H    1.007336
   140  H    1.013633
   141  H    1.005059
   142  H    0.998251
   143  H    0.996615
   144  H    0.997335
   145  H    0.994615
   146  H    1.008623
   147  H    1.000775
   148  H    0.988407
   149  H    0.996296
   150  H    1.002510
   151  H    0.993981
   152  H    0.986159
   153  H    0.985000
   154  H    0.984179
   155  H    0.995453
   156  H    0.995741
   157  H    0.995259
   158  H    0.999929
 Sum of Mulliken charges = 624.00000

 Dipole moment (field-independent basis, Debye):
    X=             -4.9143    Y=              8.0934    Z=             -3.1140  Tot=              9.9675
 Quadrupole moment (field-independent basis, Debye-Ang):
   XX=            -90.2504   YY=             10.5611   ZZ=              2.9329
   XY=             68.7937   XZ=            -28.4709   YZ=             -5.5788

 Normal termination of Gaussian 16 at Thu Oct 14 21:34:26 2021.
