 Gaussian 16, Revision A.03,
 Gaussian 16:  ES64L-G16RevA.03 25-Dec-2016

 --------------------------------------------------------
 #p PBE1PBE/Def2SVP td=(nstates=5) density=(transition=1)
 --------------------------------------------------------

 --------------------------------
 TDDFT excited states in gaussian
 --------------------------------
 Symbolic Z-matrix:
 Charge =  0 Multiplicity = 1

                         Standard orientation:
 ---------------------------------------------------------------------
 Center     Atomic      Atomic             Coordinates (Angstroms)
 Number     Number       Type             X           Y           Z
 ---------------------------------------------------------------------
      1         12           0      -33.317533    0.155474   -0.116322
      2          6           0      -29.905618   -0.153360    0.195650
      3          6           0      -33.771009   -3.207188    0.346571
      4          6           0      -36.798552    0.526893   -0.242695
      5          6           0      -33.063134    3.578999    0.259133
      6          7           0      -31.931528   -1.414424    0.445547
      7          6           0      -30.537232   -1.401802    0.351372
      8          6           0      -29.941008   -2.770700    0.688876
      9          6           0      -31.211160   -3.645186    0.533942
     10          6           0      -32.435920   -2.707680    0.520801
     11          6           0      -31.123153   -4.638187   -0.645588
     12          6           0      -29.323867   -2.806639    2.101039
     13          6           0      -27.954366   -3.553813    2.255760
     14          1           0      -27.711295   -4.207839    3.559636
     15          7           0      -34.989915   -1.147275   -0.023134
     16          6           0      -34.969373   -2.496016    0.078338
     17          6           0      -36.246552   -3.094697   -0.170270
     18          6           0      -37.127383   -2.045735   -0.481124
     19          6           0      -36.298545   -0.785735   -0.280230
     20          6           0      -36.494860   -4.602665   -0.243762
     21          6           0      -38.645186   -2.165518   -0.871220
     22          8           0      -39.183446   -3.301604   -0.835352
     23          6           0      -39.522016   -0.946187   -1.390863
     24          7           0      -34.749688    1.800899    0.293918
     25          6           0      -36.075990    1.709549    0.030692
     26          6           0      -36.763091    3.050676    0.002131
     27          6           0      -35.599885    4.044616    0.209056
     28          6           0      -34.387033    3.110646    0.217756
     29          6           0      -37.641980    3.308062   -1.266627
     30          6           0      -35.795108    4.990608    1.487984
     31          6           0      -36.187755    6.435961    1.160701
     32          7           0      -31.818438    1.485391    0.113295
     33          6           0      -31.817589    2.893056    0.227495
     34          6           0      -30.439195    3.387199    0.111757
     35          6           0      -29.692466    2.220619    0.023277
     36          6           0      -30.572451    1.133976    0.156378
     37          6           0      -29.915507    4.778730    0.117527
     38          6           0      -28.318377    1.710286   -0.085947
     39          8           0      -27.248498    2.270592   -0.375890
     40          6           0      -28.402903    0.132509   -0.022972
     41          6           0      -27.873342   -0.503215   -1.301380
     42          8           0      -28.113909   -0.168915   -2.465749
     43          8           0      -27.026616   -1.470440   -0.847488
     44          6           0      -26.220974   -2.149432   -1.848513
     45          1           0      -33.928251   -4.278561    0.486952
     46          1           0      -37.854804    0.774836   -0.366871
     47          1           0      -32.911711    4.654662    0.369279
     48          1           0      -29.150247   -3.009963   -0.022922
     49          1           0      -31.222594   -4.231428    1.452743
     50          1           0      -30.146589   -4.916924   -1.041418
     51          1           0      -31.616118   -4.140956   -1.480825
     52          1           0      -31.618811   -5.583552   -0.426132
     53          1           0      -30.017342   -3.174091    2.856971
     54          1           0      -29.257761   -1.761033    2.402736
     55          1           0      -27.144408   -2.847882    2.072309
     56          1           0      -27.922220   -4.366790    1.529063
     57          1           0      -36.922178   -4.779821   -1.230476
     58          1           0      -37.020989   -4.932447    0.652163
     59          1           0      -35.496262   -5.038991   -0.264781
     60          1           0      -39.889066   -0.438748   -0.499512
     61          1           0      -40.355797   -1.385463   -1.938042
     62          1           0      -38.916674   -0.433341   -2.138782
     63          1           0      -37.441897    3.096856    0.853809
     64          1           0      -35.336416    4.667360   -0.645537
     65          1           0      -37.465448    4.299704   -1.682354
     66          1           0      -38.708986    3.220838   -1.062522
     67          1           0      -37.456372    2.517791   -1.992863
     68          1           0      -34.878907    5.101440    2.067831
     69          1           0      -36.499601    4.535659    2.184183
     70          1           0      -36.916390    6.792175    1.889135
     71          1           0      -36.627951    6.480711    0.164779
     72          1           0      -35.349520    7.132467    1.158758
     73          1           0      -30.774585    5.449644    0.117907
     74          1           0      -29.132128    4.884479   -0.633225
     75          1           0      -29.475955    4.926487    1.104549
     76          1           0      -27.884913   -0.277264    0.844543
     77          1           0      -26.776313   -2.438136   -2.741801
     78          1           0      -25.673067   -3.035135   -1.526968
     79          1           0      -25.415327   -1.492573   -2.177492
     80         12           0       32.996931    0.586715   -0.610674
     81          6           0       30.984044   -2.259440   -0.085070
     82          6           0       30.602620    2.416482    0.978788
     83          6           0       35.245305    3.155042   -0.437581
     84          6           0       35.512014   -1.669200   -1.744349
     85          7           0       31.047022    0.088095    0.480680
     86          6           0       30.327282   -1.071953    0.453971
     87          6           0       29.040175   -0.978966    1.291581
     88          6           0       28.875625    0.618322    1.227422
     89          6           0       30.266290    1.079953    0.868895
     90          6           0       27.825693    1.147300    0.213837
     91          6           0       29.189555   -1.484959    2.796585
     92          6           0       27.949388   -1.954678    3.541204
     93          1           0       27.345787   -1.158237    4.717585
     94          7           0       32.992003    2.604235    0.133088
     95          6           0       31.846053    3.165304    0.617049
     96          6           0       31.993461    4.543095    0.785809
     97          6           0       33.344115    4.828032    0.356013
     98          6           0       33.966141    3.517706    0.013840
     99          6           0       30.907025    5.485556    1.289625
    100          6           0       33.912225    6.229055    0.334679
    101          8           0       33.192198    7.196370    0.693255
    102          6           0       35.336867    6.582584   -0.220420
    103          7           0       35.031394    0.662671   -1.040505
    104          6           0       35.750341    1.882633   -0.919585
    105          6           0       37.074403    1.769155   -1.622635
    106          6           0       37.322920    0.248899   -1.729036
    107          6           0       35.878603   -0.311671   -1.578836
    108          6           0       37.245764    2.359735   -3.040465
    109          6           0       38.260261   -0.306740   -0.532064
    110          6           0       39.770363   -0.204261   -0.684818
    111          7           0       33.121255   -1.521194   -1.029989
    112          6           0       34.189399   -2.277247   -1.488980
    113          6           0       33.881678   -3.624080   -1.530431
    114          6           0       32.571172   -3.686485   -1.026555
    115          6           0       32.168436   -2.376868   -0.715138
    116          6           0       34.797007   -4.704304   -2.013940
    117          6           0       31.509420   -4.521198   -0.815931
    118          8           0       31.362125   -5.691190   -1.109559
    119          6           0       30.541663   -3.674469    0.037249
    120          6           0       30.634583   -4.256064    1.416341
    121          8           0       31.646970   -4.338780    2.039482
    122          8           0       29.391081   -4.747785    1.817281
    123          6           0       29.462773   -5.458605    3.046332
    124          1           0       29.785619    3.071359    1.289561
    125          1           0       35.941731    3.981656   -0.595895
    126          1           0       36.279239   -2.274356   -2.231337
    127          1           0       28.172327   -1.378596    0.768016
    128          1           0       28.528505    0.929444    2.212328
    129          1           0       26.958121    1.328554    0.848940
    130          1           0       27.555669    0.398608   -0.530815
    131          1           0       28.140908    2.088800   -0.236258
    132          1           0       29.572558   -0.684539    3.429693
    133          1           0       29.974535   -2.241480    2.789116
    134          1           0       28.220531   -2.949751    3.896896
    135          1           0       27.163588   -2.093942    2.798933
    136          1           0       30.832026    6.492786    0.878423
    137          1           0       31.147570    5.437774    2.351422
    138          1           0       29.924466    5.091608    1.029761
    139          1           0       35.385300    6.331536   -1.279664
    140          1           0       35.986554    5.981426    0.415373
    141          1           0       35.688537    7.596748   -0.031412
    142          1           0       37.817075    2.183455   -0.941575
    143          1           0       37.772332   -0.031428   -2.681758
    144          1           0       37.395860    1.626683   -3.832866
    145          1           0       37.805339    3.295040   -3.015719
    146          1           0       36.253610    2.741092   -3.281385
    147          1           0       37.934513   -1.346523   -0.511239
    148          1           0       38.005458    0.172054    0.413604
    149          1           0       40.185445    0.286160    0.195276
    150          1           0       40.002094    0.387872   -1.570567
    151          1           0       40.233077   -1.190464   -0.730358
    152          1           0       34.783287   -5.473806   -1.242617
    153          1           0       35.834250   -4.375189   -2.087691
    154          1           0       34.465809   -5.153539   -2.950366
    155          1           0       29.537346   -3.805740   -0.364035
    156          1           0       29.615826   -6.518851    2.846812
    157          1           0       28.516495   -5.486708    3.587921
    158          1           0       30.268262   -5.102446    3.686275
 ---------------------------------------------------------------------

 SCF Done:  E(RPBE1PBE) =  -4067.37046292     A.U. after   16 cycles

 Excitation energies and oscillator strengths:

 Excited State   1:      Singlet-A      1.7820 eV  695.74 nm  f=0.0000  <S**2>=0.000
     312 -> 313        0.70711
 This state for optimization and/or second-order correction.
 Total Energy, E(TD-HF/TD-DFT) =  -4067.30497396
 Copying the excited state density for this state as the 1-particle RhoCI density.

 Excited State   2:      Singlet-A      1.8386 eV  674.36 nm  f=0.3509  <S**2>=0.000
     310 -> 316        0.16809
     312 -> 314        0.69270
     312 <- 314       -0.10467

 Excited State   3:      Singlet-A      1.8621 eV  665.84 nm  f=0.3874  <S**2>=0.000
     309 -> 315       -0.18181
     311 -> 313        0.68867
     311 <- 313       -0.10551

 Excited State   4:      Singlet-A      2.1541 eV  575.57 nm  f=0.1183  <S**2>=0.000
     309 -> 313        0.65689
     311 -> 315        0.24322

 Excited State   5:      Singlet-A      2.2418 eV  553.06 nm  f=0.0973  <S**2>=0.000
     310 -> 314        0.64077
     312 -> 316       -0.28288

 The electronic state is 1-A.
 Alpha  occ. eigenvalues --  -46.93692 -46.92584 -19.27083 -19.26011 -19.21078
 Alpha  occ. eigenvalues --  -19.20585 -19.19703 -19.18916 -19.18355 -19.18158
 Alpha  occ. eigenvalues --  -14.42500 -14.42336 -14.42004 -14.41645 -14.39726
 Alpha  occ. eigenvalues --  -14.39441 -14.38892 -14.38832 -10.37056 -10.36677
 Alpha  occ. eigenvalues --  -10.33703 -10.32227 -10.32122 -10.30457 -10.30109
 Alpha  occ. eigenvalues --  -10.30096 -10.29726 -10.29451 -10.29311 -10.29019
 Alpha  occ. eigenvalues --  -10.29015 -10.28733 -10.28535 -10.28481 -10.28356
 Alpha  occ. eigenvalues --  -10.28197 -10.27918 -10.27809 -10.27725 -10.27686
 Alpha  occ. eigenvalues --  -10.27047 -10.26582 -10.26382 -10.26356 -10.26214
 Alpha  occ. eigenvalues --  -10.25974 -10.25965 -10.25959 -10.25936 -10.25868
 Alpha  occ. eigenvalues --  -10.25835 -10.25829 -10.25815 -10.25759 -10.25729
 Alpha  occ. eigenvalues --  -10.25711 -10.25695 -10.25661 -10.25605 -10.25495
 Alpha  occ. eigenvalues --  -10.25459 -10.25456 -10.25258 -10.25250 -10.25212
 Alpha  occ. eigenvalues --  -10.25011 -10.24925 -10.24816 -10.24715 -10.24641
 Alpha  occ. eigenvalues --  -10.24621 -10.24224 -10.24192 -10.24171 -10.24053
 Alpha  occ. eigenvalues --  -10.23989 -10.23662 -10.23592 -10.23551 -10.23529
 Alpha  occ. eigenvalues --  -10.23463 -10.23281 -10.23242 -10.23102 -10.22614
 Alpha  occ. eigenvalues --  -10.21872  -3.15571  -3.14695  -1.88409  -1.87938
 Alpha  occ. eigenvalues --   -1.87789  -1.87501  -1.87056  -1.86948  -1.12356
 Alpha  occ. eigenvalues --   -1.11692  -1.04822  -1.04289  -1.03262  -1.03139
 Alpha  occ. eigenvalues --   -1.02677  -1.02056  -1.00331  -0.99430  -0.99343
 Alpha  occ. eigenvalues --   -0.98740  -0.98596  -0.98023  -0.96749  -0.96522
 Alpha  occ. eigenvalues --   -0.88716  -0.85882  -0.83220  -0.83182  -0.83106
 Alpha  occ. eigenvalues --   -0.83023  -0.82983  -0.82977  -0.81926  -0.81778
 Alpha  occ. eigenvalues --   -0.81419  -0.81260  -0.80587  -0.80215  -0.78649
 Alpha  occ. eigenvalues --   -0.78581  -0.78227  -0.77916  -0.77167  -0.76796
 Alpha  occ. eigenvalues --   -0.76151  -0.75797  -0.75324  -0.75008  -0.74582
 Alpha  occ. eigenvalues --   -0.74531  -0.72392  -0.72338  -0.71732  -0.71699
 Alpha  occ. eigenvalues --   -0.71214  -0.70990  -0.70273  -0.70249  -0.70043
 Alpha  occ. eigenvalues --   -0.69622  -0.68067  -0.67213  -0.66691  -0.66155
 Alpha  occ. eigenvalues --   -0.63911  -0.63548  -0.63377  -0.62912  -0.62789
 Alpha  occ. eigenvalues --   -0.62351  -0.61640  -0.61579  -0.60679  -0.60579
 Alpha  occ. eigenvalues --   -0.59792  -0.59679  -0.59438  -0.59282  -0.59137
 Alpha  occ. eigenvalues --   -0.58767  -0.57351  -0.57343  -0.55020  -0.54719
 Alpha  occ. eigenvalues --   -0.54501  -0.54193  -0.54138  -0.53773  -0.53557
 Alpha  occ. eigenvalues --   -0.53550  -0.53207  -0.52709  -0.52352  -0.51776
 Alpha  occ. eigenvalues --   -0.51123  -0.50512  -0.50427  -0.50184  -0.49853
 Alpha  occ. eigenvalues --   -0.49817  -0.49658  -0.49584  -0.48442  -0.48416
 Alpha  occ. eigenvalues --   -0.48155  -0.47959  -0.47856  -0.47806  -0.47334
 Alpha  occ. eigenvalues --   -0.47286  -0.47220  -0.46982  -0.46681  -0.46609
 Alpha  occ. eigenvalues --   -0.46422  -0.46150  -0.46049  -0.45910  -0.45780
 Alpha  occ. eigenvalues --   -0.45751  -0.45563  -0.45479  -0.45472  -0.45147
 Alpha  occ. eigenvalues --   -0.44713  -0.44594  -0.44473  -0.44336  -0.44118
 Alpha  occ. eigenvalues --   -0.43982  -0.43976  -0.43687  -0.43634  -0.43543
 Alpha  occ. eigenvalues --   -0.43214  -0.43093  -0.42863  -0.42774  -0.42645
 Alpha  occ. eigenvalues --   -0.42516  -0.42249  -0.42121  -0.42017  -0.41994
 Alpha  occ. eigenvalues --   -0.41884  -0.41697  -0.41515  -0.41306  -0.41277
 Alpha  occ. eigenvalues --   -0.41161  -0.41125  -0.41082  -0.40787  -0.40705
 Alpha  occ. eigenvalues --   -0.40540  -0.40392  -0.40076  -0.40056  -0.39840
 Alpha  occ. eigenvalues --   -0.39544  -0.39496  -0.39404  -0.39198  -0.38751
 Alpha  occ. eigenvalues --   -0.38692  -0.38654  -0.38623  -0.38577  -0.38301
 Alpha  occ. eigenvalues --   -0.38183  -0.38157  -0.37999  -0.37776  -0.37726
 Alpha  occ. eigenvalues --   -0.37411  -0.37329  -0.37290  -0.37140  -0.37081
 Alpha  occ. eigenvalues --   -0.36996  -0.36768  -0.36509  -0.36397  -0.36199
 Alpha  occ. eigenvalues --   -0.36086  -0.36002  -0.35835  -0.35761  -0.35553
 Alpha  occ. eigenvalues --   -0.35380  -0.35213  -0.34678  -0.34355  -0.34250
 Alpha  occ. eigenvalues --   -0.33660  -0.33483  -0.33377  -0.33120  -0.32820
 Alpha  occ. eigenvalues --   -0.32626  -0.32387  -0.32076  -0.31929  -0.31905
 Alpha  occ. eigenvalues --   -0.31601  -0.31477  -0.30383  -0.30248  -0.30058
 Alpha  occ. eigenvalues --   -0.29761  -0.29009  -0.28676  -0.27079  -0.26964
 Alpha  occ. eigenvalues --   -0.26265  -0.25777  -0.25694  -0.25620  -0.25407
 Alpha  occ. eigenvalues --   -0.25335  -0.25231  -0.24618  -0.21304  -0.21093
 Alpha  occ. eigenvalues --   -0.19625  -0.18735
 Alpha virt. eigenvalues --   -0.11986  -0.11131  -0.05978  -0.05542  -0.04269
 Alpha virt. eigenvalues --   -0.04001  -0.02502  -0.01856  -0.01389  -0.01125
 Alpha virt. eigenvalues --    0.00110   0.00227   0.00684   0.00757   0.01254

 Mulliken charges:
               1
     1  Mg  12.000000
     2  C    6.000000
     3  C    6.000000
     4  C    6.000000
     5  C    6.000000
     6  N    7.000000
     7  C    6.000000
     8  C    6.000000
     9  C    6.000000
    10  C    6.000000
    11  C    6.000000
    12  C    6.000000
    13  C    6.000000
    14  H    1.000000
    15  N    7.000000
    16  C    6.000000
    17  C    6.000000
    18  C    6.000000
    19  C    6.000000
    20  C    6.000000
    21  C    6.000000
    22  O    8.000000
    23  C    6.000000
    24  N    7.000000
    25  C    6.000000
    26  C    6.000000
    27  C    6.000000
    28  C    6.000000
    29  C    6.000000
    30  C    6.000000
    31  C    6.000000
    32  N    7.000000
    33  C    6.000000
    34  C    6.000000
    35  C    6.000000
    36  C    6.000000
    37  C    6.000000
    38  C    6.000000
    39  O    8.000000
    40  C    6.000000
    41  C    6.000000
    42  O    8.000000
    43  O    8.000000
    44  C    6.000000
    45  H    1.000000
    46  H    1.000000
    47  H    1.000000
    48  H    1.000000
    49  H    1.000000
    50  H    1.000000
    51  H    1.000000
    52  H    1.000000
    53  H    1.000000
    54  H    1.000000
    55  H    1.000000
    56  H    1.000000
    57  H    1.000000
    58  H    1.000000
    59  H    1.000000
    60  H    1.000000
    61  H    1.000000
    62  H    1.000000
    63  H    1.000000
    64  H    1.000000
    65  H    1.000000
    66  H    1.000000
    67  H    1.000000
    68  H    1.000000
    69  H    1.000000
    70  H    1.000000
    71  H    1.000000
    72  H    1.000000
    73  H    1.000000
    74  H    1.000000
    75  H    1.000000
    76  H    1.000000
    77  H    1.000000
    78  H    1.000000
    79  H    1.000000
    80  Mg  12.000000
    81  C    6.000000
    82  C    6.000000
    83  C    6.000000
    84  C    6.000000
    85  N    7.000000
    86  C    6.000000
    87  C    6.000000
    88  C    6.000000
    89  C    6.000000
    90  C    6.000000
    91  C    6.000000
    92  C    6.000000
    93  H    1.000000
    94  N    7.000000
    95  C    6.000000
    96  C    6.000000
    97  C    6.000000
    98  C    6.000000
    99  C    6.000000
   100  C    6.000000
   101  O    8.000000
   102  C    6.000000
   103  N    7.000000
   104  C    6.000000
   105  C    6.000000
   106  C    6.000000
   107  C    6.000000
   108  C    6.000000
   109  C    6.000000
   110  C    6.000000
   111  N    7.000000
   112  C    6.000000
   113  C    6.000000
   114  C    6.000000
   115  C    6.000000
   116  C    6.000000
   117  C    6.000000
   118  O    8.000000
   119  C    6.000000
   120  C    6.000000
   121  O    8.000000
   122  O    8.000000
   123  C    6.000000
   124  H    1.000000
   125  H    1.000000
   126  H    1.000000
   127  H    1.000000
   128  H    1.000000
   129  H    1.000000
   130  H    1.000000
   131  H    1.000000
   132  H    1.000000
   133  H    1.000000
   134  H    1.000000
   135  H    1.000000
   136  H    1.000000
   137  H    1.000000
   138  H    1.000000
   139  H    1.000000
   140  H    1.000000
   141  H    1.000000
   142  H    1.000000
   143  H    1.000000
   144  H    1.000000
   145  H    1.000000
   146  H    1.000000
   147  H    1.000000
   148  H    1.000000
   149  H    1.000000
   150  H    1.000000
   151  H    1.000000
   152  H    1.000000
   153  H    1.000000
   154  H    1.000000
   155  H    1.000000
   156  H    1.000000
   157  H    1.000000
   158  H    1.000000
 Sum of Mulliken charges = 624.00000

 Dipole moment (field-independent basis, Debye):
    X=              0.0000    Y=              0.0000    Z=              0.0000  Tot=              0.0000
 Quadrupole moment (field-independent basis, Debye-Ang):
   XX=              0.0000   YY=              0.0000   ZZ=             -0.0000
   XY=              0.0000   XZ=              0.0000   YZ=             -0.0000

 Normal termination of Gaussian 16 at Fri Oct 15 16:03:08 2021.
