 Gaussian 16, Revision A.03,
 Gaussian 16:  ES64L-G16RevA.03 25-Dec-2016

 --------------------------------------------------------
 #p PBE1PBE/Def2SVP td=(nstates=5) density=(transition=1)
 --------------------------------------------------------

 --------------------------------
 TDDFT excited states in gaussian
 --------------------------------
 Symbolic Z-matrix:
 Charge =  0 Multiplicity = 1

                         Standard orientation:
 ---------------------------------------------------------------------
 Center     Atomic      Atomic             Coordinates (Angstroms)
 Number     Number       Type             X           Y           Z
 ---------------------------------------------------------------------
      1         12           0        8.878274   -0.372892    0.008023
      2          6           0        7.291461    2.549854   -0.873563
      3          6           0       11.098787    1.532206    1.931174
      4          6           0       10.550613   -3.181901    0.848934
      5          6           0        6.931857   -2.110010   -2.162492
      6          7           0        9.300189    1.856048    0.248377
      7          6           0        8.338074    2.832770   -0.037301
      8          6           0        8.620472    4.156866    0.699741
      9          6           0        9.923945    3.774889    1.493278
     10          6           0       10.137837    2.291575    1.281112
     11          6           0       11.137431    4.598791    1.081474
     12          6           0        7.518843    4.775217    1.631470
     13          6           0        6.849707    6.176941    1.157013
     14          1           0        7.069445    7.277546    2.199550
     15          7           0       10.610152   -0.768764    1.109305
     16          6           0       11.298075    0.140628    1.928885
     17          6           0       12.244853   -0.547550    2.812629
     18          6           0       12.183808   -2.004443    2.468852
     19          6           0       11.037983   -2.079138    1.476911
     20          6           0       13.114198    0.175680    3.817487
     21          6           0       12.949109   -3.143327    2.955012
     22          8           0       12.783090   -4.259949    2.442306
     23          6           0       14.012584   -3.027887    4.032977
     24          7           0        8.787896   -2.268749   -0.639774
     25          6           0        9.492317   -3.340086   -0.059928
     26          6           0        9.045351   -4.776932   -0.548544
     27          6           0        7.867841   -4.343340   -1.565399
     28          6           0        7.853725   -2.803891   -1.429949
     29          6           0       10.210367   -5.637930   -1.246157
     30          6           0        6.500879   -5.011364   -1.188540
     31          6           0        5.607853   -5.459345   -2.302892
     32          7           0        7.451275    0.158412   -1.359360
     33          6           0        6.683105   -0.691935   -2.159831
     34          6           0        5.634199    0.023894   -2.802015
     35          6           0        5.782884    1.340924   -2.229024
     36          6           0        6.939803    1.343415   -1.439532
     37          6           0        4.562254   -0.424462   -3.704192
     38          6           0        5.289631    2.680299   -2.306936
     39          8           0        4.340435    3.231194   -2.875392
     40          6           0        6.369396    3.555057   -1.522153
     41          6           0        7.010606    4.494593   -2.479776
     42          8           0        8.041796    4.394689   -3.019007
     43          8           0        6.252795    5.657926   -2.592105
     44          6           0        6.994245    6.836570   -2.989837
     45          1           0       11.730697    2.123037    2.597601
     46          1           0       10.960100   -4.164830    1.090793
     47          1           0        6.208926   -2.685126   -2.744721
     48          1           0        8.888243    4.913024   -0.037460
     49          1           0        9.833854    4.009181    2.554345
     50          1           0       11.864515    3.938150    0.609999
     51          1           0       11.518403    4.954034    2.038190
     52          1           0       10.929809    5.480735    0.475898
     53          1           0        7.961319    4.922873    2.616933
     54          1           0        6.664966    4.105190    1.732739
     55          1           0        5.787647    5.931104    1.154713
     56          1           0        7.246479    6.479234    0.188099
     57          1           0       13.887919    0.689335    3.245518
     58          1           0       13.567689   -0.571135    4.467373
     59          1           0       12.594575    0.975241    4.345938
     60          1           0       14.612867   -3.933760    3.945937
     61          1           0       13.609169   -2.907727    5.038965
     62          1           0       14.794996   -2.283592    3.886125
     63          1           0        8.560853   -5.310049    0.268828
     64          1           0        8.016955   -4.652820   -2.600101
     65          1           0        9.779216   -6.178301   -2.089154
     66          1           0       10.629240   -6.457968   -0.664174
     67          1           0       11.047113   -5.027119   -1.585662
     68          1           0        5.893870   -4.420122   -0.503115
     69          1           0        6.630332   -5.958121   -0.664492
     70          1           0        4.744321   -4.797107   -2.242888
     71          1           0        5.091141   -6.417457   -2.246868
     72          1           0        6.119957   -5.336067   -3.257733
     73          1           0        4.352620   -1.473308   -3.492456
     74          1           0        5.004212   -0.344608   -4.697294
     75          1           0        3.747441    0.298605   -3.662770
     76          1           0        5.881956    4.134336   -0.738372
     77          1           0        7.142759    6.700724   -4.060552
     78          1           0        7.946879    6.773430   -2.464151
     79          1           0        6.424921    7.748890   -2.809662
     80         12           0       -8.455169   -1.031112    0.175029
     81          6           0      -10.592621    1.711260    0.762278
     82          6           0       -5.819316    1.166571   -0.009042
     83          6           0       -6.364511   -3.580118   -0.467033
     84          6           0      -11.222866   -3.138507   -0.201697
     85          7           0       -8.308230    1.126441    0.498536
     86          6           0       -9.204499    2.082316    0.726117
     87          6           0       -8.658829    3.517647    0.876575
     88          6           0       -7.183725    3.222424    0.316999
     89          6           0       -7.107787    1.718537    0.215948
     90          6           0       -6.890721    3.889707   -1.004824
     91          6           0       -8.653212    4.076001    2.405554
     92          6           0       -8.735558    5.603061    2.487739
     93          1           0       -9.988750    6.131453    3.232171
     94          7           0       -6.317974   -1.237179   -0.034414
     95          6           0       -5.414895   -0.149307   -0.127002
     96          6           0       -4.083465   -0.707669   -0.054492
     97          6           0       -4.206193   -2.090010   -0.162502
     98          6           0       -5.672395   -2.386558   -0.208397
     99          6           0       -2.814507    0.122065   -0.106718
    100          6           0       -3.171562   -3.191961   -0.164846
    101          8           0       -3.522014   -4.335620   -0.188395
    102          6           0       -1.706350   -2.907035   -0.062339
    103          7           0       -8.733316   -3.015699   -0.464603
    104          6           0       -7.707837   -3.906148   -0.595809
    105          6           0       -8.362718   -5.290334   -0.860228
    106          6           0       -9.743168   -5.230980   -0.231134
    107          6           0       -9.976962   -3.703673   -0.304938
    108          6           0       -8.502724   -5.503849   -2.366764
    109          6           0       -9.828009   -5.801686    1.136018
    110          6           0       -8.781417   -5.424146    2.154936
    111          7           0      -10.502316   -0.830683    0.283410
    112          6           0      -11.520324   -1.748189    0.103622
    113          6           0      -12.809941   -1.071973    0.312746
    114          6           0      -12.473631    0.263588    0.594261
    115          6           0      -11.108666    0.353312    0.565992
    116          6           0      -14.141506   -1.676851    0.190260
    117          6           0      -12.974679    1.536682    1.038197
    118          8           0      -14.151541    1.913264    1.314150
    119          6           0      -11.716174    2.515787    1.188427
    120          6           0      -11.945487    3.652600    0.226452
    121          8           0      -12.270885    3.484820   -0.911382
    122          8           0      -11.690378    4.952411    0.741561
    123          6           0      -11.601150    6.035608   -0.284376
    124          1           0       -4.977772    1.852277   -0.122640
    125          1           0       -5.731075   -4.414375   -0.776797
    126          1           0      -12.114292   -3.765830   -0.132327
    127          1           0       -9.276918    4.213439    0.307807
    128          1           0       -6.527971    3.621240    1.091955
    129          1           0       -6.344451    4.802463   -0.767536
    130          1           0       -7.783192    4.032973   -1.614349
    131          1           0       -6.138297    3.245298   -1.459346
    132          1           0       -7.733957    3.771544    2.906892
    133          1           0       -9.457146    3.619757    2.983516
    134          1           0       -8.689663    5.877895    1.433753
    135          1           0       -7.834044    6.040561    2.916228
    136          1           0       -3.139876    1.124065    0.170405
    137          1           0       -2.578024    0.131019   -1.170336
    138          1           0       -2.054901   -0.233583    0.589722
    139          1           0       -1.660215   -2.592954    0.980551
    140          1           0       -1.357043   -2.089644   -0.692598
    141          1           0       -1.129617   -3.812535   -0.253985
    142          1           0       -7.793194   -6.149325   -0.507129
    143          1           0      -10.521878   -5.776842   -0.762778
    144          1           0       -9.471657   -5.362681   -2.845770
    145          1           0       -8.171324   -6.519771   -2.581406
    146          1           0       -7.791826   -4.844200   -2.865649
    147          1           0       -9.897286   -6.889607    1.119036
    148          1           0      -10.787643   -5.442854    1.507632
    149          1           0       -9.300642   -4.817542    2.897474
    150          1           0       -7.873437   -4.870876    1.913180
    151          1           0       -8.471361   -6.332395    2.671461
    152          1           0      -14.322960   -1.884438   -0.864240
    153          1           0      -14.804105   -0.932429    0.631589
    154          1           0      -14.190384   -2.641488    0.697207
    155          1           0      -11.699952    2.776450    2.246837
    156          1           0      -12.598311    6.326363   -0.614732
    157          1           0      -11.009760    5.753677   -1.156702
    158          1           0      -11.200010    6.988034    0.060954
 ---------------------------------------------------------------------

 SCF Done:  E(RPBE1PBE) =  -4067.35846618     A.U. after   16 cycles

 Excitation energies and oscillator strengths:

 Excited State   1:      Singlet-A      1.6799 eV  738.05 nm  f=0.0000  <S**2>=0.000
     312 -> 313        0.70705
 This state for optimization and/or second-order correction.
 Total Energy, E(TD-HF/TD-DFT) =  -4067.29673133
 Copying the excited state density for this state as the 1-particle RhoCI density.

 Excited State   2:      Singlet-A      1.8090 eV  685.39 nm  f=0.6581  <S**2>=0.000
     309 -> 315       -0.12587
     311 -> 313        0.59222
     312 -> 314        0.36550

 Excited State   3:      Singlet-A      1.8305 eV  677.31 nm  f=0.1245  <S**2>=0.000
     310 -> 316       -0.14773
     311 -> 313       -0.36531
     312 -> 314        0.59054

 Excited State   4:      Singlet-A      1.9533 eV  634.75 nm  f=0.0000  <S**2>=0.000
     311 -> 314        0.70703

 Excited State   5:      Singlet-A      2.1783 eV  569.17 nm  f=0.0787  <S**2>=0.000
     310 -> 314        0.65113
     312 -> 316        0.24843

 The electronic state is 1-A.
 Alpha  occ. eigenvalues --  -46.91943 -46.91604 -19.25087 -19.23159 -19.20164
 Alpha  occ. eigenvalues --  -19.20062 -19.19096 -19.18992 -19.18742 -19.18648
 Alpha  occ. eigenvalues --  -14.42623 -14.42281 -14.41801 -14.40985 -14.40110
 Alpha  occ. eigenvalues --  -14.39152 -14.38806 -14.38625 -10.36373 -10.35418
 Alpha  occ. eigenvalues --  -10.32437 -10.32034 -10.32012 -10.31844 -10.29668
 Alpha  occ. eigenvalues --  -10.29245 -10.29088 -10.28936 -10.28883 -10.28848
 Alpha  occ. eigenvalues --  -10.28786 -10.28747 -10.28705 -10.28433 -10.28407
 Alpha  occ. eigenvalues --  -10.28185 -10.28143 -10.28075 -10.27851 -10.27583
 Alpha  occ. eigenvalues --  -10.27410 -10.27379 -10.27263 -10.26615 -10.26578
 Alpha  occ. eigenvalues --  -10.26370 -10.26358 -10.26293 -10.26293 -10.26226
 Alpha  occ. eigenvalues --  -10.26032 -10.25956 -10.25877 -10.25796 -10.25702
 Alpha  occ. eigenvalues --  -10.25613 -10.25469 -10.25404 -10.25287 -10.25219
 Alpha  occ. eigenvalues --  -10.25183 -10.25161 -10.25100 -10.24856 -10.24810
 Alpha  occ. eigenvalues --  -10.24780 -10.24658 -10.24524 -10.24443 -10.24436
 Alpha  occ. eigenvalues --  -10.24125 -10.24083 -10.23900 -10.23754 -10.23637
 Alpha  occ. eigenvalues --  -10.23620 -10.23588 -10.23541 -10.23272 -10.23031
 Alpha  occ. eigenvalues --  -10.23008 -10.22791 -10.22744 -10.22522 -10.22325
 Alpha  occ. eigenvalues --  -10.21872  -3.14021  -3.13938  -1.86885  -1.86749
 Alpha  occ. eigenvalues --   -1.86372  -1.86323  -1.86260  -1.86180  -1.11851
 Alpha  occ. eigenvalues --   -1.10278  -1.06586  -1.04286  -1.03362  -1.02905
 Alpha  occ. eigenvalues --   -1.02151  -1.01486  -0.99753  -0.99735  -0.98314
 Alpha  occ. eigenvalues --   -0.97886  -0.97753  -0.96861  -0.96338  -0.95337
 Alpha  occ. eigenvalues --   -0.87348  -0.87330  -0.84177  -0.83693  -0.83625
 Alpha  occ. eigenvalues --   -0.83144  -0.82985  -0.82889  -0.82032  -0.81895
 Alpha  occ. eigenvalues --   -0.81809  -0.81216  -0.81021  -0.80716  -0.78796
 Alpha  occ. eigenvalues --   -0.78709  -0.78048  -0.77842  -0.76899  -0.76741
 Alpha  occ. eigenvalues --   -0.76496  -0.76164  -0.75493  -0.75421  -0.74852
 Alpha  occ. eigenvalues --   -0.74137  -0.73183  -0.72867  -0.71976  -0.71589
 Alpha  occ. eigenvalues --   -0.71421  -0.71252  -0.70471  -0.69872  -0.69812
 Alpha  occ. eigenvalues --   -0.69252  -0.67819  -0.66920  -0.66348  -0.65667
 Alpha  occ. eigenvalues --   -0.63997  -0.63852  -0.63343  -0.63207  -0.62684
 Alpha  occ. eigenvalues --   -0.62211  -0.62178  -0.61314  -0.60343  -0.60103
 Alpha  occ. eigenvalues --   -0.60054  -0.59689  -0.59348  -0.58757  -0.58747
 Alpha  occ. eigenvalues --   -0.57832  -0.56307  -0.55736  -0.54852  -0.54685
 Alpha  occ. eigenvalues --   -0.54358  -0.54250  -0.53861  -0.53668  -0.53536
 Alpha  occ. eigenvalues --   -0.53401  -0.53133  -0.52985  -0.52477  -0.52206
 Alpha  occ. eigenvalues --   -0.51291  -0.50820  -0.50346  -0.50243  -0.50021
 Alpha  occ. eigenvalues --   -0.49150  -0.49010  -0.48759  -0.48561  -0.48557
 Alpha  occ. eigenvalues --   -0.48402  -0.48026  -0.48000  -0.47835  -0.47809
 Alpha  occ. eigenvalues --   -0.47606  -0.47572  -0.47045  -0.47039  -0.46611
 Alpha  occ. eigenvalues --   -0.46449  -0.46443  -0.46218  -0.46068  -0.45936
 Alpha  occ. eigenvalues --   -0.45849  -0.45647  -0.45397  -0.45386  -0.45265
 Alpha  occ. eigenvalues --   -0.45031  -0.44690  -0.44671  -0.44670  -0.44545
 Alpha  occ. eigenvalues --   -0.44356  -0.44205  -0.43866  -0.43753  -0.43707
 Alpha  occ. eigenvalues --   -0.43625  -0.43521  -0.43496  -0.43024  -0.42941
 Alpha  occ. eigenvalues --   -0.42886  -0.42746  -0.42302  -0.42140  -0.42078
 Alpha  occ. eigenvalues --   -0.41923  -0.41846  -0.41778  -0.41416  -0.41336
 Alpha  occ. eigenvalues --   -0.41224  -0.41052  -0.40983  -0.40677  -0.40389
 Alpha  occ. eigenvalues --   -0.40340  -0.40307  -0.40067  -0.40057  -0.39917
 Alpha  occ. eigenvalues --   -0.39686  -0.39521  -0.39309  -0.39042  -0.38773
 Alpha  occ. eigenvalues --   -0.38678  -0.38580  -0.38489  -0.38386  -0.38318
 Alpha  occ. eigenvalues --   -0.38044  -0.37994  -0.37945  -0.37767  -0.37546
 Alpha  occ. eigenvalues --   -0.37471  -0.37244  -0.37199  -0.37042  -0.36811
 Alpha  occ. eigenvalues --   -0.36604  -0.36511  -0.36330  -0.36269  -0.36167
 Alpha  occ. eigenvalues --   -0.35806  -0.35791  -0.35742  -0.35300  -0.35200
 Alpha  occ. eigenvalues --   -0.35109  -0.35090  -0.34638  -0.34351  -0.34251
 Alpha  occ. eigenvalues --   -0.33952  -0.33210  -0.33059  -0.32955  -0.32617
 Alpha  occ. eigenvalues --   -0.32395  -0.32255  -0.32020  -0.31395  -0.31360
 Alpha  occ. eigenvalues --   -0.31129  -0.30102  -0.29917  -0.29732  -0.29444
 Alpha  occ. eigenvalues --   -0.29437  -0.28870  -0.28725  -0.27338  -0.27032
 Alpha  occ. eigenvalues --   -0.26266  -0.25928  -0.25787  -0.25506  -0.25502
 Alpha  occ. eigenvalues --   -0.25215  -0.25174  -0.25106  -0.21536  -0.20942
 Alpha  occ. eigenvalues --   -0.19325  -0.18871
 Alpha virt. eigenvalues --   -0.11951  -0.11346  -0.06023  -0.05160  -0.04510
 Alpha virt. eigenvalues --   -0.03734  -0.02453  -0.02153  -0.00820   0.00128
 Alpha virt. eigenvalues --    0.00568   0.00820   0.00936   0.01020   0.01418

 Mulliken charges:
               1
     1  Mg  12.000000
     2  C    6.000000
     3  C    6.000000
     4  C    6.000000
     5  C    6.000000
     6  N    7.000000
     7  C    6.000000
     8  C    6.000000
     9  C    6.000000
    10  C    6.000000
    11  C    6.000000
    12  C    6.000000
    13  C    6.000000
    14  H    1.000000
    15  N    7.000000
    16  C    6.000001
    17  C    6.000000
    18  C    6.000000
    19  C    6.000000
    20  C    6.000000
    21  C    6.000000
    22  O    8.000001
    23  C    6.000000
    24  N    7.000000
    25  C    6.000001
    26  C    6.000000
    27  C    6.000000
    28  C    6.000000
    29  C    6.000000
    30  C    6.000000
    31  C    6.000000
    32  N    7.000000
    33  C    5.999999
    34  C    6.000000
    35  C    6.000000
    36  C    6.000000
    37  C    6.000000
    38  C    6.000000
    39  O    8.000000
    40  C    6.000000
    41  C    6.000000
    42  O    8.000000
    43  O    8.000000
    44  C    6.000000
    45  H    1.000000
    46  H    1.000000
    47  H    1.000000
    48  H    1.000000
    49  H    1.000000
    50  H    1.000000
    51  H    1.000000
    52  H    1.000000
    53  H    1.000000
    54  H    1.000000
    55  H    1.000000
    56  H    1.000000
    57  H    1.000000
    58  H    1.000000
    59  H    1.000000
    60  H    1.000000
    61  H    1.000000
    62  H    1.000000
    63  H    1.000000
    64  H    1.000000
    65  H    1.000000
    66  H    1.000000
    67  H    1.000000
    68  H    1.000000
    69  H    1.000000
    70  H    1.000000
    71  H    1.000000
    72  H    1.000000
    73  H    1.000000
    74  H    1.000000
    75  H    1.000001
    76  H    1.000000
    77  H    1.000000
    78  H    1.000000
    79  H    1.000000
    80  Mg  12.000000
    81  C    6.000000
    82  C    6.000000
    83  C    6.000000
    84  C    6.000000
    85  N    7.000000
    86  C    5.999999
    87  C    6.000000
    88  C    6.000000
    89  C    6.000000
    90  C    6.000000
    91  C    6.000000
    92  C    6.000000
    93  H    1.000000
    94  N    7.000000
    95  C    6.000001
    96  C    5.999999
    97  C    5.999999
    98  C    6.000001
    99  C    6.000000
   100  C    6.000001
   101  O    7.999999
   102  C    6.000000
   103  N    7.000000
   104  C    6.000000
   105  C    6.000000
   106  C    6.000000
   107  C    6.000000
   108  C    6.000000
   109  C    6.000000
   110  C    6.000000
   111  N    7.000000
   112  C    6.000000
   113  C    5.999999
   114  C    6.000000
   115  C    6.000000
   116  C    6.000000
   117  C    6.000000
   118  O    8.000000
   119  C    6.000000
   120  C    6.000000
   121  O    8.000000
   122  O    8.000000
   123  C    6.000000
   124  H    1.000000
   125  H    1.000000
   126  H    1.000000
   127  H    1.000000
   128  H    1.000000
   129  H    1.000000
   130  H    1.000000
   131  H    1.000000
   132  H    1.000000
   133  H    1.000000
   134  H    1.000000
   135  H    1.000000
   136  H    1.000000
   137  H    1.000001
   138  H    1.000000
   139  H    1.000000
   140  H    1.000002
   141  H    1.000000
   142  H    1.000000
   143  H    1.000000
   144  H    1.000000
   145  H    1.000000
   146  H    1.000000
   147  H    1.000000
   148  H    1.000000
   149  H    1.000000
   150  H    1.000000
   151  H    1.000000
   152  H    1.000000
   153  H    1.000000
   154  H    1.000000
   155  H    1.000000
   156  H    1.000000
   157  H    1.000000
   158  H    1.000000
 Sum of Mulliken charges = 624.00000

 Dipole moment (field-independent basis, Debye):
    X=              0.0004    Y=             -0.0000    Z=              0.0001  Tot=              0.0004
 Quadrupole moment (field-independent basis, Debye-Ang):
   XX=              0.0003   YY=             -0.0001   ZZ=              0.0001
   XY=             -0.0005   XZ=              0.0010   YZ=             -0.0001

 Normal termination of Gaussian 16 at Fri Oct 15 12:11:37 2021.
