 Gaussian 16, Revision A.03,
 Gaussian 16:  ES64L-G16RevA.03 25-Dec-2016

 --------------------------------------------------------
 #p PBE1PBE/Def2SVP td=(nstates=5) density=(transition=1)
 --------------------------------------------------------

 --------------------------------
 TDDFT excited states in gaussian
 --------------------------------
 Symbolic Z-matrix:
 Charge =  0 Multiplicity = 1

                         Standard orientation:
 ---------------------------------------------------------------------
 Center     Atomic      Atomic             Coordinates (Angstroms)
 Number     Number       Type             X           Y           Z
 ---------------------------------------------------------------------
      1         12           0      -21.466686    0.229854    0.068413
      2          6           0      -18.461236    1.422327   -0.986616
      3          6           0      -22.211769   -0.626210   -3.281288
      4          6           0      -23.823025   -1.837841    1.220147
      5          6           0      -20.399710    0.637108    3.494537
      6          7           0      -20.447660    0.422071   -1.843709
      7          6           0      -19.274148    0.899412   -2.096169
      8          6           0      -19.003927    1.105978   -3.628958
      9          6           0      -20.357518    0.704106   -4.329287
     10          6           0      -21.127139    0.140173   -3.085533
     11          6           0      -21.013627    1.772571   -5.204924
     12          6           0      -17.670123    0.294622   -4.138447
     13          6           0      -17.192757   -0.903158   -3.333335
     14          1           0      -16.264862   -1.942661   -3.962072
     15          7           0      -22.819089   -1.058541   -0.911054
     16          6           0      -23.024177   -1.223347   -2.259819
     17          6           0      -24.023907   -2.178052   -2.470696
     18          6           0      -24.508209   -2.601469   -1.173153
     19          6           0      -23.680872   -1.851908   -0.191359
     20          6           0      -24.544713   -2.464886   -3.867083
     21          6           0      -25.632273   -3.632252   -0.963904
     22          8           0      -26.157344   -4.136441   -1.981986
     23          6           0      -26.136879   -4.074765    0.303771
     24          7           0      -21.953352   -0.647545    2.131599
     25          6           0      -23.079310   -1.291325    2.254144
     26          6           0      -23.490448   -1.521347    3.736314
     27          6           0      -22.424241   -0.683998    4.475928
     28          6           0      -21.483717   -0.136805    3.327346
     29          6           0      -24.866632   -1.072158    4.072552
     30          6           0      -21.648485   -1.518725    5.600603
     31          6           0      -21.937751   -1.103556    7.101624
     32          7           0      -19.862279    0.982185    1.121800
     33          6           0      -19.549925    1.131180    2.478867
     34          6           0      -18.230419    1.827428    2.590763
     35          6           0      -17.789084    1.901463    1.261987
     36          6           0      -18.784767    1.351234    0.401317
     37          6           0      -17.520885    2.263580    3.778387
     38          6           0      -16.679393    2.296443    0.522502
     39          8           0      -15.597457    2.826434    0.815009
     40          6           0      -17.088080    2.097484   -0.964737
     41          6           0      -16.951203    3.458722   -1.687355
     42          8           0      -16.318497    3.700892   -2.701053
     43          8           0      -17.657749    4.457801   -1.053374
     44          6           0      -17.579000    5.810124   -1.618415
     45          1           0      -22.328127   -0.892711   -4.333703
     46          1           0      -24.672589   -2.368122    1.654990
     47          1           0      -20.169174    0.907622    4.526966
     48          1           0      -18.944071    2.183771   -3.782556
     49          1           0      -20.246698   -0.176230   -4.963159
     50          1           0      -21.962562    2.076017   -4.763151
     51          1           0      -21.235862    1.404877   -6.207348
     52          1           0      -20.408389    2.656503   -5.406252
     53          1           0      -16.943693    1.105109   -4.202244
     54          1           0      -17.759014   -0.178419   -5.116657
     55          1           0      -18.125144   -1.383151   -3.037223
     56          1           0      -16.758236   -0.480537   -2.427240
     57          1           0      -25.606556   -2.347782   -4.085154
     58          1           0      -24.203193   -3.455680   -4.167650
     59          1           0      -24.046573   -1.799740   -4.572183
     60          1           0      -26.594525   -3.332088    0.957052
     61          1           0      -25.318258   -4.403666    0.943125
     62          1           0      -26.775949   -4.954729    0.237559
     63          1           0      -23.498077   -2.539787    4.124451
     64          1           0      -22.820983    0.236244    4.904876
     65          1           0      -25.597228   -1.872208    4.190899
     66          1           0      -25.315013   -0.544247    3.230147
     67          1           0      -24.853289   -0.464636    4.977302
     68          1           0      -20.580801   -1.329592    5.481340
     69          1           0      -21.885026   -2.581778    5.616091
     70          1           0      -22.114242   -1.996572    7.699871
     71          1           0      -22.890063   -0.573552    7.123189
     72          1           0      -21.015086   -0.633882    7.443002
     73          1           0      -18.311105    2.508644    4.488417
     74          1           0      -16.931499    3.156776    3.568118
     75          1           0      -16.832927    1.458257    4.034108
     76          1           0      -16.330177    1.580587   -1.552929
     77          1           0      -17.795389    6.525446   -0.824721
     78          1           0      -18.283612    6.081569   -2.404339
     79          1           0      -16.628782    6.028769   -2.106519
     80         12           0       20.622667   -0.924597   -0.251087
     81          6           0       21.457733    2.515127    0.289608
     82          6           0       17.454697   -0.289148    0.912562
     83          6           0       19.884412   -4.220290   -0.285823
     84          6           0       24.084746   -1.563390   -0.468595
     85          7           0       19.606472    0.908848    0.492285
     86          6           0       20.086494    2.225629    0.571286
     87          6           0       18.965506    3.133681    1.007769
     88          6           0       17.940139    2.115354    1.663289
     89          6           0       18.395647    0.772540    1.020169
     90          6           0       18.154855    2.148273    3.218497
     91          6           0       18.417945    4.070197   -0.126451
     92          6           0       18.223945    5.411787    0.375336
     93          1           0       18.010321    6.537301   -0.757054
     94          7           0       18.809788   -1.994908    0.100378
     95          6           0       17.624638   -1.546478    0.531222
     96          6           0       16.678101   -2.619112    0.512890
     97          6           0       17.346803   -3.780902    0.188924
     98          6           0       18.799492   -3.367052   -0.087409
     99          6           0       15.212268   -2.443242    1.022307
    100          6           0       16.785368   -5.205440    0.002140
    101          8           0       17.545518   -6.105370   -0.251355
    102          6           0       15.297268   -5.461519    0.043112
    103          7           0       21.875889   -2.653267   -0.089220
    104          6           0       21.286498   -3.900559   -0.263818
    105          6           0       22.318824   -4.937182   -0.567369
    106          6           0       23.677573   -4.084595   -0.650305
    107          6           0       23.196938   -2.665889   -0.455226
    108          6           0       22.317696   -6.068373    0.404574
    109          6           0       24.588963   -4.253841   -1.986629
    110          6           0       25.963955   -4.771921   -1.830642
    111          7           0       22.441824    0.195382   -0.175334
    112          6           0       23.744072   -0.239122   -0.278251
    113          6           0       24.649438    0.990356   -0.239065
    114          6           0       23.790167    2.102349   -0.132481
    115          6           0       22.459801    1.561162   -0.044111
    116          6           0       26.182875    0.943149   -0.282381
    117          6           0       23.805711    3.519413    0.070394
    118          8           0       24.764269    4.323831    0.100134
    119          6           0       22.321709    3.838823    0.522053
    120          6           0       21.916386    5.118073   -0.270120
    121          8           0       21.197963    5.038065   -1.283388
    122          8           0       22.380455    6.220604    0.367715
    123          6           0       22.156992    7.417125   -0.514613
    124          1           0       16.397261   -0.061051    1.064187
    125          1           0       19.667306   -5.290534   -0.320967
    126          1           0       25.162203   -1.647835   -0.623992
    127          1           0       19.367266    3.721342    1.832894
    128          1           0       16.907456    2.385388    1.445373
    129          1           0       19.064151    1.643655    3.544115
    130          1           0       17.271909    1.732989    3.702484
    131          1           0       18.211550    3.188011    3.541561
    132          1           0       17.401141    3.734865   -0.332196
    133          1           0       19.020692    4.010138   -1.032957
    134          1           0       19.131004    5.790169    0.846993
    135          1           0       17.362191    5.388666    1.042834
    136          1           0       14.619353   -2.782774    0.173077
    137          1           0       14.922208   -1.415783    1.241549
    138          1           0       15.067279   -3.017177    1.937458
    139          1           0       15.090849   -6.529807   -0.023048
    140          1           0       15.053418   -4.903022   -0.860561
    141          1           0       14.904441   -5.026093    0.961865
    142          1           0       22.026236   -5.276274   -1.561280
    143          1           0       24.291925   -4.399943    0.192670
    144          1           0       21.934764   -6.913383   -0.166231
    145          1           0       21.595727   -5.937230    1.210447
    146          1           0       23.280156   -6.295269    0.863722
    147          1           0       24.697681   -3.220275   -2.315182
    148          1           0       23.994330   -4.790012   -2.725043
    149          1           0       26.701676   -4.029655   -2.134346
    150          1           0       25.902632   -5.519184   -2.621067
    151          1           0       26.130980   -5.271169   -0.875227
    152          1           0       26.505091    0.944858    0.758302
    153          1           0       26.613083    1.801504   -0.798286
    154          1           0       26.493785    0.059517   -0.839774
    155          1           0       22.426640    4.027398    1.589603
    156          1           0       22.829975    7.489511   -1.368830
    157          1           0       22.189669    8.376490    0.000746
    158          1           0       21.120407    7.344278   -0.844295
 ---------------------------------------------------------------------

 SCF Done:  E(RPBE1PBE) =  -4067.31315123     A.U. after   19 cycles

 Excitation energies and oscillator strengths:

 Excited State   1:      Singlet-A      1.5267 eV  812.12 nm  f=0.0000  <S**2>=0.000
     312 -> 313        0.70711
 This state for optimization and/or second-order correction.
 Total Energy, E(TD-HF/TD-DFT) =  -4067.25704702
 Copying the excited state density for this state as the 1-particle RhoCI density.

 Excited State   2:      Singlet-A      1.8313 eV  677.04 nm  f=0.3634  <S**2>=0.000
     310 -> 315        0.18205
     312 -> 314        0.68907

 Excited State   3:      Singlet-A      1.8536 eV  668.87 nm  f=0.4030  <S**2>=0.000
     309 -> 316       -0.15874
     311 -> 313        0.69694
     311 <- 313       -0.12236

 Excited State   4:      Singlet-A      2.2475 eV  551.66 nm  f=0.1094  <S**2>=0.000
     309 -> 313        0.65201
     311 -> 316        0.24630

 Excited State   5:      Singlet-A      2.2731 eV  545.44 nm  f=0.0126  <S**2>=0.000
     310 -> 314        0.57939
     312 -> 315       -0.39824

 The electronic state is 1-A.
 Alpha  occ. eigenvalues --  -46.93740 -46.92777 -19.26816 -19.25510 -19.20340
 Alpha  occ. eigenvalues --  -19.20043 -19.19434 -19.19145 -19.19047 -19.17889
 Alpha  occ. eigenvalues --  -14.42726 -14.41690 -14.41465 -14.41432 -14.40139
 Alpha  occ. eigenvalues --  -14.39630 -14.38892 -14.38889 -10.36762 -10.36760
 Alpha  occ. eigenvalues --  -10.32567 -10.32185 -10.31677 -10.31618 -10.30577
 Alpha  occ. eigenvalues --  -10.29285 -10.28893 -10.28872 -10.28853 -10.28817
 Alpha  occ. eigenvalues --  -10.28767 -10.28713 -10.28712 -10.28621 -10.28599
 Alpha  occ. eigenvalues --  -10.28576 -10.28426 -10.27864 -10.27195 -10.27158
 Alpha  occ. eigenvalues --  -10.27098 -10.27072 -10.26997 -10.26678 -10.26629
 Alpha  occ. eigenvalues --  -10.26449 -10.26358 -10.26330 -10.26274 -10.26188
 Alpha  occ. eigenvalues --  -10.26173 -10.26054 -10.25882 -10.25850 -10.25576
 Alpha  occ. eigenvalues --  -10.25515 -10.25268 -10.25228 -10.25227 -10.25195
 Alpha  occ. eigenvalues --  -10.25089 -10.25071 -10.24838 -10.24836 -10.24824
 Alpha  occ. eigenvalues --  -10.24790 -10.24761 -10.24424 -10.24156 -10.24133
 Alpha  occ. eigenvalues --  -10.24050 -10.24003 -10.23957 -10.23748 -10.23644
 Alpha  occ. eigenvalues --  -10.23610 -10.23568 -10.23556 -10.23551 -10.23108
 Alpha  occ. eigenvalues --  -10.23106 -10.22884 -10.22767 -10.22684 -10.22590
 Alpha  occ. eigenvalues --  -10.22483  -3.15729  -3.14699  -1.88545  -1.88136
 Alpha  occ. eigenvalues --   -1.87917  -1.87533  -1.87059  -1.86921  -1.10881
 Alpha  occ. eigenvalues --   -1.10828  -1.06235  -1.03627  -1.02703  -1.02553
 Alpha  occ. eigenvalues --   -1.02171  -1.01948  -0.99626  -0.99144  -0.98536
 Alpha  occ. eigenvalues --   -0.98229  -0.97548  -0.97336  -0.97153  -0.96222
 Alpha  occ. eigenvalues --   -0.87266  -0.85651  -0.84058  -0.83760  -0.83356
 Alpha  occ. eigenvalues --   -0.83161  -0.82894  -0.82483  -0.82466  -0.82123
 Alpha  occ. eigenvalues --   -0.81559  -0.81477  -0.79911  -0.79783  -0.79034
 Alpha  occ. eigenvalues --   -0.78651  -0.78454  -0.78117  -0.77252  -0.76848
 Alpha  occ. eigenvalues --   -0.76832  -0.76505  -0.75714  -0.75019  -0.74763
 Alpha  occ. eigenvalues --   -0.74588  -0.72878  -0.72339  -0.71834  -0.71736
 Alpha  occ. eigenvalues --   -0.71286  -0.70888  -0.70678  -0.69789  -0.69741
 Alpha  occ. eigenvalues --   -0.69205  -0.67872  -0.66566  -0.66462  -0.65933
 Alpha  occ. eigenvalues --   -0.64006  -0.63301  -0.63104  -0.62785  -0.62309
 Alpha  occ. eigenvalues --   -0.61835  -0.61407  -0.60684  -0.60445  -0.60177
 Alpha  occ. eigenvalues --   -0.59491  -0.59394  -0.59326  -0.59140  -0.58977
 Alpha  occ. eigenvalues --   -0.58785  -0.57865  -0.56662  -0.55433  -0.54611
 Alpha  occ. eigenvalues --   -0.54372  -0.53662  -0.53613  -0.53195  -0.52989
 Alpha  occ. eigenvalues --   -0.52806  -0.52695  -0.52005  -0.51723  -0.51526
 Alpha  occ. eigenvalues --   -0.51049  -0.50480  -0.50289  -0.50014  -0.50003
 Alpha  occ. eigenvalues --   -0.49634  -0.49319  -0.48993  -0.48884  -0.48550
 Alpha  occ. eigenvalues --   -0.48449  -0.48081  -0.48076  -0.48033  -0.47799
 Alpha  occ. eigenvalues --   -0.47565  -0.47523  -0.47313  -0.47152  -0.47130
 Alpha  occ. eigenvalues --   -0.47008  -0.46763  -0.46457  -0.46130  -0.45746
 Alpha  occ. eigenvalues --   -0.45581  -0.45578  -0.45336  -0.45184  -0.45023
 Alpha  occ. eigenvalues --   -0.44877  -0.44865  -0.44538  -0.44500  -0.44217
 Alpha  occ. eigenvalues --   -0.43982  -0.43905  -0.43806  -0.43695  -0.43459
 Alpha  occ. eigenvalues --   -0.43398  -0.43306  -0.43282  -0.43046  -0.42809
 Alpha  occ. eigenvalues --   -0.42547  -0.42460  -0.42421  -0.42132  -0.42116
 Alpha  occ. eigenvalues --   -0.41932  -0.41582  -0.41404  -0.41320  -0.41190
 Alpha  occ. eigenvalues --   -0.41032  -0.40970  -0.40895  -0.40705  -0.40523
 Alpha  occ. eigenvalues --   -0.40486  -0.40140  -0.40098  -0.39865  -0.39616
 Alpha  occ. eigenvalues --   -0.39467  -0.39355  -0.39245  -0.39181  -0.39065
 Alpha  occ. eigenvalues --   -0.38753  -0.38593  -0.38530  -0.38457  -0.38254
 Alpha  occ. eigenvalues --   -0.37790  -0.37762  -0.37638  -0.37590  -0.37506
 Alpha  occ. eigenvalues --   -0.37238  -0.37225  -0.36880  -0.36840  -0.36802
 Alpha  occ. eigenvalues --   -0.36777  -0.36386  -0.36373  -0.36018  -0.35857
 Alpha  occ. eigenvalues --   -0.35735  -0.35652  -0.35601  -0.35085  -0.35020
 Alpha  occ. eigenvalues --   -0.34777  -0.34672  -0.34048  -0.33718  -0.33626
 Alpha  occ. eigenvalues --   -0.33439  -0.33071  -0.32934  -0.32915  -0.32242
 Alpha  occ. eigenvalues --   -0.32067  -0.31947  -0.31873  -0.31609  -0.31335
 Alpha  occ. eigenvalues --   -0.31138  -0.29902  -0.29813  -0.29661  -0.29326
 Alpha  occ. eigenvalues --   -0.29258  -0.28952  -0.28341  -0.27178  -0.27080
 Alpha  occ. eigenvalues --   -0.26418  -0.25967  -0.25929  -0.25890  -0.25453
 Alpha  occ. eigenvalues --   -0.25080  -0.25052  -0.24868  -0.21836  -0.21031
 Alpha  occ. eigenvalues --   -0.19350  -0.17897
 Alpha virt. eigenvalues --   -0.11970  -0.10234  -0.05852  -0.05462  -0.04224
 Alpha virt. eigenvalues --   -0.04211  -0.02393  -0.02071  -0.01946  -0.00876
 Alpha virt. eigenvalues --    0.00451   0.00500   0.00809   0.01053   0.01384

 Mulliken charges:
               1
     1  Mg  12.000000
     2  C    6.000000
     3  C    6.000000
     4  C    6.000000
     5  C    6.000000
     6  N    7.000000
     7  C    6.000000
     8  C    6.000000
     9  C    6.000000
    10  C    6.000000
    11  C    6.000000
    12  C    6.000000
    13  C    6.000000
    14  H    1.000000
    15  N    7.000000
    16  C    6.000000
    17  C    6.000000
    18  C    6.000000
    19  C    6.000000
    20  C    6.000000
    21  C    6.000000
    22  O    8.000000
    23  C    6.000000
    24  N    7.000000
    25  C    6.000000
    26  C    6.000000
    27  C    6.000000
    28  C    6.000000
    29  C    6.000000
    30  C    6.000000
    31  C    6.000000
    32  N    7.000000
    33  C    6.000000
    34  C    6.000000
    35  C    6.000000
    36  C    6.000000
    37  C    6.000000
    38  C    6.000000
    39  O    8.000000
    40  C    6.000000
    41  C    6.000000
    42  O    8.000000
    43  O    8.000000
    44  C    6.000000
    45  H    1.000000
    46  H    1.000000
    47  H    1.000000
    48  H    1.000000
    49  H    1.000000
    50  H    1.000000
    51  H    1.000000
    52  H    1.000000
    53  H    1.000000
    54  H    1.000000
    55  H    1.000000
    56  H    1.000000
    57  H    1.000000
    58  H    1.000000
    59  H    1.000000
    60  H    1.000000
    61  H    1.000000
    62  H    1.000000
    63  H    1.000000
    64  H    1.000000
    65  H    1.000000
    66  H    1.000000
    67  H    1.000000
    68  H    1.000000
    69  H    1.000000
    70  H    1.000000
    71  H    1.000000
    72  H    1.000000
    73  H    1.000000
    74  H    1.000000
    75  H    1.000000
    76  H    1.000000
    77  H    1.000000
    78  H    1.000000
    79  H    1.000000
    80  Mg  12.000000
    81  C    6.000000
    82  C    6.000000
    83  C    6.000000
    84  C    6.000000
    85  N    7.000000
    86  C    6.000000
    87  C    6.000000
    88  C    6.000000
    89  C    6.000000
    90  C    6.000000
    91  C    6.000000
    92  C    6.000000
    93  H    1.000000
    94  N    7.000000
    95  C    6.000000
    96  C    6.000000
    97  C    6.000000
    98  C    6.000000
    99  C    6.000000
   100  C    6.000000
   101  O    8.000000
   102  C    6.000000
   103  N    7.000000
   104  C    6.000000
   105  C    6.000000
   106  C    6.000000
   107  C    6.000000
   108  C    6.000000
   109  C    6.000000
   110  C    6.000000
   111  N    7.000000
   112  C    6.000000
   113  C    6.000000
   114  C    6.000000
   115  C    6.000000
   116  C    6.000000
   117  C    6.000000
   118  O    8.000000
   119  C    6.000000
   120  C    6.000000
   121  O    8.000000
   122  O    8.000000
   123  C    6.000000
   124  H    1.000000
   125  H    1.000000
   126  H    1.000000
   127  H    1.000000
   128  H    1.000000
   129  H    1.000000
   130  H    1.000000
   131  H    1.000000
   132  H    1.000000
   133  H    1.000000
   134  H    1.000000
   135  H    1.000000
   136  H    1.000000
   137  H    1.000000
   138  H    1.000000
   139  H    1.000000
   140  H    1.000000
   141  H    1.000000
   142  H    1.000000
   143  H    1.000000
   144  H    1.000000
   145  H    1.000000
   146  H    1.000000
   147  H    1.000000
   148  H    1.000000
   149  H    1.000000
   150  H    1.000000
   151  H    1.000000
   152  H    1.000000
   153  H    1.000000
   154  H    1.000000
   155  H    1.000000
   156  H    1.000000
   157  H    1.000000
   158  H    1.000000
 Sum of Mulliken charges = 624.00000

 Dipole moment (field-independent basis, Debye):
    X=             -0.0000    Y=             -0.0000    Z=              0.0000  Tot=              0.0000
 Quadrupole moment (field-independent basis, Debye-Ang):
   XX=              0.0000   YY=             -0.0000   ZZ=              0.0000
   XY=              0.0000   XZ=             -0.0000   YZ=             -0.0000

 Normal termination of Gaussian 16 at Thu Oct 14 05:43:19 2021.
