 Gaussian 16, Revision A.03,
 Gaussian 16:  ES64L-G16RevA.03 25-Dec-2016

 --------------------------------------------------------
 #p PBE1PBE/Def2SVP td=(nstates=5) density=(transition=1)
 --------------------------------------------------------

 --------------------------------
 TDDFT excited states in gaussian
 --------------------------------
 Symbolic Z-matrix:
 Charge =  0 Multiplicity = 1

                         Standard orientation:
 ---------------------------------------------------------------------
 Center     Atomic      Atomic             Coordinates (Angstroms)
 Number     Number       Type             X           Y           Z
 ---------------------------------------------------------------------
      1         12           0      -23.173256    0.633401    0.370066
      2          6           0      -22.358655   -2.465392   -1.032377
      3          6           0      -22.390409    2.013748   -2.715349
      4          6           0      -23.509428    3.548175    1.770906
      5          6           0      -23.685691   -1.010074    3.465236
      6          7           0      -22.052709   -0.110252   -1.569576
      7          6           0      -22.000171   -1.398507   -1.923215
      8          6           0      -21.540741   -1.461990   -3.341504
      9          6           0      -21.140283   -0.010009   -3.700607
     10          6           0      -21.924248    0.712346   -2.622920
     11          6           0      -19.663082    0.385134   -3.741873
     12          6           0      -22.652968   -2.009550   -4.291236
     13          6           0      -22.296758   -3.152860   -5.295496
     14          1           0      -20.841386   -3.252563   -5.849890
     15          7           0      -23.118775    2.558826   -0.425878
     16          6           0      -22.958773    2.860865   -1.771737
     17          6           0      -23.130156    4.272006   -1.893750
     18          6           0      -23.336431    4.793052   -0.553785
     19          6           0      -23.344615    3.648936    0.345559
     20          6           0      -22.972434    5.064804   -3.209688
     21          6           0      -23.461837    6.264917   -0.065512
     22          8           0      -23.611409    6.587884    1.070153
     23          6           0      -23.451930    7.326290   -1.147997
     24          7           0      -23.554703    1.146292    2.329699
     25          6           0      -23.584606    2.453019    2.674593
     26          6           0      -23.861303    2.700774    4.183112
     27          6           0      -24.181980    1.215558    4.648108
     28          6           0      -23.823685    0.374335    3.428760
     29          6           0      -22.573736    3.415094    4.896241
     30          6           0      -25.617800    1.036646    5.233953
     31          6           0      -26.695895    0.488721    4.316109
     32          7           0      -23.103716   -1.348046    1.142378
     33          6           0      -23.419255   -1.856603    2.373378
     34          6           0      -23.268596   -3.352964    2.313983
     35          6           0      -22.855604   -3.611994    0.987502
     36          6           0      -22.720593   -2.362457    0.296531
     37          6           0      -23.343345   -4.332819    3.453322
     38          6           0      -22.481784   -4.661016    0.042054
     39          8           0      -22.420992   -5.877426    0.242618
     40          6           0      -22.315909   -3.961909   -1.303974
     41          6           0      -20.988690   -4.418651   -1.838339
     42          8           0      -19.904696   -3.999930   -1.475516
     43          8           0      -21.249890   -5.464536   -2.605105
     44          6           0      -20.157678   -6.367602   -2.932331
     45          1           0      -22.010593    2.467273   -3.632722
     46          1           0      -23.803450    4.498890    2.219818
     47          1           0      -23.858857   -1.517299    4.416978
     48          1           0      -20.690860   -2.141164   -3.400822
     49          1           0      -21.490795    0.153380   -4.719781
     50          1           0      -18.943052   -0.411363   -3.553285
     51          1           0      -19.466718    1.184190   -3.026448
     52          1           0      -19.485476    0.776102   -4.743478
     53          1           0      -23.186629   -1.228295   -4.832080
     54          1           0      -23.347976   -2.384869   -3.540231
     55          1           0      -22.972197   -2.971163   -6.132432
     56          1           0      -22.541664   -4.108745   -4.833160
     57          1           0      -22.271399    5.895767   -3.130642
     58          1           0      -23.890216    5.578844   -3.495663
     59          1           0      -22.686158    4.459165   -4.070558
     60          1           0      -24.167043    7.123690   -1.945553
     61          1           0      -22.429448    7.422991   -1.513285
     62          1           0      -23.607879    8.313039   -0.712023
     63          1           0      -24.720762    3.349942    4.349583
     64          1           0      -23.563616    0.887041    5.483334
     65          1           0      -22.142046    2.630711    5.518067
     66          1           0      -22.848369    4.183366    5.619378
     67          1           0      -21.784995    3.706390    4.201683
     68          1           0      -25.943882    2.057479    5.433615
     69          1           0      -25.619732    0.486940    6.174965
     70          1           0      -26.538946    1.023750    3.378720
     71          1           0      -27.597975    0.787142    4.849728
     72          1           0      -26.692314   -0.557621    4.011812
     73          1           0      -23.453893   -3.948733    4.467448
     74          1           0      -22.433940   -4.933711    3.467917
     75          1           0      -24.142902   -5.020912    3.180661
     76          1           0      -22.997910   -4.302734   -2.083206
     77          1           0      -19.179434   -6.231370   -2.472378
     78          1           0      -19.996133   -6.167120   -3.991932
     79          1           0      -20.576285   -7.361495   -3.091076
     80         12           0       23.075066    0.405343   -0.444974
     81          6           0       21.429247   -2.389638    0.578339
     82          6           0       19.946143    1.879407   -1.183530
     83          6           0       24.576106    3.388476   -0.400416
     84          6           0       26.158335   -0.967581    0.839999
     85          7           0       20.997258   -0.227307   -0.326490
     86          6           0       20.509656   -1.343649    0.103331
     87          6           0       18.982562   -1.518876   -0.216687
     88          6           0       18.601283   -0.237214   -1.051037
     89          6           0       19.939168    0.566386   -0.904227
     90          6           0       18.013336   -0.481002   -2.441620
     91          6           0       18.090840   -1.778299    1.137728
     92          6           0       18.642724   -1.311980    2.475163
     93          1           0       17.714531   -1.118014    3.674206
     94          7           0       22.343697    2.360924   -0.743495
     95          6           0       21.076903    2.759120   -1.097136
     96          6           0       21.031443    4.153423   -1.193283
     97          6           0       22.364172    4.655893   -0.930977
     98          6           0       23.177438    3.448196   -0.630453
     99          6           0       19.784871    4.859226   -1.694591
    100          6           0       22.747813    6.146440   -0.961083
    101          8           0       21.847789    6.974436   -1.227127
    102          6           0       24.054947    6.679655   -0.707061
    103          7           0       25.106358    1.161130    0.307388
    104          6           0       25.441829    2.379948   -0.007561
    105          6           0       26.952413    2.672910    0.218459
    106          6           0       27.481394    1.264510    0.567119
    107          6           0       26.192051    0.347556    0.573086
    108          6           0       27.654438    3.242786   -0.960995
    109          6           0       28.301656    1.231273    1.941720
    110          6           0       29.859080    0.969690    1.818789
    111          7           0       23.767559   -1.337943    0.410102
    112          6           0       25.014688   -1.798110    0.850908
    113          6           0       24.862932   -3.210418    1.320733
    114          6           0       23.478907   -3.426015    1.258334
    115          6           0       22.841823   -2.262060    0.734671
    116          6           0       25.875324   -4.131252    1.801613
    117          6           0       22.529303   -4.388852    1.583076
    118          8           0       22.594966   -5.537809    2.044189
    119          6           0       21.175555   -3.813614    1.078145
    120          6           0       20.567823   -4.823466    0.075778
    121          8           0       19.456370   -5.323676    0.107536
    122          8           0       21.443254   -5.138405   -0.940950
    123          6           0       21.001055   -6.118669   -1.939844
    124          1           0       18.934508    2.261019   -1.335534
    125          1           0       25.155712    4.305203   -0.525773
    126          1           0       27.123103   -1.427366    1.063727
    127          1           0       18.917301   -2.328809   -0.943710
    128          1           0       17.882482    0.394585   -0.528330
    129          1           0       18.699493   -0.105142   -3.200329
    130          1           0       17.066697    0.040868   -2.586419
    131          1           0       17.750985   -1.514060   -2.669973
    132          1           0       17.924947   -2.854108    1.076304
    133          1           0       17.125403   -1.272466    1.162796
    134          1           0       19.113226   -0.361487    2.224942
    135          1           0       19.449404   -2.007670    2.706911
    136          1           0       19.844783    5.515429   -2.563260
    137          1           0       19.321372    5.380878   -0.856917
    138          1           0       19.042579    4.110101   -1.969445
    139          1           0       24.864873    6.380994   -1.372348
    140          1           0       24.442046    6.298962    0.237565
    141          1           0       24.067664    7.760352   -0.568992
    142          1           0       27.236686    3.380021    0.997633
    143          1           0       28.075947    0.818400   -0.230213
    144          1           0       27.874957    4.308181   -0.896475
    145          1           0       26.998762    3.248745   -1.832451
    146          1           0       28.579631    2.697712   -1.147400
    147          1           0       27.942415    0.382822    2.525691
    148          1           0       28.278159    2.164364    2.503022
    149          1           0       30.398868    1.678070    2.445968
    150          1           0       30.160939    1.226154    0.803224
    151          1           0       30.005427   -0.032517    2.222033
    152          1           0       26.776320   -3.848022    1.256971
    153          1           0       25.609060   -5.159403    1.553828
    154          1           0       25.880881   -4.036748    2.887091
    155          1           0       20.375452   -3.889487    1.814113
    156          1           0       21.885020   -6.575259   -2.385482
    157          1           0       20.439361   -5.758183   -2.801463
    158          1           0       20.317167   -6.871001   -1.545816
 ---------------------------------------------------------------------

 SCF Done:  E(RPBE1PBE) =  -4067.34283402     A.U. after   19 cycles

 Excitation energies and oscillator strengths:

 Excited State   1:      Singlet-A      1.7601 eV  704.42 nm  f=0.0000  <S**2>=0.000
     312 -> 313        0.70711
 This state for optimization and/or second-order correction.
 Total Energy, E(TD-HF/TD-DFT) =  -4067.27815181
 Copying the excited state density for this state as the 1-particle RhoCI density.

 Excited State   2:      Singlet-A      1.8537 eV  668.86 nm  f=0.4045  <S**2>=0.000
     309 -> 315        0.15878
     311 -> 313        0.69700
     311 <- 313       -0.12235

 Excited State   3:      Singlet-A      1.8764 eV  660.75 nm  f=0.3991  <S**2>=0.000
     310 -> 316       -0.18224
     312 -> 314        0.69063
     312 <- 314       -0.10327

 Excited State   4:      Singlet-A      2.1941 eV  565.07 nm  f=0.0000  <S**2>=0.000
     311 -> 314        0.70711

 Excited State   5:      Singlet-A      2.2077 eV  561.59 nm  f=0.0948  <S**2>=0.000
     310 -> 314        0.65479
     312 -> 316        0.25273

 The electronic state is 1-A.
 Alpha  occ. eigenvalues --  -46.93708 -46.92164 -19.26792 -19.25476 -19.20305
 Alpha  occ. eigenvalues --  -19.19737 -19.19375 -19.19013 -19.18971 -19.17859
 Alpha  occ. eigenvalues --  -14.42693 -14.41400 -14.41373 -14.40968 -14.40107
 Alpha  occ. eigenvalues --  -14.39598 -14.38863 -14.38517 -10.36728 -10.36013
 Alpha  occ. eigenvalues --  -10.32381 -10.31779 -10.31643 -10.31588 -10.30545
 Alpha  occ. eigenvalues --  -10.29253 -10.29196 -10.28861 -10.28822 -10.28680
 Alpha  occ. eigenvalues --  -10.28679 -10.28664 -10.28652 -10.28589 -10.28567
 Alpha  occ. eigenvalues --  -10.28091 -10.27832 -10.27601 -10.27436 -10.27126
 Alpha  occ. eigenvalues --  -10.27064 -10.27040 -10.26965 -10.26934 -10.26929
 Alpha  occ. eigenvalues --  -10.26814 -10.26741 -10.26323 -10.26299 -10.26297
 Alpha  occ. eigenvalues --  -10.26156 -10.25983 -10.25854 -10.25844 -10.25739
 Alpha  occ. eigenvalues --  -10.25545 -10.25388 -10.25056 -10.25040 -10.24866
 Alpha  occ. eigenvalues --  -10.24823 -10.24806 -10.24805 -10.24792 -10.24758
 Alpha  occ. eigenvalues --  -10.24699 -10.24388 -10.24310 -10.24302 -10.24273
 Alpha  occ. eigenvalues --  -10.24218 -10.24121 -10.23935 -10.23926 -10.23759
 Alpha  occ. eigenvalues --  -10.23739 -10.23579 -10.23522 -10.23519 -10.23273
 Alpha  occ. eigenvalues --  -10.23079 -10.23073 -10.22884 -10.22621 -10.22559
 Alpha  occ. eigenvalues --  -10.22444  -3.15697  -3.14204  -1.88513  -1.88104
 Alpha  occ. eigenvalues --   -1.87885  -1.87052  -1.86613  -1.86386  -1.13008
 Alpha  occ. eigenvalues --   -1.10846  -1.06278  -1.04103  -1.03592  -1.03336
 Alpha  occ. eigenvalues --   -1.02524  -1.02137  -0.99593  -0.99584  -0.99112
 Alpha  occ. eigenvalues --   -0.98381  -0.98197  -0.97163  -0.97121  -0.96672
 Alpha  occ. eigenvalues --   -0.87554  -0.87232  -0.84026  -0.83729  -0.83324
 Alpha  occ. eigenvalues --   -0.83005  -0.82846  -0.82450  -0.82391  -0.82089
 Alpha  occ. eigenvalues --   -0.81409  -0.80416  -0.79843  -0.79751  -0.79002
 Alpha  occ. eigenvalues --   -0.78731  -0.78423  -0.77973  -0.77218  -0.76863
 Alpha  occ. eigenvalues --   -0.76817  -0.75726  -0.75681  -0.75097  -0.74555
 Alpha  occ. eigenvalues --   -0.74286  -0.72846  -0.72223  -0.71704  -0.71595
 Alpha  occ. eigenvalues --   -0.71318  -0.71252  -0.70646  -0.70581  -0.69710
 Alpha  occ. eigenvalues --   -0.69488  -0.67839  -0.67068  -0.66430  -0.66175
 Alpha  occ. eigenvalues --   -0.63973  -0.63854  -0.63297  -0.63270  -0.62752
 Alpha  occ. eigenvalues --   -0.62365  -0.61375  -0.60607  -0.60414  -0.60144
 Alpha  occ. eigenvalues --   -0.59708  -0.59432  -0.59361  -0.59160  -0.59107
 Alpha  occ. eigenvalues --   -0.58858  -0.57831  -0.57287  -0.55401  -0.54579
 Alpha  occ. eigenvalues --   -0.54390  -0.54179  -0.53749  -0.53581  -0.53163
 Alpha  occ. eigenvalues --   -0.53089  -0.52663  -0.52363  -0.51853  -0.51690
 Alpha  occ. eigenvalues --   -0.51377  -0.51017  -0.50565  -0.50257  -0.49980
 Alpha  occ. eigenvalues --   -0.49471  -0.49366  -0.49285  -0.49191  -0.48961
 Alpha  occ. eigenvalues --   -0.48417  -0.48138  -0.48044  -0.47822  -0.47767
 Alpha  occ. eigenvalues --   -0.47490  -0.47439  -0.47191  -0.47118  -0.46729
 Alpha  occ. eigenvalues --   -0.46505  -0.46264  -0.46098  -0.45900  -0.45732
 Alpha  occ. eigenvalues --   -0.45713  -0.45548  -0.45481  -0.45305  -0.44844
 Alpha  occ. eigenvalues --   -0.44642  -0.44505  -0.44269  -0.44185  -0.43948
 Alpha  occ. eigenvalues --   -0.43873  -0.43768  -0.43663  -0.43455  -0.43427
 Alpha  occ. eigenvalues --   -0.43275  -0.43259  -0.43058  -0.43014  -0.42807
 Alpha  occ. eigenvalues --   -0.42641  -0.42388  -0.42101  -0.41913  -0.41899
 Alpha  occ. eigenvalues --   -0.41550  -0.41539  -0.41371  -0.41125  -0.41001
 Alpha  occ. eigenvalues --   -0.40838  -0.40688  -0.40672  -0.40604  -0.40491
 Alpha  occ. eigenvalues --   -0.40365  -0.40250  -0.40066  -0.39921  -0.39832
 Alpha  occ. eigenvalues --   -0.39673  -0.39583  -0.39553  -0.39322  -0.39167
 Alpha  occ. eigenvalues --   -0.39148  -0.38560  -0.38496  -0.38465  -0.38115
 Alpha  occ. eigenvalues --   -0.38027  -0.37912  -0.37695  -0.37607  -0.37532
 Alpha  occ. eigenvalues --   -0.37474  -0.37192  -0.37010  -0.36847  -0.36744
 Alpha  occ. eigenvalues --   -0.36667  -0.36496  -0.36354  -0.36082  -0.35979
 Alpha  occ. eigenvalues --   -0.35824  -0.35704  -0.35569  -0.35547  -0.35128
 Alpha  occ. eigenvalues --   -0.34990  -0.34746  -0.34526  -0.34261  -0.34017
 Alpha  occ. eigenvalues --   -0.33592  -0.33259  -0.33038  -0.32883  -0.32164
 Alpha  occ. eigenvalues --   -0.32118  -0.31838  -0.31713  -0.31576  -0.31302
 Alpha  occ. eigenvalues --   -0.31301  -0.31175  -0.29780  -0.29629  -0.29434
 Alpha  occ. eigenvalues --   -0.29292  -0.29085  -0.28515  -0.27146  -0.26468
 Alpha  occ. eigenvalues --   -0.26385  -0.26001  -0.25856  -0.25394  -0.25357
 Alpha  occ. eigenvalues --   -0.25050  -0.24837  -0.24723  -0.21803  -0.20703
 Alpha  occ. eigenvalues --   -0.19318  -0.18692
 Alpha virt. eigenvalues --   -0.11937  -0.10967  -0.05430  -0.04994  -0.04191
 Alpha virt. eigenvalues --   -0.03929  -0.02363  -0.02041  -0.01602   0.00023
 Alpha virt. eigenvalues --    0.00485   0.00842   0.01097   0.01234   0.01421

 Mulliken charges:
               1
     1  Mg  12.000000
     2  C    6.000000
     3  C    6.000000
     4  C    6.000000
     5  C    6.000000
     6  N    7.000000
     7  C    6.000000
     8  C    6.000000
     9  C    6.000000
    10  C    6.000000
    11  C    6.000000
    12  C    6.000000
    13  C    6.000000
    14  H    1.000000
    15  N    7.000000
    16  C    6.000000
    17  C    6.000000
    18  C    6.000000
    19  C    6.000000
    20  C    6.000000
    21  C    6.000000
    22  O    8.000000
    23  C    6.000000
    24  N    7.000000
    25  C    6.000000
    26  C    6.000000
    27  C    6.000000
    28  C    6.000000
    29  C    6.000000
    30  C    6.000000
    31  C    6.000000
    32  N    7.000000
    33  C    6.000000
    34  C    6.000000
    35  C    6.000000
    36  C    6.000000
    37  C    6.000000
    38  C    6.000000
    39  O    8.000000
    40  C    6.000000
    41  C    6.000000
    42  O    8.000000
    43  O    8.000000
    44  C    6.000000
    45  H    1.000000
    46  H    1.000000
    47  H    1.000000
    48  H    1.000000
    49  H    1.000000
    50  H    1.000000
    51  H    1.000000
    52  H    1.000000
    53  H    1.000000
    54  H    1.000000
    55  H    1.000000
    56  H    1.000000
    57  H    1.000000
    58  H    1.000000
    59  H    1.000000
    60  H    1.000000
    61  H    1.000000
    62  H    1.000000
    63  H    1.000000
    64  H    1.000000
    65  H    1.000000
    66  H    1.000000
    67  H    1.000000
    68  H    1.000000
    69  H    1.000000
    70  H    1.000000
    71  H    1.000000
    72  H    1.000000
    73  H    1.000000
    74  H    1.000000
    75  H    1.000000
    76  H    1.000000
    77  H    1.000000
    78  H    1.000000
    79  H    1.000000
    80  Mg  12.000000
    81  C    6.000000
    82  C    6.000000
    83  C    6.000000
    84  C    6.000000
    85  N    7.000000
    86  C    6.000000
    87  C    6.000000
    88  C    6.000000
    89  C    6.000000
    90  C    6.000000
    91  C    6.000000
    92  C    6.000000
    93  H    1.000000
    94  N    7.000000
    95  C    6.000000
    96  C    6.000000
    97  C    6.000000
    98  C    6.000000
    99  C    6.000000
   100  C    6.000000
   101  O    8.000000
   102  C    6.000000
   103  N    7.000000
   104  C    6.000000
   105  C    6.000000
   106  C    6.000000
   107  C    6.000000
   108  C    6.000000
   109  C    6.000000
   110  C    6.000000
   111  N    7.000000
   112  C    6.000000
   113  C    6.000000
   114  C    6.000000
   115  C    6.000000
   116  C    6.000000
   117  C    6.000000
   118  O    8.000000
   119  C    6.000000
   120  C    6.000000
   121  O    8.000000
   122  O    8.000000
   123  C    6.000000
   124  H    1.000000
   125  H    1.000000
   126  H    1.000000
   127  H    1.000000
   128  H    1.000000
   129  H    1.000000
   130  H    1.000000
   131  H    1.000000
   132  H    1.000000
   133  H    1.000000
   134  H    1.000000
   135  H    1.000000
   136  H    1.000000
   137  H    1.000000
   138  H    1.000000
   139  H    1.000000
   140  H    1.000000
   141  H    1.000000
   142  H    1.000000
   143  H    1.000000
   144  H    1.000000
   145  H    1.000000
   146  H    1.000000
   147  H    1.000000
   148  H    1.000000
   149  H    1.000000
   150  H    1.000000
   151  H    1.000000
   152  H    1.000000
   153  H    1.000000
   154  H    1.000000
   155  H    1.000000
   156  H    1.000000
   157  H    1.000000
   158  H    1.000000
 Sum of Mulliken charges = 624.00000

 Dipole moment (field-independent basis, Debye):
    X=             -0.0000    Y=              0.0000    Z=             -0.0000  Tot=              0.0000
 Quadrupole moment (field-independent basis, Debye-Ang):
   XX=             -0.0000   YY=              0.0000   ZZ=              0.0000
   XY=              0.0000   XZ=             -0.0000   YZ=              0.0000

 Normal termination of Gaussian 16 at Fri Oct 15 17:55:43 2021.
