 Gaussian 16, Revision A.03,
 Gaussian 16:  ES64L-G16RevA.03 25-Dec-2016

 --------------------------------------------------------
 #p PBE1PBE/Def2SVP td=(nstates=5) density=(transition=1)
 --------------------------------------------------------

 --------------------------------
 TDDFT excited states in gaussian
 --------------------------------
 Symbolic Z-matrix:
 Charge =  0 Multiplicity = 1

                         Standard orientation:
 ---------------------------------------------------------------------
 Center     Atomic      Atomic             Coordinates (Angstroms)
 Number     Number       Type             X           Y           Z
 ---------------------------------------------------------------------
      1         12           0      -17.248309   -0.760069    0.278779
      2          6           0      -17.227630    2.593043   -0.737913
      3          6           0      -15.471999    0.218736    3.180960
      4          6           0      -16.946104   -4.035070    1.122888
      5          6           0      -18.302816   -1.642737   -2.888228
      6          7           0      -16.623645    1.182462    1.143815
      7          6           0      -16.906843    2.433077    0.587256
      8          6           0      -16.736724    3.538033    1.691248
      9          6           0      -16.104635    2.757073    2.849219
     10          6           0      -16.010149    1.273567    2.348486
     11          6           0      -14.707703    3.339003    3.195877
     12          6           0      -18.097688    4.167009    1.963583
     13          6           0      -18.135035    5.605547    2.452872
     14          1           0      -16.817610    6.244266    2.947667
     15          7           0      -16.361522   -1.811226    1.910380
     16          6           0      -15.655647   -1.227881    2.979734
     17          6           0      -15.154008   -2.251625    3.879571
     18          6           0      -15.609834   -3.532404    3.374142
     19          6           0      -16.321662   -3.159217    2.077204
     20          6           0      -14.457692   -1.963038    5.215648
     21          6           0      -15.453285   -4.933562    3.933148
     22          8           0      -15.940135   -5.890688    3.346132
     23          6           0      -14.894129   -5.095813    5.294317
     24          7           0      -17.656808   -2.579641   -0.754869
     25          6           0      -17.533198   -3.793046   -0.148421
     26          6           0      -18.126385   -4.897416   -1.061944
     27          6           0      -18.632413   -4.129634   -2.344285
     28          6           0      -18.291594   -2.664196   -1.969070
     29          6           0      -17.066909   -5.974074   -1.357640
     30          6           0      -20.152581   -4.260447   -2.627287
     31          6           0      -20.368767   -5.277441   -3.743665
     32          7           0      -17.601439    0.186590   -1.553373
     33          6           0      -17.953033   -0.265778   -2.781269
     34          6           0      -17.839107    0.874981   -3.722255
     35          6           0      -17.670359    2.006750   -2.979574
     36          6           0      -17.485136    1.518573   -1.660872
     37          6           0      -18.106034    0.707353   -5.208655
     38          6           0      -17.590153    3.473551   -2.981968
     39          8           0      -17.644769    4.250124   -3.927903
     40          6           0      -17.393188    3.866946   -1.530687
     41          6           0      -16.240507    4.781502   -1.524442
     42          8           0      -15.027782    4.541525   -1.598235
     43          8           0      -16.735465    6.069160   -1.492730
     44          6           0      -15.765150    7.140740   -1.550478
     45          1           0      -14.998486    0.568669    4.100382
     46          1           0      -16.901878   -5.051702    1.519153
     47          1           0      -18.549820   -2.011812   -3.885915
     48          1           0      -16.032805    4.205074    1.192130
     49          1           0      -16.707345    2.989490    3.727131
     50          1           0      -13.866226    2.690209    2.952213
     51          1           0      -14.633609    3.314064    4.282700
     52          1           0      -14.526320    4.295294    2.705639
     53          1           0      -18.580543    3.469043    2.648214
     54          1           0      -18.709307    4.081705    1.066166
     55          1           0      -18.896774    5.688820    3.226884
     56          1           0      -18.513498    6.117476    1.567417
     57          1           0      -14.221309   -0.910521    5.373102
     58          1           0      -13.521204   -2.519435    5.273084
     59          1           0      -15.063333   -2.380877    6.018964
     60          1           0      -15.583606   -4.644346    6.008124
     61          1           0      -13.846448   -4.796860    5.326500
     62          1           0      -14.878738   -6.140941    5.603619
     63          1           0      -18.921374   -5.391536   -0.503898
     64          1           0      -17.975284   -4.461230   -3.149293
     65          1           0      -16.840433   -6.160928   -2.406952
     66          1           0      -17.596211   -6.844253   -0.969991
     67          1           0      -16.080878   -5.767012   -0.942693
     68          1           0      -20.522527   -3.361630   -3.120933
     69          1           0      -20.740107   -4.541346   -1.753004
     70          1           0      -21.166632   -5.912805   -3.359490
     71          1           0      -19.548952   -5.983974   -3.871061
     72          1           0      -20.643554   -4.859060   -4.712338
     73          1           0      -18.153773   -0.323491   -5.560586
     74          1           0      -17.376302    1.228616   -5.827023
     75          1           0      -19.127142    1.034100   -5.408450
     76          1           0      -18.306906    4.355931   -1.194444
     77          1           0      -15.109858    6.945281   -2.399680
     78          1           0      -15.153334    7.223467   -0.651913
     79          1           0      -16.318376    7.988224   -1.953789
     80         12           0       17.371002   -0.542027   -0.134787
     81          6           0       15.066637    1.996516    0.403802
     82          6           0       19.899776    1.670683    0.153899
     83          6           0       19.484657   -3.039599   -0.841520
     84          6           0       14.673594   -2.730627   -0.577498
     85          7           0       17.394077    1.606928    0.273800
     86          6           0       16.394874    2.411350    0.547204
     87          6           0       17.009952    3.850901    0.867894
     88          6           0       18.263975    3.738823    0.026870
     89          6           0       18.596244    2.220342    0.178981
     90          6           0       17.992191    4.237367   -1.408852
     91          6           0       17.078750    4.094444    2.436719
     92          6           0       17.190460    5.565342    2.849454
     93          1           0       17.462584    6.607520    1.778474
     94          7           0       19.387665   -0.705025   -0.141833
     95          6           0       20.276007    0.343528    0.085149
     96          6           0       21.643092   -0.245006    0.211100
     97          6           0       21.548006   -1.655743   -0.151254
     98          6           0       20.100272   -1.788831   -0.463956
     99          6           0       22.855986    0.575041    0.582096
    100          6           0       22.646406   -2.816437   -0.175290
    101          8           0       22.391216   -3.996775   -0.437138
    102          6           0       24.064814   -2.409866    0.165925
    103          7           0       17.126634   -2.507997   -0.732365
    104          6           0       18.134845   -3.339825   -0.979986
    105          6           0       17.657473   -4.730292   -1.501549
    106          6           0       16.162687   -4.645240   -1.161078
    107          6           0       15.948887   -3.226065   -0.737381
    108          6           0       17.962235   -5.000812   -3.001425
    109          6           0       15.534820   -5.764840   -0.217092
    110          6           0       15.258972   -5.392780    1.202668
    111          7           0       15.292400   -0.408094   -0.309666
    112          6           0       14.335945   -1.360388   -0.420310
    113          6           0       13.018144   -0.832863   -0.412878
    114          6           0       13.247326    0.538177   -0.075495
    115          6           0       14.615490    0.680239   -0.032279
    116          6           0       11.652229   -1.419101   -0.659489
    117          6           0       12.666393    1.813747    0.220889
    118          8           0       11.514548    2.187085    0.277092
    119          6           0       13.786894    2.791086    0.699587
    120          6           0       13.684003    4.054509   -0.036822
    121          8           0       13.807811    4.117169   -1.250544
    122          8           0       13.251788    5.147691    0.756855
    123          6           0       13.018509    6.412236    0.041787
    124          1           0       20.684740    2.427586    0.187865
    125          1           0       20.198351   -3.820558   -1.109231
    126          1           0       13.859432   -3.431789   -0.770571
    127          1           0       16.330855    4.627348    0.518259
    128          1           0       19.130183    4.254911    0.440165
    129          1           0       18.604177    5.138719   -1.456534
    130          1           0       16.942912    4.477857   -1.584955
    131          1           0       18.441436    3.497389   -2.070838
    132          1           0       17.941681    3.578147    2.858246
    133          1           0       16.119010    3.742345    2.815627
    134          1           0       17.974977    5.616429    3.603827
    135          1           0       16.260729    5.819426    3.357925
    136          1           0       22.597653    1.378715    1.272587
    137          1           0       23.426522    1.016045   -0.234637
    138          1           0       23.539893   -0.060634    1.144293
    139          1           0       24.252729   -1.567467   -0.499352
    140          1           0       24.820479   -3.160240   -0.064663
    141          1           0       24.138312   -2.183607    1.229775
    142          1           0       18.132070   -5.544300   -0.953815
    143          1           0       15.649699   -4.637290   -2.122090
    144          1           0       17.055197   -5.460607   -3.394570
    145          1           0       18.829717   -5.619589   -3.225681
    146          1           0       18.196228   -4.044675   -3.469638
    147          1           0       16.145312   -6.664178   -0.299088
    148          1           0       14.536721   -6.010528   -0.579054
    149          1           0       14.176291   -5.380373    1.330368
    150          1           0       15.482757   -4.362678    1.482727
    151          1           0       15.648113   -6.095910    1.939145
    152          1           0       11.698348   -2.459908   -0.981885
    153          1           0       11.101797   -0.761483   -1.332918
    154          1           0       11.012998   -1.547437    0.214283
    155          1           0       13.708283    3.006405    1.764885
    156          1           0       12.857757    7.280277    0.680658
    157          1           0       12.125862    6.199292   -0.547007
    158          1           0       13.860457    6.514987   -0.641794
 ---------------------------------------------------------------------

 SCF Done:  E(RPBE1PBE) =  -4067.38177929     A.U. after   16 cycles

 Excitation energies and oscillator strengths:

 Excited State   1:      Singlet-A      1.8263 eV  678.86 nm  f=0.3837  <S**2>=0.000
     310 -> 315       -0.16169
     312 -> 314        0.69455
     312 <- 314       -0.11149
 This state for optimization and/or second-order correction.
 Total Energy, E(TD-HF/TD-DFT) =  -4067.31466223
 Copying the excited state density for this state as the 1-particle RhoCI density.

 Excited State   2:      Singlet-A      1.8688 eV  663.44 nm  f=0.0000  <S**2>=0.000
     312 -> 313        0.70710

 Excited State   3:      Singlet-A      1.8722 eV  662.23 nm  f=0.3786  <S**2>=0.000
     309 -> 316       -0.17559
     311 -> 313        0.69310
     311 <- 313       -0.10657

 Excited State   4:      Singlet-A      2.0393 eV  607.97 nm  f=0.0000  <S**2>=0.000
     311 -> 314        0.70710

 Excited State   5:      Singlet-A      2.2008 eV  563.37 nm  f=0.1137  <S**2>=0.000
     310 -> 314        0.65555
     312 -> 315        0.24489

 The electronic state is 1-A.
 Alpha  occ. eigenvalues --  -46.92473 -46.91166 -19.25113 -19.24609 -19.20478
 Alpha  occ. eigenvalues --  -19.20025 -19.19711 -19.19598 -19.19184 -19.18326
 Alpha  occ. eigenvalues --  -14.41672 -14.41372 -14.41219 -14.41085 -14.39646
 Alpha  occ. eigenvalues --  -14.39626 -14.38890 -14.38416 -10.36370 -10.35905
 Alpha  occ. eigenvalues --  -10.34182 -10.32621 -10.32360 -10.31416 -10.29535
 Alpha  occ. eigenvalues --  -10.28866 -10.28791 -10.28601 -10.28525 -10.28505
 Alpha  occ. eigenvalues --  -10.28481 -10.28388 -10.28319 -10.28301 -10.28173
 Alpha  occ. eigenvalues --  -10.28142 -10.27966 -10.27802 -10.27641 -10.27312
 Alpha  occ. eigenvalues --  -10.26926 -10.26837 -10.26510 -10.26467 -10.26460
 Alpha  occ. eigenvalues --  -10.26138 -10.26040 -10.26025 -10.25906 -10.25760
 Alpha  occ. eigenvalues --  -10.25747 -10.25649 -10.25539 -10.25498 -10.25468
 Alpha  occ. eigenvalues --  -10.25466 -10.25368 -10.25359 -10.25328 -10.25309
 Alpha  occ. eigenvalues --  -10.25238 -10.25181 -10.25031 -10.24830 -10.24768
 Alpha  occ. eigenvalues --  -10.24685 -10.24624 -10.24351 -10.24269 -10.24179
 Alpha  occ. eigenvalues --  -10.24019 -10.23940 -10.23818 -10.23743 -10.23578
 Alpha  occ. eigenvalues --  -10.23414 -10.23267 -10.23210 -10.23067 -10.23025
 Alpha  occ. eigenvalues --  -10.22924 -10.22699 -10.22637 -10.22441 -10.22177
 Alpha  occ. eigenvalues --  -10.22001  -3.14454  -3.13505  -1.87308  -1.86787
 Alpha  occ. eigenvalues --   -1.86708  -1.86360  -1.85844  -1.85777  -1.10550
 Alpha  occ. eigenvalues --   -1.09248  -1.05004  -1.04958  -1.04816  -1.04507
 Alpha  occ. eigenvalues --   -1.01670  -1.01594  -1.00363  -0.99424  -0.99117
 Alpha  occ. eigenvalues --   -0.98779  -0.97702  -0.97356  -0.97166  -0.96135
 Alpha  occ. eigenvalues --   -0.87781  -0.86589  -0.83537  -0.83481  -0.83040
 Alpha  occ. eigenvalues --   -0.82798  -0.82506  -0.82166  -0.81568  -0.81415
 Alpha  occ. eigenvalues --   -0.81268  -0.81021  -0.80737  -0.79913  -0.78551
 Alpha  occ. eigenvalues --   -0.78510  -0.78102  -0.78010  -0.77003  -0.76990
 Alpha  occ. eigenvalues --   -0.76576  -0.76394  -0.75324  -0.75218  -0.74436
 Alpha  occ. eigenvalues --   -0.74340  -0.72735  -0.72216  -0.71595  -0.71576
 Alpha  occ. eigenvalues --   -0.71084  -0.71006  -0.70252  -0.70125  -0.69416
 Alpha  occ. eigenvalues --   -0.68862  -0.67328  -0.66977  -0.65611  -0.65412
 Alpha  occ. eigenvalues --   -0.63682  -0.63435  -0.63137  -0.62845  -0.62353
 Alpha  occ. eigenvalues --   -0.62309  -0.61388  -0.60874  -0.59763  -0.59575
 Alpha  occ. eigenvalues --   -0.59274  -0.59156  -0.59132  -0.58762  -0.58426
 Alpha  occ. eigenvalues --   -0.58403  -0.56707  -0.55882  -0.55047  -0.54528
 Alpha  occ. eigenvalues --   -0.54200  -0.54199  -0.53732  -0.53544  -0.53289
 Alpha  occ. eigenvalues --   -0.52963  -0.52684  -0.52537  -0.52219  -0.52088
 Alpha  occ. eigenvalues --   -0.50487  -0.50384  -0.50268  -0.50225  -0.49998
 Alpha  occ. eigenvalues --   -0.49605  -0.49313  -0.49272  -0.48414  -0.48200
 Alpha  occ. eigenvalues --   -0.48138  -0.47985  -0.47832  -0.47715  -0.47692
 Alpha  occ. eigenvalues --   -0.47479  -0.47449  -0.47410  -0.47123  -0.46913
 Alpha  occ. eigenvalues --   -0.46625  -0.46486  -0.46429  -0.46327  -0.45976
 Alpha  occ. eigenvalues --   -0.45830  -0.45371  -0.45183  -0.45080  -0.45031
 Alpha  occ. eigenvalues --   -0.44785  -0.44378  -0.44291  -0.44108  -0.44081
 Alpha  occ. eigenvalues --   -0.43978  -0.43860  -0.43735  -0.43615  -0.43587
 Alpha  occ. eigenvalues --   -0.43468  -0.43222  -0.43214  -0.43087  -0.42831
 Alpha  occ. eigenvalues --   -0.42455  -0.42325  -0.42033  -0.41991  -0.41664
 Alpha  occ. eigenvalues --   -0.41654  -0.41429  -0.41244  -0.41122  -0.41030
 Alpha  occ. eigenvalues --   -0.40775  -0.40740  -0.40539  -0.40502  -0.40465
 Alpha  occ. eigenvalues --   -0.39944  -0.39659  -0.39649  -0.39438  -0.39423
 Alpha  occ. eigenvalues --   -0.39193  -0.39123  -0.39122  -0.38996  -0.38816
 Alpha  occ. eigenvalues --   -0.38532  -0.38374  -0.38328  -0.38134  -0.38060
 Alpha  occ. eigenvalues --   -0.37923  -0.37911  -0.37778  -0.37767  -0.37631
 Alpha  occ. eigenvalues --   -0.37393  -0.37300  -0.37227  -0.36963  -0.36711
 Alpha  occ. eigenvalues --   -0.36655  -0.36342  -0.36251  -0.36115  -0.35899
 Alpha  occ. eigenvalues --   -0.35801  -0.35800  -0.35492  -0.35208  -0.34970
 Alpha  occ. eigenvalues --   -0.34862  -0.34781  -0.34099  -0.33839  -0.33426
 Alpha  occ. eigenvalues --   -0.33158  -0.33036  -0.32949  -0.32904  -0.32720
 Alpha  occ. eigenvalues --   -0.32544  -0.31688  -0.31525  -0.31215  -0.31209
 Alpha  occ. eigenvalues --   -0.30863  -0.30549  -0.29680  -0.29340  -0.29043
 Alpha  occ. eigenvalues --   -0.29015  -0.28558  -0.28205  -0.26879  -0.26836
 Alpha  occ. eigenvalues --   -0.26609  -0.26395  -0.26106  -0.25985  -0.25891
 Alpha  occ. eigenvalues --   -0.25496  -0.25452  -0.25234  -0.20822  -0.20683
 Alpha  occ. eigenvalues --   -0.18957  -0.18529
 Alpha virt. eigenvalues --   -0.11278  -0.11070  -0.05005  -0.04787  -0.04182
 Alpha virt. eigenvalues --   -0.03990  -0.02392  -0.02012  -0.00385   0.00145
 Alpha virt. eigenvalues --    0.00616   0.00887   0.01129   0.01422   0.01533

 Mulliken charges:
               1
     1  Mg  11.999648
     2  C    6.022736
     3  C    5.996539
     4  C    5.977606
     5  C    6.005159
     6  N    7.014282
     7  C    5.966927
     8  C    6.005209
     9  C    5.988800
    10  C    6.029578
    11  C    5.998195
    12  C    6.004183
    13  C    5.999819
    14  H    0.993579
    15  N    6.995334
    16  C    6.035889
    17  C    6.018598
    18  C    6.017312
    19  C    6.028241
    20  C    5.997680
    21  C    6.014449
    22  O    8.030351
    23  C    5.992399
    24  N    6.993649
    25  C    6.031460
    26  C    5.993097
    27  C    6.011002
    28  C    5.972664
    29  C    5.997733
    30  C    6.004276
    31  C    6.001515
    32  N    7.001078
    33  C    5.966533
    34  C    5.969467
    35  C    5.999654
    36  C    5.966481
    37  C    6.002929
    38  C    5.980611
    39  O    7.973474
    40  C    5.999756
    41  C    5.996876
    42  O    7.992043
    43  O    7.999421
    44  C    6.001221
    45  H    1.013134
    46  H    1.002021
    47  H    0.989095
    48  H    1.002883
    49  H    1.006149
    50  H    0.998861
    51  H    0.999228
    52  H    1.012851
    53  H    0.990878
    54  H    1.007528
    55  H    0.996946
    56  H    1.004325
    57  H    1.015654
    58  H    1.016705
    59  H    1.016414
    60  H    1.007398
    61  H    1.007608
    62  H    1.014692
    63  H    0.998078
    64  H    0.996420
    65  H    1.008121
    66  H    0.999782
    67  H    0.994830
    68  H    1.004455
    69  H    0.990750
    70  H    0.994562
    71  H    0.994720
    72  H    1.001204
    73  H    0.982658
    74  H    0.982283
    75  H    0.979712
    76  H    0.992594
    77  H    0.999343
    78  H    0.993313
    79  H    0.997355
    80  Mg  11.999979
    81  C    6.000184
    82  C    6.000062
    83  C    5.999782
    84  C    5.999862
    85  N    7.000170
    86  C    5.999651
    87  C    6.000017
    88  C    5.999976
    89  C    6.000185
    90  C    6.000017
    91  C    6.000023
    92  C    5.999980
    93  H    1.000073
    94  N    6.999957
    95  C    6.000321
    96  C    6.000204
    97  C    6.000176
    98  C    6.000248
    99  C    5.999959
   100  C    6.000178
   101  O    8.000313
   102  C    5.999948
   103  N    6.999924
   104  C    6.000311
   105  C    5.999897
   106  C    6.000099
   107  C    5.999827
   108  C    5.999996
   109  C    6.000009
   110  C    6.000072
   111  N    6.999961
   112  C    5.999815
   113  C    5.999642
   114  C    5.999974
   115  C    5.999811
   116  C    6.000051
   117  C    5.999811
   118  O    7.999671
   119  C    5.999969
   120  C    5.999952
   121  O    8.000021
   122  O    7.999947
   123  C    5.999986
   124  H    1.000161
   125  H    1.000050
   126  H    0.999815
   127  H    1.000069
   128  H    1.000009
   129  H    1.000089
   130  H    1.000168
   131  H    1.000008
   132  H    0.999869
   133  H    1.000022
   134  H    0.999958
   135  H    1.000000
   136  H    1.000162
   137  H    1.000272
   138  H    1.000157
   139  H    1.000082
   140  H    1.000177
   141  H    1.000066
   142  H    0.999955
   143  H    1.000009
   144  H    1.000107
   145  H    0.999991
   146  H    1.000032
   147  H    0.999890
   148  H    0.999964
   149  H    0.999918
   150  H    1.000026
   151  H    0.999840
   152  H    0.999792
   153  H    0.999866
   154  H    0.999606
   155  H    0.999867
   156  H    0.999956
   157  H    1.000037
   158  H    1.000002
 Sum of Mulliken charges = 624.00000

 Dipole moment (field-independent basis, Debye):
    X=              3.3886    Y=             -4.6568    Z=              8.8110  Tot=             10.5262
 Quadrupole moment (field-independent basis, Debye-Ang):
   XX=           -104.9912   YY=              4.8858   ZZ=              2.7642
   XY=             73.8235   XZ=           -145.7125   YZ=             -8.3986

 Normal termination of Gaussian 16 at Fri Oct 15 03:55:50 2021.
