 Gaussian 16, Revision A.03,
 Gaussian 16:  ES64L-G16RevA.03 25-Dec-2016

 --------------------------------------------------------
 #p PBE1PBE/Def2SVP td=(nstates=5) density=(transition=1)
 --------------------------------------------------------

 --------------------------------
 TDDFT excited states in gaussian
 --------------------------------
 Symbolic Z-matrix:
 Charge =  0 Multiplicity = 1

                         Standard orientation:
 ---------------------------------------------------------------------
 Center     Atomic      Atomic             Coordinates (Angstroms)
 Number     Number       Type             X           Y           Z
 ---------------------------------------------------------------------
      1         12           0      -16.860444    0.533605    0.278722
      2          6           0      -15.626987   -1.880692   -2.015613
      3          6           0      -14.141169    2.545963   -0.754708
      4          6           0      -17.660390    2.688480    2.594091
      5          6           0      -19.263406   -1.757286    1.315149
      6          7           0      -15.043412    0.345302   -1.239990
      7          6           0      -14.877237   -0.714637   -2.097317
      8          6           0      -13.761434   -0.499023   -3.105694
      9          6           0      -13.220722    0.897900   -2.576088
     10          6           0      -14.208098    1.324443   -1.478900
     11          6           0      -11.745581    0.805210   -2.197165
     12          6           0      -14.326235   -0.436558   -4.541878
     13          6           0      -13.471198   -1.049740   -5.715522
     14          1           0      -11.954189   -1.246675   -5.485936
     15          7           0      -16.070161    2.410703    0.803828
     16          6           0      -14.909822    3.008761    0.311440
     17          6           0      -14.740783    4.303351    0.990244
     18          6           0      -15.835644    4.395913    1.910249
     19          6           0      -16.586201    3.136894    1.741262
     20          6           0      -13.621618    5.172026    0.763611
     21          6           0      -16.167352    5.524490    2.881351
     22          8           0      -17.101998    5.417692    3.691154
     23          6           0      -15.502071    6.839666    2.767198
     24          7           0      -18.200762    0.430625    1.818940
     25          6           0      -18.418214    1.502700    2.585271
     26          6           0      -19.510012    1.209620    3.665067
     27          6           0      -20.133286   -0.115378    3.122071
     28          6           0      -19.177844   -0.541823    2.052033
     29          6           0      -18.967282    1.165772    5.138831
     30          6           0      -21.525728    0.303420    2.513032
     31          6           0      -21.651072    0.649201    0.989190
     32          7           0      -17.445953   -1.367335   -0.275459
     33          6           0      -18.455058   -2.182798    0.268079
     34          6           0      -18.406151   -3.499477   -0.414810
     35          6           0      -17.295707   -3.415753   -1.246630
     36          6           0      -16.745435   -2.152562   -1.194223
     37          6           0      -19.200187   -4.611625    0.078198
     38          6           0      -16.454269   -4.248685   -2.102348
     39          8           0      -16.578913   -5.443121   -2.348286
     40          6           0      -15.292051   -3.286090   -2.635715
     41          6           0      -13.952799   -3.806985   -2.268563
     42          8           0      -13.301124   -3.495548   -1.275866
     43          8           0      -13.526875   -4.713387   -3.257859
     44          6           0      -12.276409   -5.428724   -3.139764
     45          1           0      -13.494802    3.318369   -1.177608
     46          1           0      -17.993303    3.373775    3.376874
     47          1           0      -20.085476   -2.368030    1.693384
     48          1           0      -12.995106   -1.273025   -3.056389
     49          1           0      -13.209841    1.559026   -3.442199
     50          1           0      -11.096938    1.525044   -2.695131
     51          1           0      -11.274312   -0.168077   -2.334184
     52          1           0      -11.680890    1.088607   -1.145799
     53          1           0      -14.557751    0.590785   -4.822808
     54          1           0      -15.268827   -0.967438   -4.404055
     55          1           0      -13.486820   -0.387465   -6.580469
     56          1           0      -14.054933   -1.896606   -6.076285
     57          1           0      -14.039719    6.151919    0.532262
     58          1           0      -12.893259    4.705382    0.101111
     59          1           0      -13.133740    5.110390    1.736890
     60          1           0      -14.462342    6.831989    3.095708
     61          1           0      -16.009224    7.557533    3.411557
     62          1           0      -15.441183    7.086422    1.707635
     63          1           0      -20.108377    2.109535    3.522709
     64          1           0      -20.316557   -0.835259    3.920141
     65          1           0      -19.122682    2.130369    5.622234
     66          1           0      -17.933113    0.827961    5.080207
     67          1           0      -19.552394    0.399861    5.647601
     68          1           0      -22.006125    1.022052    3.177329
     69          1           0      -22.069881   -0.641088    2.484978
     70          1           0      -22.276235    1.541630    0.987302
     71          1           0      -22.165102   -0.124010    0.416756
     72          1           0      -20.724862    0.908250    0.477372
     73          1           0      -19.066422   -4.680492    1.157012
     74          1           0      -18.782360   -5.511917   -0.373491
     75          1           0      -20.215964   -4.571662   -0.314187
     76          1           0      -15.410304   -3.331303   -3.718782
     77          1           0      -12.388180   -6.429955   -2.724369
     78          1           0      -11.489425   -4.790304   -2.738011
     79          1           0      -11.969198   -5.467205   -4.185258
     80         12           0       16.382608    0.466112   -0.827714
     81          6           0       16.226764   -2.692818    0.783288
     82          6           0       12.900890    0.373270   -1.017814
     83          6           0       16.503042    3.737149   -1.176936
     84          6           0       19.982442    0.367111   -0.167893
     85          7           0       14.713670   -0.947351    0.068153
     86          6           0       14.935200   -2.239767    0.414128
     87          6           0       13.612736   -2.984640    0.447502
     88          6           0       12.759831   -2.273615   -0.603316
     89          6           0       13.459830   -0.824763   -0.485710
     90          6           0       12.829177   -2.760618   -2.051888
     91          6           0       13.053430   -3.012271    1.936546
     92          6           0       12.548894   -4.346739    2.323285
     93          1           0       11.238449   -4.407323    3.132009
     94          7           0       14.889722    1.940402   -1.028076
     95          6           0       13.504346    1.676390   -1.166003
     96          6           0       12.870081    2.948570   -1.403562
     97          6           0       13.855434    3.960377   -1.552415
     98          6           0       15.157212    3.272730   -1.234004
     99          6           0       11.352658    3.051223   -1.521146
    100          6           0       13.604508    5.394222   -1.806739
    101          8           0       12.447458    5.779777   -1.919479
    102          6           0       14.617533    6.490439   -1.858087
    103          7           0       18.092953    1.886387   -0.579903
    104          6           0       17.818118    3.137118   -1.000503
    105          6           0       19.109460    3.966394   -1.121241
    106          6           0       20.287156    2.851532   -0.947193
    107          6           0       19.440217    1.604600   -0.583357
    108          6           0       19.184744    4.890977   -2.418565
    109          6           0       21.402888    3.207024    0.084726
    110          6           0       21.293456    2.587335    1.519600
    111          7           0       17.790699   -0.807424    0.064046
    112          6           0       19.207200   -0.727039    0.186206
    113          6           0       19.731517   -2.084593    0.650870
    114          6           0       18.574486   -2.798814    0.918079
    115          6           0       17.445203   -1.992125    0.530640
    116          6           0       21.154390   -2.629336    0.880893
    117          6           0       18.075477   -4.064754    1.352801
    118          8           0       18.674873   -5.098465    1.653235
    119          6           0       16.596724   -3.916020    1.401889
    120          6           0       16.302209   -3.878519    2.918942
    121          8           0       16.444605   -2.925073    3.681592
    122          8           0       15.900262   -5.188699    3.300442
    123          6           0       15.689030   -5.449203    4.666407
    124          1           0       11.823100    0.368938   -1.194077
    125          1           0       16.451852    4.786201   -1.475088
    126          1           0       21.054720    0.186478   -0.074790
    127          1           0       13.685653   -4.009443    0.083718
    128          1           0       11.680764   -2.193319   -0.477021
    129          1           0       13.220468   -3.772029   -2.157759
    130          1           0       13.255272   -2.003364   -2.710455
    131          1           0       11.774181   -2.833585   -2.318548
    132          1           0       12.211063   -2.323653    2.003188
    133          1           0       13.726127   -2.576966    2.675600
    134          1           0       13.395117   -4.745791    2.881391
    135          1           0       12.391020   -4.927778    1.414800
    136          1           0       11.014694    3.188924   -2.548053
    137          1           0       11.003180    3.832176   -0.847394
    138          1           0       10.883802    2.129856   -1.175361
    139          1           0       15.231373    6.344098   -2.747181
    140          1           0       15.269146    6.577803   -0.987816
    141          1           0       14.162440    7.444759   -2.120366
    142          1           0       19.094236    4.570556   -0.214375
    143          1           0       20.703948    2.633651   -1.929931
    144          1           0       18.187897    5.124388   -2.792365
    145          1           0       19.846360    4.604109   -3.236782
    146          1           0       19.767633    5.742202   -2.063306
    147          1           0       21.532625    4.282586    0.202100
    148          1           0       22.288833    2.780590   -0.385135
    149          1           0       21.762358    3.426639    2.033749
    150          1           0       21.853559    1.675963    1.729994
    151          1           0       20.233983    2.516053    1.766499
    152          1           0       21.338362   -3.512324    0.269851
    153          1           0       20.982154   -3.007610    1.888085
    154          1           0       21.839021   -1.782016    0.850000
    155          1           0       16.128256   -4.801751    0.972649
    156          1           0       15.395099   -6.474654    4.893791
    157          1           0       14.888143   -4.791566    5.001972
    158          1           0       16.642412   -5.223148    5.144807
 ---------------------------------------------------------------------

 SCF Done:  E(RPBE1PBE) =  -4067.33080190     A.U. after   16 cycles

 Excitation energies and oscillator strengths:

 Excited State   1:      Singlet-A      1.8405 eV  673.63 nm  f=0.3432  <S**2>=0.000
     309 -> 315        0.18900
     311 -> 313        0.68684
 This state for optimization and/or second-order correction.
 Total Energy, E(TD-HF/TD-DFT) =  -4067.26316330
 Copying the excited state density for this state as the 1-particle RhoCI density.

 Excited State   2:      Singlet-A      1.8838 eV  658.17 nm  f=0.0000  <S**2>=0.000
     312 -> 313        0.70710

 Excited State   3:      Singlet-A      1.8854 eV  657.60 nm  f=0.3653  <S**2>=0.000
     310 -> 316        0.18510
     312 -> 314        0.68853
     312 <- 314       -0.10053

 Excited State   4:      Singlet-A      2.0972 eV  591.20 nm  f=0.0000  <S**2>=0.000
     311 -> 314        0.70710

 Excited State   5:      Singlet-A      2.1946 eV  564.96 nm  f=0.0643  <S**2>=0.000
     309 -> 313        0.63436
     311 -> 315       -0.29980

 The electronic state is 1-A.
 Alpha  occ. eigenvalues --  -46.94705 -46.91895 -19.25376 -19.24639 -19.21600
 Alpha  occ. eigenvalues --  -19.20066 -19.19640 -19.19100 -19.18792 -19.17858
 Alpha  occ. eigenvalues --  -14.41898 -14.41529 -14.41422 -14.40963 -14.39884
 Alpha  occ. eigenvalues --  -14.39477 -14.39185 -14.38700 -10.37661 -10.36440
 Alpha  occ. eigenvalues --  -10.32620 -10.32234 -10.31644 -10.31320 -10.29651
 Alpha  occ. eigenvalues --  -10.29253 -10.29230 -10.29016 -10.28723 -10.28668
 Alpha  occ. eigenvalues --  -10.28626 -10.28532 -10.28391 -10.28250 -10.28091
 Alpha  occ. eigenvalues --  -10.28009 -10.27901 -10.27844 -10.27753 -10.27119
 Alpha  occ. eigenvalues --  -10.27087 -10.27023 -10.26736 -10.26666 -10.26522
 Alpha  occ. eigenvalues --  -10.26389 -10.26334 -10.26249 -10.26212 -10.26153
 Alpha  occ. eigenvalues --  -10.25923 -10.25785 -10.25687 -10.25477 -10.25459
 Alpha  occ. eigenvalues --  -10.25366 -10.25333 -10.25217 -10.25190 -10.25105
 Alpha  occ. eigenvalues --  -10.25092 -10.25003 -10.24995 -10.24959 -10.24913
 Alpha  occ. eigenvalues --  -10.24757 -10.24753 -10.24641 -10.24561 -10.24419
 Alpha  occ. eigenvalues --  -10.24320 -10.24237 -10.24111 -10.23876 -10.23835
 Alpha  occ. eigenvalues --  -10.23626 -10.23235 -10.23127 -10.23126 -10.23117
 Alpha  occ. eigenvalues --  -10.22799 -10.22757 -10.22711 -10.22681 -10.22665
 Alpha  occ. eigenvalues --  -10.22551  -3.16493  -3.14019  -1.89271  -1.88918
 Alpha  occ. eigenvalues --   -1.88669  -1.86868  -1.86407  -1.86229  -1.10560
 Alpha  occ. eigenvalues --   -1.09376  -1.04491  -1.04286  -1.04157  -1.03748
 Alpha  occ. eigenvalues --   -1.03459  -1.02041  -0.99262  -0.98820  -0.98578
 Alpha  occ. eigenvalues --   -0.98080  -0.97749  -0.97495  -0.96168  -0.95998
 Alpha  occ. eigenvalues --   -0.88768  -0.86361  -0.83936  -0.83454  -0.83032
 Alpha  occ. eigenvalues --   -0.82900  -0.82717  -0.82106  -0.81574  -0.81569
 Alpha  occ. eigenvalues --   -0.81193  -0.81101  -0.80617  -0.79927  -0.79083
 Alpha  occ. eigenvalues --   -0.78318  -0.77960  -0.77601  -0.76994  -0.76661
 Alpha  occ. eigenvalues --   -0.76239  -0.75887  -0.75175  -0.75160  -0.74800
 Alpha  occ. eigenvalues --   -0.74640  -0.73069  -0.72376  -0.71600  -0.71451
 Alpha  occ. eigenvalues --   -0.71215  -0.71186  -0.70351  -0.70074  -0.69595
 Alpha  occ. eigenvalues --   -0.69115  -0.67196  -0.66616  -0.66337  -0.65746
 Alpha  occ. eigenvalues --   -0.64286  -0.63637  -0.63189  -0.63185  -0.62342
 Alpha  occ. eigenvalues --   -0.61711  -0.61263  -0.61022  -0.59852  -0.59463
 Alpha  occ. eigenvalues --   -0.59330  -0.59228  -0.59176  -0.59116  -0.58985
 Alpha  occ. eigenvalues --   -0.58755  -0.56778  -0.56107  -0.54746  -0.54498
 Alpha  occ. eigenvalues --   -0.54341  -0.53930  -0.53912  -0.53560  -0.53306
 Alpha  occ. eigenvalues --   -0.52934  -0.52562  -0.52439  -0.51738  -0.51606
 Alpha  occ. eigenvalues --   -0.50805  -0.50665  -0.50590  -0.50251  -0.50054
 Alpha  occ. eigenvalues --   -0.49775  -0.49444  -0.49162  -0.48794  -0.48413
 Alpha  occ. eigenvalues --   -0.48304  -0.48170  -0.47968  -0.47790  -0.47690
 Alpha  occ. eigenvalues --   -0.47662  -0.47340  -0.47331  -0.46881  -0.46753
 Alpha  occ. eigenvalues --   -0.46497  -0.46310  -0.46223  -0.46148  -0.46002
 Alpha  occ. eigenvalues --   -0.45958  -0.45827  -0.45315  -0.45186  -0.45127
 Alpha  occ. eigenvalues --   -0.44801  -0.44519  -0.44448  -0.44292  -0.44066
 Alpha  occ. eigenvalues --   -0.44035  -0.43824  -0.43646  -0.43629  -0.43439
 Alpha  occ. eigenvalues --   -0.43174  -0.43097  -0.42961  -0.42941  -0.42668
 Alpha  occ. eigenvalues --   -0.42533  -0.42224  -0.42211  -0.42045  -0.41861
 Alpha  occ. eigenvalues --   -0.41643  -0.41619  -0.41257  -0.40890  -0.40819
 Alpha  occ. eigenvalues --   -0.40734  -0.40653  -0.40620  -0.40554  -0.40204
 Alpha  occ. eigenvalues --   -0.40182  -0.40097  -0.39920  -0.39713  -0.39382
 Alpha  occ. eigenvalues --   -0.39316  -0.39246  -0.39047  -0.38954  -0.38937
 Alpha  occ. eigenvalues --   -0.38788  -0.38740  -0.38567  -0.38463  -0.38341
 Alpha  occ. eigenvalues --   -0.38210  -0.38158  -0.38140  -0.37838  -0.37736
 Alpha  occ. eigenvalues --   -0.37493  -0.37277  -0.37025  -0.36792  -0.36638
 Alpha  occ. eigenvalues --   -0.36433  -0.36177  -0.36034  -0.35894  -0.35878
 Alpha  occ. eigenvalues --   -0.35780  -0.35402  -0.35375  -0.35190  -0.34970
 Alpha  occ. eigenvalues --   -0.34797  -0.34203  -0.34089  -0.33528  -0.33436
 Alpha  occ. eigenvalues --   -0.33304  -0.32918  -0.32695  -0.32644  -0.32402
 Alpha  occ. eigenvalues --   -0.32130  -0.31690  -0.31609  -0.31326  -0.31025
 Alpha  occ. eigenvalues --   -0.30811  -0.30717  -0.30048  -0.29460  -0.29269
 Alpha  occ. eigenvalues --   -0.29055  -0.28985  -0.28675  -0.26774  -0.26590
 Alpha  occ. eigenvalues --   -0.26268  -0.25887  -0.25838  -0.25754  -0.25653
 Alpha  occ. eigenvalues --   -0.25259  -0.25096  -0.24874  -0.21016  -0.20754
 Alpha  occ. eigenvalues --   -0.18773  -0.18426
 Alpha virt. eigenvalues --   -0.11103  -0.10663  -0.06022  -0.05149  -0.04396
 Alpha virt. eigenvalues --   -0.03965  -0.03162  -0.02211  -0.02169   0.00088
 Alpha virt. eigenvalues --    0.00271   0.00554   0.00769   0.01097   0.01635

 Mulliken charges:
               1
     1  Mg  11.999913
     2  C    6.000467
     3  C    6.000167
     4  C    5.999285
     5  C    6.000018
     6  N    7.000242
     7  C    5.999375
     8  C    6.000339
     9  C    5.999651
    10  C    6.000606
    11  C    5.999943
    12  C    6.000012
    13  C    5.999962
    14  H    1.000136
    15  N    6.999884
    16  C    6.000733
    17  C    6.000335
    18  C    6.000284
    19  C    6.000556
    20  C    5.999936
    21  C    6.000276
    22  O    8.000534
    23  C    5.999925
    24  N    6.999812
    25  C    6.000787
    26  C    5.999924
    27  C    6.000267
    28  C    5.999376
    29  C    5.999962
    30  C    6.000032
    31  C    6.000164
    32  N    7.000045
    33  C    5.999407
    34  C    5.999239
    35  C    6.000138
    36  C    5.999324
    37  C    6.000010
    38  C    5.999527
    39  O    7.999468
    40  C    5.999974
    41  C    5.999982
    42  O    7.999847
    43  O    7.999983
    44  C    6.000015
    45  H    1.000408
    46  H    1.000006
    47  H    0.999646
    48  H    1.000030
    49  H    1.000194
    50  H    1.000287
    51  H    1.000325
    52  H    0.999967
    53  H    0.999845
    54  H    1.000056
    55  H    0.999982
    56  H    0.999983
    57  H    1.000374
    58  H    1.000452
    59  H    1.000436
    60  H    1.000270
    61  H    1.000232
    62  H    1.000121
    63  H    0.999856
    64  H    0.999839
    65  H    0.999896
    66  H    1.000028
    67  H    1.000068
    68  H    0.999713
    69  H    0.999935
    70  H    0.999759
    71  H    0.999997
    72  H    0.999979
    73  H    0.999572
    74  H    0.999660
    75  H    0.999510
    76  H    0.999854
    77  H    0.999883
    78  H    1.000019
    79  H    0.999959
    80  Mg  11.998052
    81  C    5.982138
    82  C    6.012316
    83  C    6.013596
    84  C    5.985062
    85  N    6.996611
    86  C    6.024760
    87  C    5.996638
    88  C    6.001745
    89  C    5.972153
    90  C    6.001204
    91  C    5.995308
    92  C    5.999105
    93  H    1.006315
    94  N    7.009429
    95  C    5.958388
    96  C    5.982038
    97  C    5.987831
    98  C    5.969009
    99  C    6.004306
   100  C    5.990324
   101  O    7.978063
   102  C    6.002646
   103  N    6.996520
   104  C    5.970257
   105  C    6.010725
   106  C    5.987872
   107  C    6.035090
   108  C    6.003083
   109  C    6.000990
   110  C    5.992229
   111  N    6.997404
   112  C    6.042579
   113  C    6.027697
   114  C    6.000605
   115  C    6.026302
   116  C    6.001654
   117  C    6.019273
   118  O    8.030792
   119  C    5.997299
   120  C    6.002661
   121  O    8.005780
   122  O    8.001522
   123  C    5.997944
   124  H    0.991109
   125  H    0.996495
   126  H    1.009208
   127  H    0.998476
   128  H    0.999670
   129  H    0.986701
   130  H    1.002203
   131  H    0.998355
   132  H    1.011801
   133  H    0.997359
   134  H    0.994377
   135  H    1.002778
   136  H    0.981810
   137  H    0.985393
   138  H    0.983546
   139  H    0.989318
   140  H    0.989041
   141  H    0.988807
   142  H    0.999363
   143  H    1.004245
   144  H    1.008289
   145  H    0.994149
   146  H    0.995503
   147  H    1.009378
   148  H    1.000097
   149  H    1.008186
   150  H    0.996166
   151  H    1.001741
   152  H    1.015882
   153  H    1.011847
   154  H    1.014686
   155  H    1.009159
   156  H    1.004343
   157  H    1.005808
   158  H    0.999391
 Sum of Mulliken charges = 624.00000

 Dipole moment (field-independent basis, Debye):
    X=              7.0777    Y=             -6.2729    Z=              2.9843  Tot=              9.9171
 Quadrupole moment (field-independent basis, Debye-Ang):
   XX=            223.8073   YY=             -6.2681   ZZ=             -0.5205
   XY=           -103.5813   XZ=             43.7278   YZ=              1.9460

 Normal termination of Gaussian 16 at Thu Oct 14 11:29:03 2021.
