 Gaussian 16, Revision A.03,
 Gaussian 16:  ES64L-G16RevA.03 25-Dec-2016

 --------------------------------------------------------
 #p PBE1PBE/Def2SVP td=(nstates=5) density=(transition=1)
 --------------------------------------------------------

 --------------------------------
 TDDFT excited states in gaussian
 --------------------------------
 Symbolic Z-matrix:
 Charge =  0 Multiplicity = 1

                         Standard orientation:
 ---------------------------------------------------------------------
 Center     Atomic      Atomic             Coordinates (Angstroms)
 Number     Number       Type             X           Y           Z
 ---------------------------------------------------------------------
      1         12           0       20.586704   -0.952356   -0.219028
      2          6           0       21.387361    2.484068    0.087484
      3          6           0       17.558828   -0.137480    1.325817
      4          6           0       19.636552   -4.080385   -0.522635
      5          6           0       23.913544   -1.633924   -0.965703
      6          7           0       19.623113    0.967446    0.559995
      7          6           0       20.061081    2.252290    0.448230
      8          6           0       19.131843    3.333476    1.026117
      9          6           0       17.946892    2.360992    1.525051
     10          6           0       18.435111    1.002352    1.117709
     11          6           0       17.691714    2.392681    3.083910
     12          6           0       18.659030    4.369985   -0.044734
     13          6           0       19.065590    5.838348   -0.064848
     14          1           0       18.095961    6.920926   -0.520199
     15          7           0       18.812124   -1.987654    0.247952
     16          6           0       17.700408   -1.496272    0.947382
     17          6           0       16.810272   -2.611532    1.180655
     18          6           0       17.308008   -3.730591    0.517639
     19          6           0       18.612323   -3.279304   -0.005278
     20          6           0       15.494125   -2.346278    1.828238
     21          6           0       16.780994   -5.161093    0.409916
     22          8           0       17.351060   -6.075998   -0.192280
     23          6           0       15.428711   -5.420226    0.947172
     24          7           0       21.620504   -2.661764   -0.576086
     25          6           0       20.996136   -3.841363   -0.873511
     26          6           0       21.965796   -4.820186   -1.618544
     27          6           0       23.280852   -4.051802   -1.635044
     28          6           0       22.953870   -2.697732   -0.946202
     29          6           0       22.015911   -6.250695   -0.988999
     30          6           0       23.773713   -3.902487   -3.082433
     31          6           0       25.212044   -4.140560   -3.367302
     32          7           0       22.354131    0.127568   -0.316199
     33          6           0       23.623573   -0.264979   -0.657853
     34          6           0       24.527450    0.846059   -0.674912
     35          6           0       23.691792    2.052347   -0.479479
     36          6           0       22.359915    1.516556   -0.272569
     37          6           0       26.044665    0.769078   -0.916725
     38          6           0       23.640998    3.533181   -0.385804
     39          8           0       24.515479    4.382588   -0.626960
     40          6           0       22.132007    3.846880   -0.019641
     41          6           0       22.326451    4.573885    1.274198
     42          8           0       22.424646    4.108793    2.403276
     43          8           0       22.259457    5.864724    1.095001
     44          6           0       22.587206    6.780939    2.214253
     45          1           0       16.611183    0.282532    1.668393
     46          1           0       19.468487   -5.152868   -0.638125
     47          1           0       24.937160   -1.858465   -1.271508
     48          1           0       19.639806    3.782257    1.880657
     49          1           0       16.967457    2.457013    1.055426
     50          1           0       18.469596    2.834811    3.705821
     51          1           0       17.562878    1.377551    3.457792
     52          1           0       16.765944    2.938239    3.267622
     53          1           0       17.570627    4.391866    0.012403
     54          1           0       18.949423    4.040483   -1.041521
     55          1           0       19.814613    5.821268   -0.856673
     56          1           0       19.434423    5.976685    0.951532
     57          1           0       14.660781   -2.588522    1.170169
     58          1           0       15.398497   -1.296951    2.108433
     59          1           0       15.332963   -2.932383    2.732501
     60          1           0       14.735951   -4.670844    0.564061
     61          1           0       15.363824   -5.235375    2.019517
     62          1           0       15.009415   -6.385521    0.665250
     63          1           0       21.493069   -4.888477   -2.598186
     64          1           0       24.070295   -4.611819   -1.134059
     65          1           0       21.259854   -6.430541   -0.224854
     66          1           0       22.966192   -6.488484   -0.512395
     67          1           0       22.000588   -7.000703   -1.779656
     68          1           0       23.526505   -2.865473   -3.305964
     69          1           0       23.289892   -4.565792   -3.798977
     70          1           0       25.547153   -3.227239   -3.858318
     71          1           0       25.337153   -5.065974   -3.929407
     72          1           0       25.851751   -4.197359   -2.486327
     73          1           0       26.550185    0.653031    0.041254
     74          1           0       26.353127    1.676656   -1.435400
     75          1           0       26.323806   -0.103301   -1.508007
     76          1           0       21.757676    4.519044   -0.791548
     77          1           0       21.940025    6.668666    3.083422
     78          1           0       22.600504    7.835141    1.938216
     79          1           0       23.590536    6.706467    2.632520
     80         12           0      -21.474482    0.154391    0.309036
     81          6           0      -18.336402    1.270485   -0.831242
     82          6           0      -22.372232   -0.144196   -3.037410
     83          6           0      -24.308433   -1.326978    1.239535
     84          6           0      -20.042846   -0.329601    3.433066
     85          7           0      -20.345074    0.388219   -1.688241
     86          6           0      -19.120906    0.971058   -1.952064
     87          6           0      -18.908806    1.416870   -3.383601
     88          6           0      -20.216811    0.982737   -4.087081
     89          6           0      -21.042526    0.357515   -2.915322
     90          6           0      -20.984619    2.156745   -4.819704
     91          6           0      -17.635027    0.820654   -4.133371
     92          6           0      -17.167121   -0.592056   -3.747471
     93          1           0      -17.484689   -1.766784   -4.719450
     94          7           0      -23.077777   -0.600332   -0.733813
     95          6           0      -23.290534   -0.578028   -2.082875
     96          6           0      -24.634176   -1.090218   -2.386625
     97          6           0      -25.225764   -1.442490   -1.134970
     98          6           0      -24.166350   -1.127602   -0.127970
     99          6           0      -25.208622   -1.169775   -3.796041
    100          6           0      -26.644974   -2.123526   -1.122531
    101          8           0      -27.176505   -2.359222   -2.198623
    102          6           0      -27.306631   -2.567796    0.249285
    103          7           0      -22.018584   -0.798643    2.019608
    104          6           0      -23.330321   -1.209191    2.245971
    105          6           0      -23.529845   -1.668048    3.799055
    106          6           0      -22.025442   -1.441356    4.366160
    107          6           0      -21.335777   -0.814001    3.197690
    108          6           0      -24.618461   -0.833801    4.536281
    109          6           0      -21.277397   -2.756642    4.850612
    110          6           0      -20.643419   -2.779732    6.250092
    111          7           0      -19.604008    0.518856    1.218759
    112          6           0      -19.133420    0.273784    2.483330
    113          6           0      -17.714165    0.682535    2.543221
    114          6           0      -17.419865    1.195283    1.251361
    115          6           0      -18.608315    1.014633    0.490052
    116          6           0      -16.771371    0.564989    3.708619
    117          6           0      -16.311804    1.730046    0.437686
    118          8           0      -15.158675    2.089401    0.717004
    119          6           0      -16.961410    1.979925   -0.915228
    120          6           0      -17.003441    3.360035   -1.264133
    121          8           0      -17.865593    4.142702   -0.787234
    122          8           0      -16.006490    3.685805   -2.205042
    123          6           0      -16.017471    5.023484   -2.788366
    124          1           0      -22.770672   -0.097092   -4.052709
    125          1           0      -25.281960   -1.664204    1.600282
    126          1           0      -19.687249   -0.457226    4.457188
    127          1           0      -18.808019    2.496658   -3.280810
    128          1           0      -19.944149    0.128580   -4.705841
    129          1           0      -20.929406    2.008332   -5.898105
    130          1           0      -20.478924    3.075624   -4.521790
    131          1           0      -22.038273    2.179498   -4.539523
    132          1           0      -16.859836    1.518547   -3.814412
    133          1           0      -17.778290    0.916997   -5.209856
    134          1           0      -17.558227   -0.871876   -2.768725
    135          1           0      -16.090623   -0.557960   -3.585154
    136          1           0      -25.215476   -2.169246   -4.230964
    137          1           0      -24.801335   -0.382381   -4.430380
    138          1           0      -26.248317   -0.843136   -3.807676
    139          1           0      -27.214121   -1.722142    0.931184
    140          1           0      -26.756127   -3.436892    0.608467
    141          1           0      -28.296003   -3.012211    0.140945
    142          1           0      -23.935844   -2.678411    3.759755
    143          1           0      -22.096003   -0.696287    5.158945
    144          1           0      -24.109832   -0.021799    5.055525
    145          1           0      -25.252264   -1.441465    5.182248
    146          1           0      -25.371236   -0.401972    3.876976
    147          1           0      -20.538263   -2.992268    4.084262
    148          1           0      -22.091104   -3.481701    4.834647
    149          1           0      -19.884752   -3.557271    6.343437
    150          1           0      -21.502192   -2.988941    6.887535
    151          1           0      -20.217359   -1.782770    6.364464
    152          1           0      -17.172018   -0.266386    4.287989
    153          1           0      -16.962369    1.489692    4.253146
    154          1           0      -15.713007    0.521794    3.449837
    155          1           0      -16.300431    1.418807   -1.575429
    156          1           0      -15.830029    5.863751   -2.119796
    157          1           0      -16.970646    5.204070   -3.286171
    158          1           0      -15.343341    4.989083   -3.644365
 ---------------------------------------------------------------------

 SCF Done:  E(RPBE1PBE) =  -4067.36282334     A.U. after   16 cycles

 Excitation energies and oscillator strengths:

 Excited State   1:      Singlet-A      1.8639 eV  665.20 nm  f=0.4275  <S**2>=0.000
     310 -> 315        0.18215
     311 -> 313        0.68589
 This state for optimization and/or second-order correction.
 Total Energy, E(TD-HF/TD-DFT) =  -4067.29432792
 Copying the excited state density for this state as the 1-particle RhoCI density.

 Excited State   2:      Singlet-A      1.8697 eV  663.11 nm  f=0.3074  <S**2>=0.000
     309 -> 316       -0.17428
     312 -> 314        0.68826
     312 <- 314       -0.10335

 Excited State   3:      Singlet-A      1.9448 eV  637.53 nm  f=0.0000  <S**2>=0.000
     312 -> 313        0.70710

 Excited State   4:      Singlet-A      2.0884 eV  593.69 nm  f=0.0000  <S**2>=0.000
     311 -> 314        0.70710

 Excited State   5:      Singlet-A      2.2119 eV  560.53 nm  f=0.1057  <S**2>=0.000
     310 -> 313        0.65040
     311 -> 315       -0.26771

 The electronic state is 1-A.
 Alpha  occ. eigenvalues --  -46.92385 -46.91950 -19.26450 -19.25947 -19.20469
 Alpha  occ. eigenvalues --  -19.19826 -19.19505 -19.19498 -19.19361 -19.18484
 Alpha  occ. eigenvalues --  -14.42093 -14.41941 -14.41757 -14.41547 -14.39562
 Alpha  occ. eigenvalues --  -14.39346 -14.39052 -14.38847 -10.37010 -10.35702
 Alpha  occ. eigenvalues --  -10.33673 -10.32846 -10.32798 -10.32573 -10.29591
 Alpha  occ. eigenvalues --  -10.29350 -10.29200 -10.29140 -10.29113 -10.28932
 Alpha  occ. eigenvalues --  -10.28842 -10.28492 -10.28475 -10.28473 -10.28472
 Alpha  occ. eigenvalues --  -10.28401 -10.28032 -10.28000 -10.27481 -10.27185
 Alpha  occ. eigenvalues --  -10.26981 -10.26884 -10.26828 -10.26601 -10.26530
 Alpha  occ. eigenvalues --  -10.26465 -10.26381 -10.26278 -10.26247 -10.26154
 Alpha  occ. eigenvalues --  -10.26132 -10.25966 -10.25940 -10.25911 -10.25902
 Alpha  occ. eigenvalues --  -10.25868 -10.25722 -10.25515 -10.25412 -10.25336
 Alpha  occ. eigenvalues --  -10.25330 -10.25207 -10.25055 -10.24922 -10.24883
 Alpha  occ. eigenvalues --  -10.24690 -10.24640 -10.24515 -10.24462 -10.24444
 Alpha  occ. eigenvalues --  -10.24298 -10.24290 -10.24115 -10.24094 -10.23920
 Alpha  occ. eigenvalues --  -10.23844 -10.23567 -10.23519 -10.23438 -10.23428
 Alpha  occ. eigenvalues --  -10.23354 -10.23295 -10.23060 -10.22927 -10.22873
 Alpha  occ. eigenvalues --  -10.22351  -3.14586  -3.14125  -1.87383  -1.86977
 Alpha  occ. eigenvalues --   -1.86967  -1.86812  -1.86501  -1.86352  -1.12636
 Alpha  occ. eigenvalues --   -1.09716  -1.05145  -1.04514  -1.03855  -1.03346
 Alpha  occ. eigenvalues --   -1.01813  -1.01341  -1.00028  -0.98894  -0.98436
 Alpha  occ. eigenvalues --   -0.98214  -0.97428  -0.97256  -0.96524  -0.96284
 Alpha  occ. eigenvalues --   -0.87560  -0.86305  -0.83829  -0.83520  -0.83207
 Alpha  occ. eigenvalues --   -0.83129  -0.82936  -0.82373  -0.81856  -0.81165
 Alpha  occ. eigenvalues --   -0.81076  -0.80487  -0.79845  -0.79509  -0.78862
 Alpha  occ. eigenvalues --   -0.78676  -0.78207  -0.77880  -0.77165  -0.77094
 Alpha  occ. eigenvalues --   -0.76663  -0.75897  -0.75268  -0.75187  -0.74834
 Alpha  occ. eigenvalues --   -0.74458  -0.72862  -0.72559  -0.71859  -0.71541
 Alpha  occ. eigenvalues --   -0.71191  -0.71043  -0.70873  -0.70588  -0.69480
 Alpha  occ. eigenvalues --   -0.69308  -0.66848  -0.66785  -0.66225  -0.66219
 Alpha  occ. eigenvalues --   -0.63684  -0.63482  -0.63375  -0.62871  -0.62644
 Alpha  occ. eigenvalues --   -0.62232  -0.61271  -0.61253  -0.60236  -0.60198
 Alpha  occ. eigenvalues --   -0.59716  -0.59712  -0.59384  -0.59147  -0.58775
 Alpha  occ. eigenvalues --   -0.58770  -0.57081  -0.57071  -0.55254  -0.54822
 Alpha  occ. eigenvalues --   -0.54176  -0.53993  -0.53651  -0.53616  -0.53261
 Alpha  occ. eigenvalues --   -0.53105  -0.52417  -0.52382  -0.52274  -0.51810
 Alpha  occ. eigenvalues --   -0.51124  -0.50701  -0.50199  -0.50110  -0.49612
 Alpha  occ. eigenvalues --   -0.49538  -0.49020  -0.48891  -0.48833  -0.48802
 Alpha  occ. eigenvalues --   -0.48429  -0.48420  -0.47900  -0.47643  -0.47407
 Alpha  occ. eigenvalues --   -0.47230  -0.47215  -0.46986  -0.46884  -0.46732
 Alpha  occ. eigenvalues --   -0.46710  -0.46203  -0.46091  -0.45839  -0.45515
 Alpha  occ. eigenvalues --   -0.45324  -0.45212  -0.44979  -0.44972  -0.44608
 Alpha  occ. eigenvalues --   -0.44590  -0.44375  -0.44210  -0.43984  -0.43965
 Alpha  occ. eigenvalues --   -0.43913  -0.43877  -0.43578  -0.43549  -0.43472
 Alpha  occ. eigenvalues --   -0.43260  -0.43130  -0.42966  -0.42878  -0.42858
 Alpha  occ. eigenvalues --   -0.42604  -0.42368  -0.42197  -0.42135  -0.41824
 Alpha  occ. eigenvalues --   -0.41389  -0.41260  -0.41172  -0.41024  -0.40976
 Alpha  occ. eigenvalues --   -0.40975  -0.40801  -0.40641  -0.40598  -0.40332
 Alpha  occ. eigenvalues --   -0.40203  -0.40118  -0.40004  -0.39802  -0.39793
 Alpha  occ. eigenvalues --   -0.39569  -0.39517  -0.39473  -0.39336  -0.39144
 Alpha  occ. eigenvalues --   -0.38967  -0.38862  -0.38791  -0.38739  -0.38076
 Alpha  occ. eigenvalues --   -0.38066  -0.37882  -0.37852  -0.37804  -0.37695
 Alpha  occ. eigenvalues --   -0.37490  -0.37372  -0.37295  -0.37106  -0.36940
 Alpha  occ. eigenvalues --   -0.36692  -0.36543  -0.36406  -0.36305  -0.36096
 Alpha  occ. eigenvalues --   -0.36005  -0.35715  -0.35567  -0.35344  -0.35276
 Alpha  occ. eigenvalues --   -0.35017  -0.34827  -0.34813  -0.34691  -0.34411
 Alpha  occ. eigenvalues --   -0.33895  -0.33413  -0.32901  -0.32645  -0.32557
 Alpha  occ. eigenvalues --   -0.32240  -0.32124  -0.32096  -0.31728  -0.31644
 Alpha  occ. eigenvalues --   -0.31339  -0.30862  -0.30022  -0.29680  -0.29111
 Alpha  occ. eigenvalues --   -0.28896  -0.28851  -0.28075  -0.27254  -0.26936
 Alpha  occ. eigenvalues --   -0.26318  -0.26241  -0.26020  -0.25939  -0.25696
 Alpha  occ. eigenvalues --   -0.25652  -0.25364  -0.24681  -0.21076  -0.20809
 Alpha  occ. eigenvalues --   -0.18772  -0.18523
 Alpha virt. eigenvalues --   -0.11054  -0.10782  -0.05382  -0.05313  -0.04381
 Alpha virt. eigenvalues --   -0.04015  -0.02430  -0.02271  -0.01210  -0.01068
 Alpha virt. eigenvalues --   -0.00160   0.00778   0.01066   0.01077   0.01627

 Mulliken charges:
               1
     1  Mg  12.004610
     2  C    5.980430
     3  C    6.000896
     4  C    6.026050
     5  C    5.993957
     6  N    6.988767
     7  C    6.032420
     8  C    5.984819
     9  C    6.010804
    10  C    5.969377
    11  C    6.004199
    12  C    5.997300
    13  C    5.997891
    14  H    1.005683
    15  N    7.007145
    16  C    5.967344
    17  C    5.981919
    18  C    5.981179
    19  C    5.973893
    20  C    6.005772
    21  C    5.987176
    22  O    7.970996
    23  C    6.004648
    24  N    7.009986
    25  C    5.958935
    26  C    6.005796
    27  C    5.992716
    28  C    6.027207
    29  C    6.002760
    30  C    5.997927
    31  C    5.999850
    32  N    6.999862
    33  C    6.028196
    34  C    6.030882
    35  C    6.000444
    36  C    6.030503
    37  C    5.999890
    38  C    6.018137
    39  O    8.026681
    40  C    6.001296
    41  C    6.000835
    42  O    8.007875
    43  O    8.000705
    44  C    5.997413
    45  H    0.987506
    46  H    0.997003
    47  H    1.009731
    48  H    1.000834
    49  H    1.000841
    50  H    0.987332
    51  H    1.004500
    52  H    0.993491
    53  H    1.008580
    54  H    0.998814
    55  H    0.995421
    56  H    1.000016
    57  H    0.982649
    58  H    0.985046
    59  H    0.982102
    60  H    0.994689
    61  H    0.992940
    62  H    0.986363
    63  H    1.000338
    64  H    1.002512
    65  H    1.006097
    66  H    0.992653
    67  H    0.996887
    68  H    0.996188
    69  H    1.010538
    70  H    0.996826
    71  H    1.005992
    72  H    0.999061
    73  H    1.019363
    74  H    1.014176
    75  H    1.017487
    76  H    1.007925
    77  H    1.006025
    78  H    1.004058
    79  H    1.000842
    80  Mg  12.000273
    81  C    5.998425
    82  C    6.001161
    83  C    6.002171
    84  C    5.998490
    85  N    6.999568
    86  C    6.003289
    87  C    5.998853
    88  C    6.001131
    89  C    5.996282
    90  C    6.000388
    91  C    5.999909
    92  C    5.999718
    93  H    1.001507
    94  N    7.000594
    95  C    5.995725
    96  C    5.997953
    97  C    5.998687
    98  C    5.995999
    99  C    6.000482
   100  C    5.998892
   101  O    7.998163
   102  C    6.000016
   103  N    7.000136
   104  C    5.996401
   105  C    6.000811
   106  C    5.998719
   107  C    6.003464
   108  C    6.000391
   109  C    5.999511
   110  C    5.999961
   111  N    6.999887
   112  C    6.004071
   113  C    6.002820
   114  C    6.000511
   115  C    6.002922
   116  C    6.000061
   117  C    6.002104
   118  O    8.003078
   119  C    6.000001
   120  C    6.000341
   121  O    8.000660
   122  O    8.000236
   123  C    5.999617
   124  H    0.998843
   125  H    0.999188
   126  H    1.000790
   127  H    0.999980
   128  H    0.999582
   129  H    0.999427
   130  H    0.998691
   131  H    1.000591
   132  H    0.999460
   133  H    1.000843
   134  H    0.999498
   135  H    0.999835
   136  H    0.997991
   137  H    0.998322
   138  H    0.998395
   139  H    0.999229
   140  H    0.999014
   141  H    0.998702
   142  H    1.000100
   143  H    1.000110
   144  H    0.998902
   145  H    0.999496
   146  H    1.000469
   147  H    0.999853
   148  H    1.001253
   149  H    1.000188
   150  H    1.000568
   151  H    0.999571
   152  H    1.001669
   153  H    1.001881
   154  H    1.001610
   155  H    1.001101
   156  H    1.000261
   157  H    1.000658
   158  H    1.000552
 Sum of Mulliken charges = 624.00000

 Dipole moment (field-independent basis, Debye):
    X=              9.5082    Y=              5.3312    Z=             -1.4610  Tot=             10.9983
 Quadrupole moment (field-independent basis, Debye-Ang):
   XX=            311.7164   YY=             -6.4877   ZZ=             -0.7358
   XY=             89.6195   XZ=            -46.9725   YZ=              1.9563

 Normal termination of Gaussian 16 at Fri Oct 15 14:02:41 2021.
