 Gaussian 16, Revision A.03,
 Gaussian 16:  ES64L-G16RevA.03 25-Dec-2016

 --------------------------------------------------------
 #p PBE1PBE/Def2SVP td=(nstates=5) density=(transition=1)
 --------------------------------------------------------

 --------------------------------
 TDDFT excited states in gaussian
 --------------------------------
 Symbolic Z-matrix:
 Charge =  0 Multiplicity = 1

                         Standard orientation:
 ---------------------------------------------------------------------
 Center     Atomic      Atomic             Coordinates (Angstroms)
 Number     Number       Type             X           Y           Z
 ---------------------------------------------------------------------
      1         12           0      -26.762342    0.626689    0.397543
      2          6           0      -25.337197   -2.727219   -0.033603
      3          6           0      -23.541328    1.749369   -0.189262
      4          6           0      -28.067038    3.454454   -0.289030
      5          6           0      -29.945017   -1.037568    0.509788
      6          7           0      -24.647478   -0.471000   -0.216626
      7          6           0      -24.317263   -1.804967   -0.315378
      8          6           0      -22.825604   -1.937802   -0.795043
      9          6           0      -22.220145   -0.542458   -0.563441
     10          6           0      -23.529768    0.296779   -0.309586
     11          6           0      -21.219157   -0.342123    0.649313
     12          6           0      -22.679892   -2.479894   -2.258187
     13          6           0      -21.545919   -3.451265   -2.505887
     14          1           0      -20.272000   -2.879701   -3.203746
     15          7           0      -25.943304    2.375923   -0.034503
     16          6           0      -24.616833    2.697383   -0.132805
     17          6           0      -24.469943    4.148583   -0.429846
     18          6           0      -25.802729    4.633589   -0.481940
     19          6           0      -26.666001    3.468122   -0.307618
     20          6           0      -23.164334    4.912877   -0.703625
     21          6           0      -26.296654    6.020873   -0.902194
     22          8           0      -25.444192    6.875186   -1.129274
     23          6           0      -27.650823    6.395863   -1.015324
     24          7           0      -28.772730    1.063933   -0.118279
     25          6           0      -29.025744    2.421186   -0.099427
     26          6           0      -30.590113    2.626172   -0.092972
     27          6           0      -31.154387    1.161431   -0.152626
     28          6           0      -29.882858    0.353075    0.200476
     29          6           0      -31.155669    3.457721    1.090960
     30          6           0      -31.863732    0.668780   -1.477937
     31          6           0      -33.323678    1.091412   -1.717097
     32          7           0      -27.579514   -1.431575    0.322019
     33          6           0      -28.859029   -1.914531    0.510627
     34          6           0      -28.879006   -3.352095    0.632362
     35          6           0      -27.494576   -3.718131    0.438062
     36          6           0      -26.698406   -2.545824    0.190184
     37          6           0      -30.124113   -4.164159    0.814666
     38          6           0      -26.643705   -4.816095    0.316402
     39          8           0      -26.882533   -6.013377    0.234930
     40          6           0      -25.254409   -4.264907   -0.116915
     41          6           0      -24.295452   -4.795472    0.923120
     42          8           0      -23.234635   -5.359767    0.644140
     43          8           0      -24.614800   -4.454663    2.298940
     44          6           0      -23.487724   -4.674135    3.203957
     45          1           0      -22.524201    2.130076   -0.298726
     46          1           0      -28.646012    4.379585   -0.326010
     47          1           0      -30.970506   -1.391372    0.634194
     48          1           0      -22.283475   -2.545083   -0.068789
     49          1           0      -21.789533   -0.130866   -1.476269
     50          1           0      -20.238009   -0.256743    0.182713
     51          1           0      -21.191236   -1.225198    1.287013
     52          1           0      -21.448547    0.487936    1.317426
     53          1           0      -22.430712   -1.722034   -3.001364
     54          1           0      -23.583407   -3.012141   -2.556413
     55          1           0      -21.971803   -4.307718   -3.028615
     56          1           0      -21.207266   -3.813257   -1.534604
     57          1           0      -23.203559    5.892502   -0.226545
     58          1           0      -23.104056    4.942277   -1.791498
     59          1           0      -22.311693    4.402927   -0.257298
     60          1           0      -28.088456    6.381518   -0.016630
     61          1           0      -28.226843    5.820966   -1.740508
     62          1           0      -27.550774    7.378110   -1.478420
     63          1           0      -30.968993    3.135589   -0.978366
     64          1           0      -31.829925    0.962405    0.678970
     65          1           0      -31.879704    2.803497    1.576819
     66          1           0      -31.658428    4.333903    0.682712
     67          1           0      -30.269166    3.692426    1.681405
     68          1           0      -31.815307   -0.417709   -1.398167
     69          1           0      -31.355678    1.058724   -2.360184
     70          1           0      -33.536285    1.612387   -0.783122
     71          1           0      -33.990443    0.227953   -1.714815
     72          1           0      -33.521033    1.734141   -2.574690
     73          1           0      -30.760669   -3.905310   -0.030421
     74          1           0      -30.711566   -3.870417    1.684375
     75          1           0      -29.956538   -5.233453    0.685158
     76          1           0      -25.015436   -4.730503   -1.072867
     77          1           0      -23.805653   -3.942806    3.948010
     78          1           0      -22.527563   -4.578447    2.697016
     79          1           0      -23.642268   -5.656800    3.649758
     80         12           0       26.502116   -0.361637   -0.668885
     81          6           0       24.791838    1.599837    1.725383
     82          6           0       27.009632   -2.716495    1.765483
     83          6           0       28.634874   -1.869146   -2.705201
     84          6           0       26.311622    2.346126   -2.878679
     85          7           0       26.097352   -0.457612    1.548119
     86          6           0       25.281898    0.428770    2.256710
     87          6           0       24.886097   -0.192970    3.618702
     88          6           0       25.632046   -1.577154    3.613074
     89          6           0       26.281710   -1.654303    2.203652
     90          6           0       26.489508   -1.907368    4.822298
     91          6           0       23.381446   -0.323010    3.902188
     92          6           0       22.930077    0.346521    5.229245
     93          1           0       22.207457   -0.559092    6.201695
     94          7           0       27.591717   -2.118681   -0.496309
     95          6           0       27.716887   -2.949012    0.578542
     96          6           0       28.456402   -4.112307    0.150006
     97          6           0       29.075042   -3.807133   -1.137161
     98          6           0       28.435294   -2.539812   -1.455363
     99          6           0       28.760302   -5.358335    1.132650
    100          6           0       30.239762   -4.379291   -1.823666
    101          8           0       30.680748   -4.068972   -2.893473
    102          6           0       30.975975   -5.486770   -1.075668
    103          7           0       27.514739    0.291606   -2.463156
    104          6           0       28.305396   -0.563386   -3.140687
    105          6           0       28.600447   -0.030834   -4.544843
    106          6           0       27.577092    1.105696   -4.699028
    107          6           0       27.056252    1.258803   -3.287415
    108          6           0       30.106135    0.488287   -4.667507
    109          6           0       26.397939    0.602405   -5.677715
    110          6           0       25.424247   -0.447126   -5.075524
    111          7           0       25.632177    1.567190   -0.722382
    112          6           0       25.634948    2.513400   -1.675210
    113          6           0       24.887370    3.641798   -1.189027
    114          6           0       24.505488    3.307767    0.096748
    115          6           0       25.031390    2.046998    0.391841
    116          6           0       24.579401    4.956149   -1.880705
    117          6           0       23.806589    3.881425    1.249899
    118          8           0       23.316211    4.926113    1.574122
    119          6           0       23.892126    2.770235    2.329406
    120          6           0       24.574377    3.394900    3.489877
    121          8           0       25.648634    3.929396    3.374815
    122          8           0       23.820414    3.372779    4.652192
    123          6           0       24.306308    4.238558    5.778283
    124          1           0       26.983428   -3.541920    2.480105
    125          1           0       29.236168   -2.378014   -3.461993
    126          1           0       26.020807    3.143651   -3.565624
    127          1           0       25.356576    0.384694    4.414621
    128          1           0       24.879929   -2.361812    3.697420
    129          1           0       26.703352   -1.015191    5.408987
    130          1           0       27.423942   -2.411250    4.573958
    131          1           0       25.868164   -2.531849    5.463721
    132          1           0       22.965089   -1.324807    4.007915
    133          1           0       22.797565    0.110774    3.090708
    134          1           0       22.388714    1.274329    5.044602
    135          1           0       23.829521    0.641934    5.767959
    136          1           0       28.520448   -6.273802    0.591940
    137          1           0       28.164288   -5.411281    2.042945
    138          1           0       29.756388   -5.453914    1.564764
    139          1           0       30.222228   -6.269096   -0.983581
    140          1           0       31.237226   -5.044387   -0.114862
    141          1           0       31.819330   -5.918900   -1.615182
    142          1           0       28.386191   -0.748640   -5.337358
    143          1           0       27.901137    2.101801   -5.001292
    144          1           0       30.399814    0.358679   -5.709500
    145          1           0       30.878873   -0.006779   -4.078412
    146          1           0       30.037060    1.550874   -4.435132
    147          1           0       26.772240    0.214954   -6.625079
    148          1           0       25.697468    1.419237   -5.852113
    149          1           0       24.739090   -0.911102   -5.784230
    150          1           0       24.815378    0.063128   -4.329014
    151          1           0       26.028220   -1.205497   -4.576270
    152          1           0       23.971348    4.859327   -2.779861
    153          1           0       25.562475    5.329927   -2.165794
    154          1           0       24.162751    5.701179   -1.202913
    155          1           0       22.847184    2.585963    2.578246
    156          1           0       24.174051    3.531469    6.597204
    157          1           0       23.679674    5.114555    5.944766
    158          1           0       25.320369    4.637354    5.767375
 ---------------------------------------------------------------------

 SCF Done:  E(RPBE1PBE) =  -4067.33463345     A.U. after   16 cycles

 Excitation energies and oscillator strengths:

 Excited State   1:      Singlet-A      1.8679 eV  663.77 nm  f=0.3418  <S**2>=0.000
     310 -> 316        0.16725
     311 -> 313        0.69112
     311 <- 313       -0.11111
 This state for optimization and/or second-order correction.
 Total Energy, E(TD-HF/TD-DFT) =  -4067.26598998
 Copying the excited state density for this state as the 1-particle RhoCI density.

 Excited State   2:      Singlet-A      1.8703 eV  662.90 nm  f=0.3853  <S**2>=0.000
     309 -> 315       -0.19048
     312 -> 314        0.68300

 Excited State   3:      Singlet-A      1.9810 eV  625.88 nm  f=0.0000  <S**2>=0.000
     312 -> 313        0.70711

 Excited State   4:      Singlet-A      2.0698 eV  599.03 nm  f=0.0000  <S**2>=0.000
     311 -> 314        0.70711

 Excited State   5:      Singlet-A      2.2023 eV  562.97 nm  f=0.1277  <S**2>=0.000
     310 -> 313        0.66413
     311 -> 316       -0.22444

 The electronic state is 1-A.
 Alpha  occ. eigenvalues --  -46.94146 -46.92936 -19.25772 -19.24388 -19.20342
 Alpha  occ. eigenvalues --  -19.19784 -19.19464 -19.18939 -19.18639 -19.18191
 Alpha  occ. eigenvalues --  -14.42089 -14.41696 -14.41646 -14.41388 -14.40334
 Alpha  occ. eigenvalues --  -14.39441 -14.38919 -14.38871 -10.36469 -10.35781
 Alpha  occ. eigenvalues --  -10.32278 -10.31980 -10.31501 -10.30712 -10.29935
 Alpha  occ. eigenvalues --  -10.29567 -10.29474 -10.29236 -10.29084 -10.29025
 Alpha  occ. eigenvalues --  -10.28876 -10.28795 -10.28542 -10.28514 -10.28466
 Alpha  occ. eigenvalues --  -10.28012 -10.27971 -10.27713 -10.27427 -10.27254
 Alpha  occ. eigenvalues --  -10.27158 -10.27139 -10.27005 -10.26807 -10.26687
 Alpha  occ. eigenvalues --  -10.26670 -10.26658 -10.26534 -10.26204 -10.26130
 Alpha  occ. eigenvalues --  -10.26012 -10.25976 -10.25973 -10.25851 -10.25848
 Alpha  occ. eigenvalues --  -10.25828 -10.25828 -10.25744 -10.25554 -10.25388
 Alpha  occ. eigenvalues --  -10.25336 -10.25078 -10.25057 -10.24890 -10.24761
 Alpha  occ. eigenvalues --  -10.24717 -10.24662 -10.24534 -10.24442 -10.24419
 Alpha  occ. eigenvalues --  -10.24221 -10.24207 -10.24114 -10.24108 -10.23963
 Alpha  occ. eigenvalues --  -10.23944 -10.23760 -10.23570 -10.23518 -10.23494
 Alpha  occ. eigenvalues --  -10.23440 -10.23311 -10.23091 -10.23041 -10.22710
 Alpha  occ. eigenvalues --  -10.22368  -3.16139  -3.14924  -1.88920  -1.88564
 Alpha  occ. eigenvalues --   -1.88325  -1.87746  -1.87311  -1.87139  -1.10402
 Alpha  occ. eigenvalues --   -1.08679  -1.06404  -1.05848  -1.05114  -1.03806
 Alpha  occ. eigenvalues --   -1.02424  -1.01192  -0.99821  -0.99575  -0.98971
 Alpha  occ. eigenvalues --   -0.98541  -0.98014  -0.97906  -0.96616  -0.95850
 Alpha  occ. eigenvalues --   -0.87324  -0.86697  -0.83262  -0.83209  -0.83188
 Alpha  occ. eigenvalues --   -0.83078  -0.82782  -0.82583  -0.82087  -0.81280
 Alpha  occ. eigenvalues --   -0.81131  -0.80863  -0.80614  -0.80358  -0.79245
 Alpha  occ. eigenvalues --   -0.78717  -0.78130  -0.77937  -0.77764  -0.76845
 Alpha  occ. eigenvalues --   -0.76766  -0.75541  -0.75491  -0.75190  -0.74430
 Alpha  occ. eigenvalues --   -0.74245  -0.72677  -0.72525  -0.71704  -0.71678
 Alpha  occ. eigenvalues --   -0.71328  -0.71049  -0.70454  -0.70147  -0.69621
 Alpha  occ. eigenvalues --   -0.69592  -0.67556  -0.67351  -0.66394  -0.66235
 Alpha  occ. eigenvalues --   -0.63696  -0.63637  -0.63513  -0.63053  -0.62516
 Alpha  occ. eigenvalues --   -0.62167  -0.61635  -0.61392  -0.60023  -0.59914
 Alpha  occ. eigenvalues --   -0.59847  -0.59842  -0.59652  -0.59484  -0.59061
 Alpha  occ. eigenvalues --   -0.58617  -0.56842  -0.56414  -0.55022  -0.54893
 Alpha  occ. eigenvalues --   -0.54438  -0.54275  -0.53859  -0.53787  -0.53524
 Alpha  occ. eigenvalues --   -0.53360  -0.52619  -0.52161  -0.51862  -0.51557
 Alpha  occ. eigenvalues --   -0.51228  -0.50619  -0.50285  -0.49901  -0.49712
 Alpha  occ. eigenvalues --   -0.49366  -0.49226  -0.48744  -0.48668  -0.48436
 Alpha  occ. eigenvalues --   -0.48310  -0.48129  -0.48020  -0.47861  -0.47565
 Alpha  occ. eigenvalues --   -0.47479  -0.47129  -0.47093  -0.46940  -0.46703
 Alpha  occ. eigenvalues --   -0.46610  -0.46547  -0.46421  -0.46129  -0.45922
 Alpha  occ. eigenvalues --   -0.45724  -0.45604  -0.45333  -0.45251  -0.44648
 Alpha  occ. eigenvalues --   -0.44525  -0.44506  -0.44393  -0.44070  -0.44069
 Alpha  occ. eigenvalues --   -0.44036  -0.43923  -0.43882  -0.43656  -0.43633
 Alpha  occ. eigenvalues --   -0.43313  -0.43070  -0.43046  -0.42940  -0.42859
 Alpha  occ. eigenvalues --   -0.42643  -0.42564  -0.42417  -0.42266  -0.42042
 Alpha  occ. eigenvalues --   -0.41880  -0.41667  -0.41472  -0.41150  -0.41104
 Alpha  occ. eigenvalues --   -0.40921  -0.40901  -0.40782  -0.40615  -0.40602
 Alpha  occ. eigenvalues --   -0.40316  -0.40169  -0.40092  -0.39813  -0.39759
 Alpha  occ. eigenvalues --   -0.39505  -0.39321  -0.39284  -0.39159  -0.38947
 Alpha  occ. eigenvalues --   -0.38918  -0.38738  -0.38505  -0.38491  -0.38162
 Alpha  occ. eigenvalues --   -0.38104  -0.38060  -0.37812  -0.37718  -0.37420
 Alpha  occ. eigenvalues --   -0.37370  -0.37343  -0.37157  -0.37145  -0.36983
 Alpha  occ. eigenvalues --   -0.36871  -0.36855  -0.36748  -0.36377  -0.36321
 Alpha  occ. eigenvalues --   -0.36302  -0.36177  -0.35740  -0.35243  -0.35193
 Alpha  occ. eigenvalues --   -0.35073  -0.34851  -0.34679  -0.34272  -0.33998
 Alpha  occ. eigenvalues --   -0.33814  -0.33304  -0.33055  -0.32892  -0.32825
 Alpha  occ. eigenvalues --   -0.32570  -0.32175  -0.32105  -0.31362  -0.31360
 Alpha  occ. eigenvalues --   -0.31198  -0.30269  -0.29680  -0.29602  -0.29236
 Alpha  occ. eigenvalues --   -0.29122  -0.28750  -0.28422  -0.27244  -0.27120
 Alpha  occ. eigenvalues --   -0.26665  -0.26155  -0.26086  -0.26001  -0.25756
 Alpha  occ. eigenvalues --   -0.25177  -0.25120  -0.24446  -0.21393  -0.21135
 Alpha  occ. eigenvalues --   -0.19197  -0.19120
 Alpha virt. eigenvalues --   -0.11593  -0.11342  -0.06121  -0.05004  -0.04386
 Alpha virt. eigenvalues --   -0.03692  -0.02429  -0.02162  -0.01937  -0.01131
 Alpha virt. eigenvalues --    0.00083   0.00128   0.00808   0.01151   0.01367

 Mulliken charges:
               1
     1  Mg  12.000333
     2  C    5.998509
     3  C    5.999954
     4  C    6.002820
     5  C    5.998925
     6  N    6.998995
     7  C    6.002709
     8  C    5.999463
     9  C    6.000412
    10  C    5.997362
    11  C    6.000689
    12  C    5.999846
    13  C    5.999877
    14  H    1.000775
    15  N    7.000735
    16  C    5.996636
    17  C    5.997469
    18  C    5.999743
    19  C    5.996300
    20  C    6.000063
    21  C    5.998698
    22  O    7.998271
    23  C    6.000401
    24  N    7.000104
    25  C    5.996187
    26  C    6.001039
    27  C    5.999453
    28  C    6.003288
    29  C    6.000069
    30  C    5.999696
    31  C    6.000126
    32  N    6.999656
    33  C    6.002809
    34  C    6.003616
    35  C    5.999296
    36  C    6.003826
    37  C    5.999964
    38  C    6.001736
    39  O    8.002791
    40  C    5.999815
    41  C    6.000372
    42  O    8.000907
    43  O    7.999669
    44  C    5.999866
    45  H    0.998791
    46  H    0.999383
    47  H    1.000853
    48  H    0.999896
    49  H    0.999966
    50  H    0.999388
    51  H    0.998691
    52  H    1.000270
    53  H    1.000808
    54  H    0.999331
    55  H    0.999761
    56  H    0.999918
    57  H    0.998598
    58  H    0.998343
    59  H    0.998504
    60  H    0.999197
    61  H    0.999007
    62  H    0.998926
    63  H    0.999647
    64  H    0.999758
    65  H    0.999006
    66  H    0.999957
    67  H    1.000287
    68  H    0.999344
    69  H    1.000885
    70  H    1.000438
    71  H    0.999911
    72  H    1.000531
    73  H    1.001968
    74  H    1.002005
    75  H    1.001364
    76  H    1.000748
    77  H    1.000413
    78  H    1.000620
    79  H    1.000220
    80  Mg  12.000646
    81  C    5.977028
    82  C    6.005600
    83  C    6.018550
    84  C    5.998224
    85  N    6.991539
    86  C    6.031621
    87  C    5.987718
    88  C    6.010142
    89  C    5.974606
    90  C    6.002696
    91  C    6.000171
    92  C    5.997246
    93  H    1.007280
    94  N    7.002928
    95  C    5.966582
    96  C    5.976786
    97  C    5.980086
    98  C    5.975258
    99  C    6.001110
   100  C    5.989989
   101  O    7.970176
   102  C    6.002166
   103  N    7.005377
   104  C    5.966125
   105  C    6.009099
   106  C    5.993470
   107  C    6.027139
   108  C    6.005229
   109  C    5.994961
   110  C    5.998497
   111  N    6.995367
   112  C    6.033680
   113  C    6.031596
   114  C    5.998275
   115  C    6.038261
   116  C    6.000920
   117  C    6.014773
   118  O    8.025251
   119  C    6.001146
   120  C    6.007130
   121  O    8.001557
   122  O    8.002256
   123  C    5.997692
   124  H    0.989315
   125  H    0.994917
   126  H    1.011039
   127  H    1.001590
   128  H    0.997499
   129  H    0.989769
   130  H    1.006101
   131  H    0.994403
   132  H    1.007507
   133  H    0.994350
   134  H    0.995687
   135  H    1.001771
   136  H    0.984266
   137  H    0.982717
   138  H    0.981306
   139  H    0.994007
   140  H    0.995323
   141  H    0.985263
   142  H    0.999649
   143  H    0.999298
   144  H    0.996342
   145  H    1.006262
   146  H    0.988253
   147  H    1.010370
   148  H    0.997314
   149  H    1.004254
   150  H    0.989505
   151  H    1.017142
   152  H    1.019486
   153  H    1.016779
   154  H    1.013379
   155  H    1.007667
   156  H    1.005853
   157  H    1.002367
   158  H    1.003302
 Sum of Mulliken charges = 624.00000

 Dipole moment (field-independent basis, Debye):
    X=             -5.4903    Y=              8.1346    Z=             -0.4356  Tot=              9.8237
 Quadrupole moment (field-independent basis, Debye-Ang):
   XX=           -252.9543   YY=             -5.3460   ZZ=              4.3304
   XY=            268.0829   XZ=            -14.4492   YZ=             -2.6955

 Normal termination of Gaussian 16 at Fri Oct 15 08:18:42 2021.
