 Gaussian 16, Revision A.03,
 Gaussian 16:  ES64L-G16RevA.03 25-Dec-2016

 --------------------------------------------------------
 #p PBE1PBE/Def2SVP td=(nstates=5) density=(transition=1)
 --------------------------------------------------------

 --------------------------------
 TDDFT excited states in gaussian
 --------------------------------
 Symbolic Z-matrix:
 Charge =  0 Multiplicity = 1

                         Standard orientation:
 ---------------------------------------------------------------------
 Center     Atomic      Atomic             Coordinates (Angstroms)
 Number     Number       Type             X           Y           Z
 ---------------------------------------------------------------------
      1         12           0      -28.510890    0.248817    0.310285
      2          6           0      -26.734319   -1.892736   -1.696534
      3          6           0      -28.106116    2.699144   -2.053923
      4          6           0      -30.206823    2.460342    2.374533
      5          6           0      -28.507103   -2.117474    2.844257
      6          7           0      -27.475521    0.431110   -1.672074
      7          6           0      -26.901372   -0.641562   -2.292681
      8          6           0      -26.410983   -0.280635   -3.610643
      9          6           0      -26.619032    1.221332   -3.723912
     10          6           0      -27.430391    1.527293   -2.389801
     11          6           0      -25.363939    2.146732   -3.886124
     12          6           0      -27.119797   -1.104991   -4.738718
     13          6           0      -26.269692   -1.451177   -6.009721
     14          1           0      -25.138139   -0.475199   -6.387464
     15          7           0      -29.165278    2.274960    0.096996
     16          6           0      -28.893310    3.093170   -0.986048
     17          6           0      -29.494879    4.420293   -0.744504
     18          6           0      -30.131494    4.364939    0.569822
     19          6           0      -29.877538    3.001392    1.066579
     20          6           0      -29.399861    5.599471   -1.698876
     21          6           0      -30.986978    5.424267    1.224634
     22          8           0      -31.520345    5.177064    2.320468
     23          6           0      -31.222481    6.780621    0.673363
     24          7           0      -29.190744    0.224551    2.352765
     25          6           0      -29.888242    1.218557    2.910081
     26          6           0      -30.422787    0.802441    4.290599
     27          6           0      -30.106975   -0.788742    4.386152
     28          6           0      -29.276369   -0.923480    3.061498
     29          6           0      -29.792276    1.664116    5.427676
     30          6           0      -31.349620   -1.720212    4.354421
     31          6           0      -31.650259   -2.473892    5.658633
     32          7           0      -27.722676   -1.621199    0.603598
     33          6           0      -27.782575   -2.481622    1.702286
     34          6           0      -27.074751   -3.745235    1.398957
     35          6           0      -26.648289   -3.506401    0.071210
     36          6           0      -27.054465   -2.213897   -0.355984
     37          6           0      -26.933019   -4.922912    2.231119
     38          6           0      -26.008101   -4.153079   -1.092885
     39          8           0      -25.587554   -5.267547   -1.256723
     40          6           0      -26.007471   -3.105811   -2.262888
     41          6           0      -24.627310   -2.954769   -2.750855
     42          8           0      -23.779695   -2.365848   -2.060747
     43          8           0      -24.421727   -3.375451   -4.029107
     44          6           0      -23.142534   -3.080710   -4.667032
     45          1           0      -27.960432    3.456538   -2.826969
     46          1           0      -30.706606    3.182368    3.024022
     47          1           0      -28.642576   -2.874257    3.619615
     48          1           0      -25.342422   -0.496561   -3.639649
     49          1           0      -27.361982    1.462755   -4.484963
     50          1           0      -24.353677    1.741084   -3.949196
     51          1           0      -25.366788    2.859571   -3.061895
     52          1           0      -25.431199    2.824198   -4.737727
     53          1           0      -28.057940   -0.621005   -5.010547
     54          1           0      -27.560212   -1.997907   -4.295455
     55          1           0      -26.921735   -1.554342   -6.877532
     56          1           0      -25.689876   -2.366644   -5.895878
     57          1           0      -28.950360    5.343934   -2.657815
     58          1           0      -28.767719    6.387025   -1.287721
     59          1           0      -30.396636    5.900573   -2.020681
     60          1           0      -31.946241    7.257468    1.333650
     61          1           0      -31.594441    6.775998   -0.352033
     62          1           0      -30.271986    7.307775    0.589333
     63          1           0      -31.509685    0.868162    4.239590
     64          1           0      -29.461645   -1.036531    5.228843
     65          1           0      -30.527369    2.075887    6.119312
     66          1           0      -29.244672    2.511352    5.013955
     67          1           0      -29.076671    0.990872    5.900241
     68          1           0      -31.295414   -2.484308    3.579873
     69          1           0      -32.259207   -1.175124    4.101219
     70          1           0      -31.278812   -1.896056    6.505018
     71          1           0      -31.113434   -3.421552    5.629179
     72          1           0      -32.716463   -2.696445    5.649474
     73          1           0      -26.675072   -5.814800    1.660496
     74          1           0      -27.825054   -5.147995    2.815350
     75          1           0      -26.027111   -4.798727    2.824601
     76          1           0      -26.669925   -3.596642   -2.976676
     77          1           0      -22.289763   -3.591865   -4.219430
     78          1           0      -22.985186   -2.005229   -4.748232
     79          1           0      -23.154054   -3.453961   -5.690950
     80         12           0       28.483539    0.488476   -0.584632
     81          6           0       26.074488   -2.085363    0.330120
     82          6           0       25.903050    2.748327   -0.430610
     83          6           0       30.723392    2.885384    0.063678
     84          6           0       30.882659   -1.905754   -0.825935
     85          7           0       26.257102    0.337377    0.098855
     86          6           0       25.478645   -0.848807    0.353611
     87          6           0       23.995098   -0.476654    0.426875
     88          6           0       23.924789    0.956708   -0.177587
     89          6           0       25.442850    1.434635   -0.208766
     90          6           0       23.294311    1.002762   -1.649343
     91          6           0       23.294539   -0.699522    1.735276
     92          6           0       24.174369   -0.885857    2.993953
     93          1           0       23.685384   -1.057205    4.443776
     94          7           0       28.343798    2.589387   -0.365468
     95          6           0       27.177139    3.319612   -0.311982
     96          6           0       27.539920    4.769814   -0.248607
     97          6           0       28.908744    4.762269    0.007191
     98          6           0       29.416010    3.392638   -0.029788
     99          6           0       26.492712    5.823998   -0.320852
    100          6           0       29.755879    6.034154    0.302731
    101          8           0       29.169788    7.097674    0.400233
    102          6           0       31.213728    6.026789    0.623749
    103          7           0       30.508639    0.397403   -0.259517
    104          6           0       31.212902    1.596153   -0.152704
    105          6           0       32.721173    1.351548   -0.199319
    106          6           0       32.814042   -0.106487   -0.778779
    107          6           0       31.354474   -0.551663   -0.662965
    108          6           0       33.607870    2.345934   -0.992197
    109          6           0       33.826222   -1.064469   -0.072500
    110          6           0       35.158959   -1.396514   -0.887287
    111          7           0       28.515696   -1.597172   -0.395367
    112          6           0       29.588833   -2.449434   -0.611231
    113          6           0       29.117550   -3.812468   -0.597290
    114          6           0       27.794018   -3.671505   -0.158474
    115          6           0       27.490162   -2.289928   -0.079754
    116          6           0       30.024689   -5.032419   -0.833594
    117          6           0       26.584593   -4.369228    0.154067
    118          8           0       26.432900   -5.606107    0.094629
    119          6           0       25.343310   -3.391471    0.354973
    120          6           0       24.751618   -3.811010    1.641058
    121          8           0       25.352310   -3.998473    2.704323
    122          8           0       23.408353   -3.826865    1.459773
    123          6           0       22.595485   -4.407469    2.574147
    124          1           0       25.084777    3.467718   -0.364165
    125          1           0       31.444285    3.681543    0.262223
    126          1           0       31.650939   -2.653363   -1.032190
    127          1           0       23.638250   -1.191565   -0.314557
    128          1           0       23.467092    1.680962    0.496494
    129          1           0       22.357481    1.538030   -1.499786
    130          1           0       23.182335   -0.013612   -2.027658
    131          1           0       23.980092    1.610169   -2.241059
    132          1           0       22.601177   -1.523521    1.567810
    133          1           0       22.698886    0.211441    1.802857
    134          1           0       24.843236   -0.024634    2.990752
    135          1           0       24.778869   -1.786584    2.885458
    136          1           0       26.454653    6.273768    0.670867
    137          1           0       25.551780    5.348982   -0.596888
    138          1           0       26.741403    6.525834   -1.117665
    139          1           0       31.536219    5.539405    1.543048
    140          1           0       31.608690    7.025710    0.806506
    141          1           0       31.617020    5.622551   -0.304611
    142          1           0       32.900126    1.425220    0.873989
    143          1           0       33.042564    0.035904   -1.835233
    144          1           0       34.114688    3.076205   -0.360556
    145          1           0       32.982598    2.939012   -1.658740
    146          1           0       34.297612    1.756186   -1.596969
    147          1           0       33.400051   -2.020518    0.232835
    148          1           0       34.048335   -0.560483    0.868203
    149          1           0       35.920918   -1.309626   -0.113116
    150          1           0       35.372651   -0.721141   -1.715861
    151          1           0       35.010031   -2.373846   -1.344970
    152          1           0       29.531117   -5.903256   -1.265588
    153          1           0       30.318250   -5.265977    0.189245
    154          1           0       30.777345   -4.801366   -1.587082
    155          1           0       24.661009   -3.499811   -0.489415
    156          1           0       21.538239   -4.356207    2.311653
    157          1           0       22.732798   -3.844425    3.497503
    158          1           0       22.976044   -5.426812    2.621482
 ---------------------------------------------------------------------

 SCF Done:  E(RPBE1PBE) =  -4067.37978866     A.U. after   16 cycles

 Excitation energies and oscillator strengths:

 Excited State   1:      Singlet-A      1.8047 eV  686.99 nm  f=0.3441  <S**2>=0.000
     309 -> 315       -0.15294
     312 -> 313        0.69767
     312 <- 313       -0.11784
 This state for optimization and/or second-order correction.
 Total Energy, E(TD-HF/TD-DFT) =  -4067.31346577
 Copying the excited state density for this state as the 1-particle RhoCI density.

 Excited State   2:      Singlet-A      1.8897 eV  656.10 nm  f=0.3738  <S**2>=0.000
     310 -> 316       -0.18011
     311 -> 314        0.68959
     311 <- 314       -0.10436

 Excited State   3:      Singlet-A      1.9517 eV  635.27 nm  f=0.0000  <S**2>=0.000
     311 -> 313        0.70711

 Excited State   4:      Singlet-A      2.0242 eV  612.51 nm  f=0.0000  <S**2>=0.000
     312 -> 314        0.70711

 Excited State   5:      Singlet-A      2.2567 eV  549.42 nm  f=0.0897  <S**2>=0.000
     310 -> 314        0.64124
     311 -> 316        0.28269

 The electronic state is 1-A.
 Alpha  occ. eigenvalues --  -46.92678 -46.92281 -19.26581 -19.26060 -19.19736
 Alpha  occ. eigenvalues --  -19.19528 -19.19262 -19.19080 -19.18564 -19.17598
 Alpha  occ. eigenvalues --  -14.41962 -14.41317 -14.41223 -14.41146 -14.39257
 Alpha  occ. eigenvalues --  -14.39185 -14.38899 -14.38495 -10.36554 -10.36221
 Alpha  occ. eigenvalues --  -10.32487 -10.32052 -10.32024 -10.30956 -10.29532
 Alpha  occ. eigenvalues --  -10.29458 -10.29364 -10.29257 -10.29010 -10.28743
 Alpha  occ. eigenvalues --  -10.28387 -10.28328 -10.28327 -10.28279 -10.28170
 Alpha  occ. eigenvalues --  -10.28124 -10.27828 -10.27707 -10.27675 -10.27103
 Alpha  occ. eigenvalues --  -10.26818 -10.26808 -10.26479 -10.26437 -10.26384
 Alpha  occ. eigenvalues --  -10.26377 -10.26213 -10.26208 -10.26080 -10.26066
 Alpha  occ. eigenvalues --  -10.25824 -10.25801 -10.25643 -10.25608 -10.25607
 Alpha  occ. eigenvalues --  -10.25564 -10.25461 -10.25249 -10.25222 -10.25102
 Alpha  occ. eigenvalues --  -10.25086 -10.25069 -10.24995 -10.24946 -10.24892
 Alpha  occ. eigenvalues --  -10.24833 -10.24776 -10.24738 -10.24625 -10.24377
 Alpha  occ. eigenvalues --  -10.24324 -10.24119 -10.23980 -10.23900 -10.23697
 Alpha  occ. eigenvalues --  -10.23668 -10.23640 -10.23538 -10.23532 -10.23505
 Alpha  occ. eigenvalues --  -10.23498 -10.23340 -10.23019 -10.23014 -10.22800
 Alpha  occ. eigenvalues --  -10.22016  -3.14747  -3.14288  -1.87558  -1.87150
 Alpha  occ. eigenvalues --   -1.87144  -1.86950  -1.86645  -1.86517  -1.11191
 Alpha  occ. eigenvalues --   -1.10891  -1.05713  -1.05238  -1.03598  -1.02367
 Alpha  occ. eigenvalues --   -1.01907  -1.01614  -0.99742  -0.99678  -0.98773
 Alpha  occ. eigenvalues --   -0.98720  -0.98059  -0.97266  -0.95599  -0.94863
 Alpha  occ. eigenvalues --   -0.86839  -0.86398  -0.83646  -0.83422  -0.83220
 Alpha  occ. eigenvalues --   -0.82882  -0.82581  -0.82018  -0.81512  -0.81088
 Alpha  occ. eigenvalues --   -0.81077  -0.80899  -0.80506  -0.80461  -0.78593
 Alpha  occ. eigenvalues --   -0.78252  -0.78072  -0.77834  -0.76762  -0.76589
 Alpha  occ. eigenvalues --   -0.76583  -0.76000  -0.75520  -0.75340  -0.74902
 Alpha  occ. eigenvalues --   -0.74526  -0.72758  -0.72280  -0.72077  -0.71857
 Alpha  occ. eigenvalues --   -0.71616  -0.70843  -0.70549  -0.70348  -0.69532
 Alpha  occ. eigenvalues --   -0.69246  -0.67539  -0.67067  -0.66081  -0.65983
 Alpha  occ. eigenvalues --   -0.64024  -0.63553  -0.63326  -0.62745  -0.62470
 Alpha  occ. eigenvalues --   -0.62155  -0.61365  -0.61318  -0.60560  -0.60263
 Alpha  occ. eigenvalues --   -0.59853  -0.59796  -0.59609  -0.59257  -0.58885
 Alpha  occ. eigenvalues --   -0.58128  -0.57317  -0.56754  -0.54396  -0.54115
 Alpha  occ. eigenvalues --   -0.54103  -0.53780  -0.53756  -0.53679  -0.53222
 Alpha  occ. eigenvalues --   -0.52908  -0.52514  -0.52036  -0.51867  -0.51802
 Alpha  occ. eigenvalues --   -0.51356  -0.50721  -0.50690  -0.50321  -0.49917
 Alpha  occ. eigenvalues --   -0.49734  -0.49273  -0.49178  -0.48783  -0.48522
 Alpha  occ. eigenvalues --   -0.48307  -0.48065  -0.47767  -0.47613  -0.47449
 Alpha  occ. eigenvalues --   -0.47367  -0.47134  -0.46969  -0.46938  -0.46608
 Alpha  occ. eigenvalues --   -0.46477  -0.46253  -0.46116  -0.45917  -0.45821
 Alpha  occ. eigenvalues --   -0.45801  -0.45733  -0.45500  -0.45322  -0.44866
 Alpha  occ. eigenvalues --   -0.44591  -0.44522  -0.44418  -0.44331  -0.43983
 Alpha  occ. eigenvalues --   -0.43929  -0.43638  -0.43554  -0.43351  -0.43146
 Alpha  occ. eigenvalues --   -0.43054  -0.42989  -0.42804  -0.42767  -0.42593
 Alpha  occ. eigenvalues --   -0.42462  -0.42272  -0.42121  -0.41864  -0.41861
 Alpha  occ. eigenvalues --   -0.41774  -0.41558  -0.41366  -0.41359  -0.41235
 Alpha  occ. eigenvalues --   -0.40996  -0.40956  -0.40653  -0.40487  -0.40457
 Alpha  occ. eigenvalues --   -0.40274  -0.40219  -0.39934  -0.39917  -0.39745
 Alpha  occ. eigenvalues --   -0.39703  -0.39321  -0.39304  -0.39137  -0.38814
 Alpha  occ. eigenvalues --   -0.38726  -0.38601  -0.38425  -0.38343  -0.38318
 Alpha  occ. eigenvalues --   -0.38225  -0.37984  -0.37832  -0.37660  -0.37565
 Alpha  occ. eigenvalues --   -0.37522  -0.37365  -0.37069  -0.37036  -0.36978
 Alpha  occ. eigenvalues --   -0.36788  -0.36660  -0.36605  -0.36347  -0.35984
 Alpha  occ. eigenvalues --   -0.35956  -0.35761  -0.35745  -0.35545  -0.35269
 Alpha  occ. eigenvalues --   -0.34897  -0.34862  -0.34515  -0.34325  -0.34033
 Alpha  occ. eigenvalues --   -0.33380  -0.33160  -0.32480  -0.32409  -0.32194
 Alpha  occ. eigenvalues --   -0.32151  -0.31726  -0.31662  -0.31585  -0.31385
 Alpha  occ. eigenvalues --   -0.31078  -0.30861  -0.29268  -0.29261  -0.29044
 Alpha  occ. eigenvalues --   -0.28918  -0.28496  -0.28299  -0.27092  -0.26693
 Alpha  occ. eigenvalues --   -0.25831  -0.25800  -0.25673  -0.25548  -0.25398
 Alpha  occ. eigenvalues --   -0.25273  -0.25125  -0.24291  -0.21263  -0.20813
 Alpha  occ. eigenvalues --   -0.18499  -0.18453
 Alpha virt. eigenvalues --   -0.11093  -0.10783  -0.05297  -0.05212  -0.03648
 Alpha virt. eigenvalues --   -0.03122  -0.02008  -0.01821  -0.01397  -0.00234
 Alpha virt. eigenvalues --    0.00166   0.00347   0.01025   0.01317   0.01943

 Mulliken charges:
               1
     1  Mg  12.000002
     2  C    6.000039
     3  C    6.000029
     4  C    5.999967
     5  C    5.999981
     6  N    6.999994
     7  C    5.999988
     8  C    5.999994
     9  C    6.000004
    10  C    5.999950
    11  C    6.000003
    12  C    5.999989
    13  C    5.999999
    14  H    0.999994
    15  N    6.999997
    16  C    5.999916
    17  C    5.999974
    18  C    5.999965
    19  C    5.999991
    20  C    6.000007
    21  C    5.999966
    22  O    7.999958
    23  C    6.000010
    24  N    7.000016
    25  C    5.999996
    26  C    6.000006
    27  C    5.999984
    28  C    6.000065
    29  C    6.000008
    30  C    5.999984
    31  C    6.000001
    32  N    6.999995
    33  C    6.000078
    34  C    6.000005
    35  C    6.000009
    36  C    6.000019
    37  C    5.999992
    38  C    6.000076
    39  O    8.000054
    40  C    5.999983
    41  C    6.000007
    42  O    8.000001
    43  O    8.000004
    44  C    5.999993
    45  H    0.999963
    46  H    1.000004
    47  H    1.000039
    48  H    1.000001
    49  H    1.000000
    50  H    0.999976
    51  H    0.999998
    52  H    0.999983
    53  H    1.000017
    54  H    1.000000
    55  H    1.000010
    56  H    1.000005
    57  H    0.999967
    58  H    0.999947
    59  H    0.999964
    60  H    0.999969
    61  H    0.999989
    62  H    0.999974
    63  H    1.000004
    64  H    1.000004
    65  H    0.999994
    66  H    1.000001
    67  H    0.999984
    68  H    1.000001
    69  H    1.000020
    70  H    1.000005
    71  H    1.000006
    72  H    1.000014
    73  H    1.000043
    74  H    1.000037
    75  H    1.000044
    76  H    1.000017
    77  H    1.000014
    78  H    0.999996
    79  H    1.000016
    80  Mg  12.000269
    81  C    6.027469
    82  C    6.008872
    83  C    5.968919
    84  C    5.992089
    85  N    7.023615
    86  C    5.974370
    87  C    6.003558
    88  C    5.997858
    89  C    6.011820
    90  C    5.997980
    91  C    6.001359
    92  C    6.005892
    93  H    0.998010
    94  N    6.991807
    95  C    6.031703
    96  C    6.027167
    97  C    6.001878
    98  C    6.045048
    99  C    5.995520
   100  C    6.011888
   101  O    8.015826
   102  C    5.998239
   103  N    6.991465
   104  C    6.039313
   105  C    5.989809
   106  C    6.011423
   107  C    5.968156
   108  C    6.000075
   109  C    6.006461
   110  C    5.998016
   111  N    6.999662
   112  C    5.969427
   113  C    5.976241
   114  C    5.998526
   115  C    5.964303
   116  C    5.998747
   117  C    5.983800
   118  O    7.967725
   119  C    5.992965
   120  C    5.996094
   121  O    7.998920
   122  O    7.997732
   123  C    5.999897
   124  H    1.013300
   125  H    1.005125
   126  H    0.984286
   127  H    1.004864
   128  H    0.999220
   129  H    1.005001
   130  H    1.013910
   131  H    0.997218
   132  H    1.002797
   133  H    0.992215
   134  H    0.990088
   135  H    1.006837
   136  H    1.017408
   137  H    1.014240
   138  H    1.017944
   139  H    1.010280
   140  H    1.010931
   141  H    1.007535
   142  H    1.000488
   143  H    0.993346
   144  H    0.997168
   145  H    0.995113
   146  H    1.008775
   147  H    1.005413
   148  H    0.991107
   149  H    0.995169
   150  H    0.994386
   151  H    1.002515
   152  H    0.985113
   153  H    0.984507
   154  H    0.986984
   155  H    0.994244
   156  H    0.995441
   157  H    0.995953
   158  H    1.001164
 Sum of Mulliken charges = 624.00000

 Dipole moment (field-independent basis, Debye):
    X=             -1.6766    Y=              9.8848    Z=              0.1927  Tot=             10.0278
 Quadrupole moment (field-independent basis, Debye-Ang):
   XX=            -97.4790   YY=              9.1433   ZZ=             -0.7592
   XY=            280.0757   XZ=              9.2597   YZ=             -1.8965

 Normal termination of Gaussian 16 at Fri Oct 15 00:49:17 2021.
