 Gaussian 16, Revision A.03,
 Gaussian 16:  ES64L-G16RevA.03 25-Dec-2016

 ---------------------------------------------------
 #p PBE1PBE/Def2SVP td=(nstates=5) density=(current)
 ---------------------------------------------------

 --------------------------------
 TDDFT excited states in gaussian
 --------------------------------
 Symbolic Z-matrix:
 Charge =  0 Multiplicity = 1

                         Standard orientation:
 ---------------------------------------------------------------------
 Center     Atomic      Atomic             Coordinates (Angstroms)
 Number     Number       Type             X           Y           Z
 ---------------------------------------------------------------------
      1         12           0       -0.708213    0.186847    0.189168
      2          6           0        2.732600    0.095258    0.308901
      3          6           0       -0.703454   -3.385325    0.277750
      4          6           0       -3.954609    0.174406   -0.283514
      5          6           0       -0.649670    3.664740   -0.064560
      6          7           0        0.885763   -1.382424    0.290282
      7          6           0        2.205050   -1.183384    0.364046
      8          6           0        2.915087   -2.563654    0.552132
      9          6           0        1.752801   -3.647936    0.395052
     10          6           0        0.521264   -2.732300    0.255945
     11          6           0        1.775996   -4.506920   -0.854647
     12          6           0        3.746455   -2.691429    1.837494
     13          6           0        5.151896   -3.187334    1.541681
     14          1           0        5.957845   -3.960303    2.595760
     15          7           0       -2.124744   -1.396912    0.102391
     16          6           0       -1.963116   -2.748625    0.203861
     17          6           0       -3.177495   -3.433092    0.162654
     18          6           0       -4.176382   -2.439222   -0.126798
     19          6           0       -3.436622   -1.130172   -0.100339
     20          6           0       -3.314608   -4.939406    0.330257
     21          6           0       -5.651146   -2.628853   -0.442172
     22          8           0       -6.305429   -1.642942   -0.833634
     23          6           0       -6.292080   -3.956150   -0.413363
     24          7           0       -2.045987    1.693378   -0.087856
     25          6           0       -3.403097    1.474954   -0.207541
     26          6           0       -4.259947    2.777850   -0.420307
     27          6           0       -3.162432    3.866785   -0.056488
     28          6           0       -1.863700    3.040460   -0.088147
     29          6           0       -4.957710    3.090915   -1.802532
     30          6           0       -3.408129    4.802800    1.212708
     31          6           0       -3.138236    4.166454    2.550591
     32          7           0        0.674266    1.606116   -0.006814
     33          6           0        0.608167    2.982949   -0.104778
     34          6           0        1.881477    3.576670   -0.151197
     35          6           0        2.722140    2.475214    0.046508
     36          6           0        1.957153    1.275895    0.136599
     37          6           0        2.066310    5.032669   -0.220860
     38          6           0        4.102836    2.178601    0.058763
     39          8           0        5.041542    2.952104   -0.141107
     40          6           0        4.219758    0.578636    0.262282
     41          6           0        4.977076    0.014022   -0.840849
     42          8           0        4.591451   -0.153324   -1.975259
     43          8           0        6.233336   -0.206837   -0.473635
     44          6           0        7.177835   -0.648339   -1.454863
     45          1           0       -0.689199   -4.476560    0.253168
     46          1           0       -5.022401    0.328786   -0.450244
     47          1           0       -0.676512    4.753246   -0.148122
     48          1           0        3.533684   -2.581275   -0.344591
     49          1           0        1.901261   -4.346119    1.219584
     50          1           0        2.656750   -4.369963   -1.482751
     51          1           0        0.934340   -4.255398   -1.499420
     52          1           0        1.573769   -5.545874   -0.592553
     53          1           0        3.306959   -3.323625    2.609230
     54          1           0        3.788230   -1.705646    2.300134
     55          1           0        5.757737   -2.291953    1.397933
     56          1           0        5.068470   -3.803599    0.646692
     57          1           0       -2.391989   -5.389778    0.696516
     58          1           0       -3.437764   -5.390747   -0.654481
     59          1           0       -4.209228   -5.191505    0.898420
     60          1           0       -7.202798   -3.960073   -1.013323
     61          1           0       -6.599442   -4.135372    0.617399
     62          1           0       -5.607877   -4.715937   -0.790335
     63          1           0       -4.995915    2.923197    0.371111
     64          1           0       -3.156054    4.623129   -0.840357
     65          1           0       -4.740492    2.263577   -2.476975
     66          1           0       -4.413725    3.897701   -2.295339
     67          1           0       -6.024916    3.314525   -1.805177
     68          1           0       -4.474754    5.025968    1.215934
     69          1           0       -2.916012    5.772713    1.151592
     70          1           0       -2.798135    4.961385    3.213387
     71          1           0       -2.469826    3.311272    2.642374
     72          1           0       -4.090534    3.762587    2.894312
     73          1           0        1.318692    5.677913    0.239775
     74          1           0        2.360945    5.432258   -1.190481
     75          1           0        2.992555    5.146077    0.341871
     76          1           0        4.749423    0.402247    1.198268
     77          1           0        7.212578   -1.735233   -1.537698
     78          1           0        8.162678   -0.340324   -1.104187
     79          1           0        6.919111   -0.235417   -2.429998
 ---------------------------------------------------------------------

 SCF Done:  E(RPBE1PBE) =  -2033.70356157     A.U. after   15 cycles

 Excitation energies and oscillator strengths:

 Excited State   1:      Singlet-A      1.8680 eV  663.72 nm  f=0.3993  <S**2>=0.000
     155 ->158        -0.16560
     156 ->157         0.69326
     156 <-157        -0.11113
 This state for optimization and/or second-order correction.
 Total Energy, E(TD-HF/TD-DFT) =  -2033.63491280
 Copying the excited state density for this state as the 1-particle RhoCI density.

 Excited State   2:      Singlet-A      2.2397 eV  553.57 nm  f=0.1496  <S**2>=0.000
     155 ->157         0.65943
     156 ->158         0.23505

 Excited State   3:      Singlet-A      2.8658 eV  432.63 nm  f=0.0002  <S**2>=0.000
     151 ->157        -0.13721
     152 ->157         0.21203
     154 ->157         0.63161
     154 ->159         0.11454

 Excited State   4:      Singlet-A      2.9119 eV  425.79 nm  f=0.0000  <S**2>=0.000
     152 ->157        -0.19159
     153 ->157         0.64786
     153 ->158        -0.10302
     153 ->159        -0.13886

 Excited State   5:      Singlet-A      3.0267 eV  409.63 nm  f=0.0043  <S**2>=0.000
     151 ->157        -0.16662
     152 ->157         0.60367
     153 ->157         0.16172
     154 ->157        -0.26918

 The electronic state is 1-A.
 Alpha  occ. eigenvalues --  -46.91108 -19.25419 -19.18916 -19.18806 -19.18424
 Alpha  occ. eigenvalues --  -14.41844 -14.41682 -14.39338 -14.38677 -10.35225
 Alpha  occ. eigenvalues --  -10.31946 -10.31702 -10.29227 -10.28926 -10.28907
 Alpha  occ. eigenvalues --  -10.28413 -10.28390 -10.27947 -10.26994 -10.26803
 Alpha  occ. eigenvalues --  -10.26797 -10.26397 -10.26138 -10.25990 -10.25907
 Alpha  occ. eigenvalues --  -10.25883 -10.25799 -10.25504 -10.25484 -10.25203
 Alpha  occ. eigenvalues --  -10.25062 -10.24998 -10.24834 -10.24457 -10.24167
 Alpha  occ. eigenvalues --  -10.23924 -10.23832 -10.23664 -10.23527 -10.23230
 Alpha  occ. eigenvalues --  -10.23053 -10.22456 -10.22389  -3.13467  -1.86308
 Alpha  occ. eigenvalues --   -1.85860  -1.85695  -1.12696  -1.03656  -1.03168
 Alpha  occ. eigenvalues --   -1.02574  -0.99292  -0.98373  -0.97939  -0.97215
 Alpha  occ. eigenvalues --   -0.86451  -0.83670  -0.83031  -0.82623  -0.81951
 Alpha  occ. eigenvalues --   -0.81896  -0.81074  -0.78869  -0.78134  -0.77235
 Alpha  occ. eigenvalues --   -0.76527  -0.75562  -0.74979  -0.72608  -0.71668
 Alpha  occ. eigenvalues --   -0.71228  -0.70278  -0.69633  -0.67928  -0.65893
 Alpha  occ. eigenvalues --   -0.64008  -0.63311  -0.62174  -0.61476  -0.59859
 Alpha  occ. eigenvalues --   -0.59435  -0.59151  -0.58900  -0.56904  -0.54950
 Alpha  occ. eigenvalues --   -0.54597  -0.53588  -0.53167  -0.52839  -0.52215
 Alpha  occ. eigenvalues --   -0.51138  -0.50614  -0.49670  -0.49171  -0.48928
 Alpha  occ. eigenvalues --   -0.48124  -0.47804  -0.47314  -0.46925  -0.46803
 Alpha  occ. eigenvalues --   -0.46648  -0.46391  -0.45880  -0.44934  -0.44797
 Alpha  occ. eigenvalues --   -0.44523  -0.44295  -0.44082  -0.43907  -0.43752
 Alpha  occ. eigenvalues --   -0.43553  -0.43085  -0.42829  -0.42451  -0.42011
 Alpha  occ. eigenvalues --   -0.41639  -0.41248  -0.41126  -0.40809  -0.40242
 Alpha  occ. eigenvalues --   -0.40214  -0.39883  -0.39708  -0.39321  -0.39219
 Alpha  occ. eigenvalues --   -0.38678  -0.38414  -0.38292  -0.38075  -0.37533
 Alpha  occ. eigenvalues --   -0.37389  -0.36875  -0.36346  -0.36327  -0.36113
 Alpha  occ. eigenvalues --   -0.35949  -0.35866  -0.35402  -0.34140  -0.33820
 Alpha  occ. eigenvalues --   -0.33127  -0.32747  -0.32211  -0.31630  -0.31351
 Alpha  occ. eigenvalues --   -0.31171  -0.29448  -0.28876  -0.28473  -0.27113
 Alpha  occ. eigenvalues --   -0.25868  -0.25504  -0.25436  -0.25277  -0.21100
 Alpha  occ. eigenvalues --   -0.19099
 Alpha virt. eigenvalues --   -0.11504  -0.05041  -0.03719  -0.01913   0.00245
 Alpha virt. eigenvalues --    0.01235   0.01764   0.02279   0.03007   0.04218
 Alpha virt. eigenvalues --    0.04725   0.05154   0.05662   0.06705   0.07141

 Mulliken charges:
               1
     1  Mg   0.994480
     2  C   -0.050565
     3  C   -0.085128
     4  C   -0.047269
     5  C   -0.090861
     6  N   -0.397759
     7  C    0.013580
     8  C   -0.046117
     9  C   -0.189436
    10  C    0.129780
    11  C   -0.002487
    12  C    0.026019
    13  C   -0.168903
    14  H    0.036093
    15  N   -0.462245
    16  C    0.170992
    17  C   -0.185389
    18  C   -0.078579
    19  C    0.184896
    20  C    0.054752
    21  C    0.036020
    22  O   -0.270000
    23  C   -0.003504
    24  N   -0.441344
    25  C    0.052582
    26  C   -0.095301
    27  C   -0.100729
    28  C    0.112019
    29  C    0.018690
    30  C   -0.048104
    31  C   -0.073454
    32  N   -0.509753
    33  C    0.145369
    34  C   -0.137765
    35  C   -0.043837
    36  C    0.219567
    37  C    0.064035
    38  C    0.109403
    39  O   -0.231577
    40  C   -0.113563
    41  C    0.262910
    42  O   -0.259697
    43  O   -0.332063
    44  C    0.121125
    45  H    0.004731
    46  H    0.025343
    47  H    0.000401
    48  H    0.053388
    49  H    0.055621
    50  H    0.050100
    51  H    0.050919
    52  H    0.042642
    53  H    0.046992
    54  H    0.041452
    55  H    0.073857
    56  H    0.063721
    57  H    0.044392
    58  H    0.060285
    59  H    0.060817
    60  H    0.054665
    61  H    0.068741
    62  H    0.049885
    63  H    0.052135
    64  H    0.043318
    65  H    0.048618
    66  H    0.034137
    67  H    0.061936
    68  H    0.039672
    69  H    0.041042
    70  H    0.043869
    71  H    0.057399
    72  H    0.035929
    73  H    0.049371
    74  H    0.059134
    75  H    0.051632
    76  H    0.071863
    77  H    0.046138
    78  H    0.058663
    79  H    0.070308
 Sum of Mulliken charges =  -0.00000

 Dipole moment (field-independent basis, Debye):
    X=             -2.0654    Y=             -2.4061    Z=              2.3473  Tot=              3.9453
 Quadrupole moment (field-independent basis, Debye-Ang):
   XX=           -270.0669   YY=           -217.5582   ZZ=           -259.7775
   XY=            -22.5763   XZ=             -3.3210   YZ=              0.4974

 Normal termination of Gaussian 16 at Wed Oct 13 17:43:51 2021.
