 Gaussian 16, Revision A.03,
 Gaussian 16:  ES64L-G16RevA.03 25-Dec-2016

 --------------------------------------------------------
 #p PBE1PBE/Def2SVP td=(nstates=5) density=(transition=1)
 --------------------------------------------------------

 --------------------------------
 TDDFT excited states in gaussian
 --------------------------------
 Symbolic Z-matrix:
 Charge =  0 Multiplicity = 1

                         Standard orientation:
 ---------------------------------------------------------------------
 Center     Atomic      Atomic             Coordinates (Angstroms)
 Number     Number       Type             X           Y           Z
 ---------------------------------------------------------------------
      1         12           0      -30.573716    0.278955    0.280848
      2          6           0      -27.954504   -1.820663   -0.815309
      3          6           0      -31.477283    0.833107   -2.967943
      4          6           0      -32.519987    2.713401    1.355832
      5          6           0      -29.241267    0.014630    3.558128
      6          7           0      -29.845989   -0.529074   -1.656786
      7          6           0      -28.820327   -1.339926   -1.826213
      8          6           0      -28.884003   -1.899307   -3.235977
      9          6           0      -29.669251   -0.785360   -4.029881
     10          6           0      -30.392489   -0.082717   -2.820999
     11          6           0      -28.695378    0.091368   -4.905478
     12          6           0      -29.673917   -3.231135   -3.311717
     13          6           0      -29.377836   -4.137860   -4.586115
     14          1           0      -28.402211   -3.700931   -5.682202
     15          7           0      -31.947946    1.425461   -0.630029
     16          6           0      -32.269233    1.491655   -2.010075
     17          6           0      -33.408131    2.424660   -2.175979
     18          6           0      -33.656509    3.042260   -0.897814
     19          6           0      -32.708160    2.422562    0.053081
     20          6           0      -34.121696    2.640367   -3.463771
     21          6           0      -34.696475    4.126371   -0.413978
     22          8           0      -34.832369    4.480792    0.764981
     23          6           0      -35.476258    4.877160   -1.454166
     24          7           0      -30.770874    1.326997    2.191713
     25          6           0      -31.676127    2.248730    2.386848
     26          6           0      -31.765909    2.772660    3.792747
     27          6           0      -30.689411    1.904769    4.534518
     28          6           0      -30.248656    0.940625    3.387647
     29          6           0      -31.644451    4.298589    3.840673
     30          6           0      -31.213805    1.128198    5.735806
     31          6           0      -30.276411    1.058305    6.994224
     32          7           0      -28.957392   -0.754738    1.294572
     33          6           0      -28.578587   -0.786896    2.650974
     34          6           0      -27.570374   -1.776198    2.819327
     35          6           0      -27.148387   -2.098351    1.490063
     36          6           0      -28.033548   -1.506696    0.624900
     37          6           0      -27.119534   -2.353898    4.130223
     38          6           0      -26.295827   -2.918301    0.596047
     39          8           0      -25.386110   -3.675295    0.864064
     40          6           0      -26.659108   -2.531399   -0.915945
     41          6           0      -26.447926   -3.697709   -1.824911
     42          8           0      -27.006839   -4.753519   -1.774420
     43          8           0      -25.403179   -3.453805   -2.735880
     44          6           0      -24.623414   -4.629381   -3.177962
     45          1           0      -31.696850    1.207379   -3.970450
     46          1           0      -33.218181    3.399121    1.839109
     47          1           0      -28.905744   -0.100932    4.590926
     48          1           0      -27.840083   -2.125123   -3.453293
     49          1           0      -30.417083   -1.218574   -4.694941
     50          1           0      -27.666224   -0.240292   -4.771966
     51          1           0      -28.728688    1.066258   -4.419033
     52          1           0      -28.895615    0.065181   -5.976681
     53          1           0      -30.718739   -2.919357   -3.341946
     54          1           0      -29.478923   -3.770914   -2.385116
     55          1           0      -30.360184   -4.312559   -5.027581
     56          1           0      -29.058163   -5.095190   -4.173778
     57          1           0      -33.922294    1.971667   -4.300362
     58          1           0      -33.907729    3.617081   -3.896859
     59          1           0      -35.171908    2.515084   -3.199043
     60          1           0      -36.399842    4.385022   -1.758577
     61          1           0      -34.717403    4.928594   -2.235900
     62          1           0      -35.650567    5.869003   -1.037978
     63          1           0      -32.771434    2.464724    4.079150
     64          1           0      -29.828922    2.472640    4.886188
     65          1           0      -31.098132    4.725093    2.998842
     66          1           0      -31.057558    4.508217    4.734068
     67          1           0      -32.612882    4.796739    3.891410
     68          1           0      -31.434517    0.094694    5.469403
     69          1           0      -32.212493    1.535285    5.893216
     70          1           0      -29.291159    1.472915    6.781651
     71          1           0      -30.170120   -0.008238    7.191337
     72          1           0      -30.611412    1.515094    7.926050
     73          1           0      -26.934461   -1.488213    4.766360
     74          1           0      -26.203901   -2.943072    4.076145
     75          1           0      -27.933478   -2.918150    4.586547
     76          1           0      -25.897960   -1.846590   -1.288462
     77          1           0      -24.787200   -4.753286   -4.248543
     78          1           0      -24.891876   -5.534297   -2.631732
     79          1           0      -23.583258   -4.371359   -2.979129
     80         12           0       30.585548    0.198756   -0.257192
     81          6           0       27.469134   -1.287849    0.156790
     82          6           0       28.967959    2.963686   -1.584688
     83          6           0       33.395916    1.937677   -0.200645
     84          6           0       32.028573   -2.389932    1.530238
     85          7           0       28.473817    0.841431   -0.517685
     86          6           0       27.374347    0.014818   -0.409187
     87          6           0       26.119788    0.641459   -0.941828
     88          6           0       26.705915    1.828026   -1.827157
     89          6           0       28.119974    1.936232   -1.272193
     90          6           0       26.537449    1.863970   -3.420085
     91          6           0       25.039519    1.056437    0.161270
     92          6           0       25.565259    1.511306    1.555233
     93          1           0       24.831704    2.694516    2.139623
     94          7           0       31.102395    2.224466   -0.705403
     95          6           0       30.277194    3.209224   -1.262640
     96          6           0       30.970466    4.460218   -1.404164
     97          6           0       32.294089    4.197414   -0.977504
     98          6           0       32.337128    2.761026   -0.571433
     99          6           0       30.325145    5.617144   -2.168702
    100          6           0       33.392952    5.283707   -1.017456
    101          8           0       33.147638    6.453160   -1.330448
    102          6           0       34.758649    4.829130   -0.715190
    103          7           0       32.390856   -0.177679    0.676933
    104          6           0       33.475459    0.595059    0.297468
    105          6           0       34.825705    0.010321    0.767179
    106          6           0       34.270656   -1.266291    1.522404
    107          6           0       32.826112   -1.268697    1.285132
    108          6           0       35.876872   -0.318545   -0.245409
    109          6           0       34.548836   -1.227308    3.109705
    110          6           0       35.087163   -2.546615    3.598697
    111          7           0       29.963887   -1.632067    0.519909
    112          6           0       30.673575   -2.585190    1.226592
    113          6           0       29.774561   -3.694402    1.619323
    114          6           0       28.481187   -3.218856    1.207203
    115          6           0       28.675452   -1.988713    0.568214
    116          6           0       30.015398   -4.858572    2.491994
    117          6           0       27.019647   -3.441617    1.213851
    118          8           0       26.381464   -4.325062    1.737908
    119          6           0       26.322936   -2.234860    0.506628
    120          6           0       25.498689   -2.705609   -0.607161
    121          8           0       24.283429   -2.618852   -0.785009
    122          8           0       26.311613   -3.577098   -1.378443
    123          6           0       25.677786   -4.122629   -2.597857
    124          1           0       28.457731    3.691758   -2.219560
    125          1           0       34.408758    2.331209   -0.307883
    126          1           0       32.592821   -3.187760    2.016406
    127          1           0       25.579848   -0.068924   -1.567765
    128          1           0       26.135335    2.667259   -1.428583
    129          1           0       25.917331    1.077354   -3.849589
    130          1           0       27.474335    1.743264   -3.963782
    131          1           0       25.962340    2.747248   -3.699240
    132          1           0       24.292028    0.272580    0.278938
    133          1           0       24.463407    1.871835   -0.276066
    134          1           0       26.633379    1.726552    1.512550
    135          1           0       25.443521    0.703456    2.276275
    136          1           0       30.633936    6.602689   -1.818775
    137          1           0       29.250893    5.610156   -1.986086
    138          1           0       30.632347    5.491789   -3.207245
    139          1           0       35.105945    4.206703   -1.539317
    140          1           0       34.768498    4.302436    0.239578
    141          1           0       35.352591    5.741575   -0.663277
    142          1           0       35.191145    0.646009    1.574025
    143          1           0       34.662686   -2.082976    0.916269
    144          1           0       36.629392   -0.899698    0.287833
    145          1           0       36.371018    0.617402   -0.506100
    146          1           0       35.434528   -0.821156   -1.106352
    147          1           0       33.605426   -0.948160    3.578732
    148          1           0       35.183490   -0.422630    3.483080
    149          1           0       34.318077   -3.012181    4.214554
    150          1           0       35.866133   -2.423743    4.351900
    151          1           0       35.246525   -3.216285    2.753812
    152          1           0       31.028297   -4.956598    2.885362
    153          1           0       29.852702   -5.736232    1.867384
    154          1           0       29.395656   -4.590406    3.347391
    155          1           0       25.714071   -1.778127    1.286518
    156          1           0       26.467886   -3.992093   -3.338206
    157          1           0       24.762043   -3.688035   -2.998757
    158          1           0       25.671024   -5.200908   -2.437505
 ---------------------------------------------------------------------

 SCF Done:  E(RPBE1PBE) =  -4067.36564275     A.U. after   17 cycles

 Excitation energies and oscillator strengths:

 Excited State   1:      Singlet-A      1.8711 eV  662.62 nm  f=0.3550  <S**2>=0.000
     309 -> 315        0.17707
     312 -> 313        0.68991
     312 <- 313       -0.10398
 This state for optimization and/or second-order correction.
 Total Energy, E(TD-HF/TD-DFT) =  -4067.29688077
 Copying the excited state density for this state as the 1-particle RhoCI density.

 Excited State   2:      Singlet-A      1.8894 eV  656.20 nm  f=0.3639  <S**2>=0.000
     310 -> 316       -0.18730
     311 -> 314        0.68566

 Excited State   3:      Singlet-A      2.0429 eV  606.89 nm  f=0.0000  <S**2>=0.000
     311 -> 313        0.70711

 Excited State   4:      Singlet-A      2.0726 eV  598.21 nm  f=0.0000  <S**2>=0.000
     312 -> 314        0.70711

 Excited State   5:      Singlet-A      2.1350 eV  580.72 nm  f=0.0939  <S**2>=0.000
     310 -> 314        0.65947
     311 -> 316        0.23135

 The electronic state is 1-A.
 Alpha  occ. eigenvalues --  -46.92485 -46.91921 -19.25004 -19.24051 -19.20747
 Alpha  occ. eigenvalues --  -19.20181 -19.19867 -19.19165 -19.19096 -19.18899
 Alpha  occ. eigenvalues --  -14.41741 -14.41672 -14.41465 -14.41122 -14.39295
 Alpha  occ. eigenvalues --  -14.39234 -14.38876 -14.37899 -10.36726 -10.35679
 Alpha  occ. eigenvalues --  -10.33611 -10.32340 -10.32267 -10.32163 -10.29639
 Alpha  occ. eigenvalues --  -10.29319 -10.28952 -10.28789 -10.28514 -10.28255
 Alpha  occ. eigenvalues --  -10.28241 -10.28189 -10.28164 -10.28032 -10.27987
 Alpha  occ. eigenvalues --  -10.27943 -10.27890 -10.27838 -10.27763 -10.26914
 Alpha  occ. eigenvalues --  -10.26707 -10.26489 -10.26457 -10.26333 -10.26282
 Alpha  occ. eigenvalues --  -10.26260 -10.26024 -10.25972 -10.25934 -10.25924
 Alpha  occ. eigenvalues --  -10.25910 -10.25867 -10.25843 -10.25767 -10.25725
 Alpha  occ. eigenvalues --  -10.25559 -10.25524 -10.25519 -10.25431 -10.25415
 Alpha  occ. eigenvalues --  -10.25167 -10.25090 -10.24940 -10.24842 -10.24752
 Alpha  occ. eigenvalues --  -10.24590 -10.24573 -10.24533 -10.24414 -10.24351
 Alpha  occ. eigenvalues --  -10.23926 -10.23898 -10.23816 -10.23684 -10.23655
 Alpha  occ. eigenvalues --  -10.23612 -10.23464 -10.23381 -10.23334 -10.23315
 Alpha  occ. eigenvalues --  -10.23264 -10.23242 -10.23208 -10.23200 -10.22862
 Alpha  occ. eigenvalues --  -10.22569  -3.14591  -3.13965  -1.87416  -1.86981
 Alpha  occ. eigenvalues --   -1.86818  -1.86806  -1.86338  -1.86185  -1.10053
 Alpha  occ. eigenvalues --   -1.09528  -1.05174  -1.04866  -1.04587  -1.04018
 Alpha  occ. eigenvalues --   -1.01948  -1.01712  -0.99691  -0.99678  -0.99115
 Alpha  occ. eigenvalues --   -0.98348  -0.97834  -0.96954  -0.96666  -0.95280
 Alpha  occ. eigenvalues --   -0.86813  -0.86352  -0.83946  -0.83559  -0.83509
 Alpha  occ. eigenvalues --   -0.83088  -0.82270  -0.81984  -0.81941  -0.81602
 Alpha  occ. eigenvalues --   -0.81478  -0.81238  -0.80424  -0.80057  -0.79028
 Alpha  occ. eigenvalues --   -0.78755  -0.78177  -0.78109  -0.76943  -0.76783
 Alpha  occ. eigenvalues --   -0.76568  -0.75919  -0.75182  -0.75053  -0.74489
 Alpha  occ. eigenvalues --   -0.74214  -0.72716  -0.72679  -0.71771  -0.71505
 Alpha  occ. eigenvalues --   -0.71085  -0.70795  -0.70500  -0.70086  -0.69763
 Alpha  occ. eigenvalues --   -0.69411  -0.67104  -0.67009  -0.66570  -0.66146
 Alpha  occ. eigenvalues --   -0.64204  -0.63738  -0.63655  -0.62987  -0.62574
 Alpha  occ. eigenvalues --   -0.61759  -0.61237  -0.60962  -0.60855  -0.60415
 Alpha  occ. eigenvalues --   -0.59586  -0.59360  -0.59066  -0.59051  -0.58538
 Alpha  occ. eigenvalues --   -0.58055  -0.57063  -0.55728  -0.54785  -0.54511
 Alpha  occ. eigenvalues --   -0.53971  -0.53753  -0.53532  -0.53101  -0.52883
 Alpha  occ. eigenvalues --   -0.52667  -0.52202  -0.52105  -0.51763  -0.51496
 Alpha  occ. eigenvalues --   -0.50919  -0.50882  -0.50352  -0.50041  -0.49896
 Alpha  occ. eigenvalues --   -0.49738  -0.49629  -0.49103  -0.48768  -0.48369
 Alpha  occ. eigenvalues --   -0.47771  -0.47734  -0.47660  -0.47598  -0.47377
 Alpha  occ. eigenvalues --   -0.47249  -0.47017  -0.46775  -0.46711  -0.46618
 Alpha  occ. eigenvalues --   -0.46482  -0.46311  -0.46249  -0.45933  -0.45716
 Alpha  occ. eigenvalues --   -0.45709  -0.45380  -0.45349  -0.45050  -0.45041
 Alpha  occ. eigenvalues --   -0.44841  -0.44777  -0.44512  -0.44289  -0.44198
 Alpha  occ. eigenvalues --   -0.44019  -0.43871  -0.43713  -0.43477  -0.43175
 Alpha  occ. eigenvalues --   -0.42970  -0.42946  -0.42932  -0.42779  -0.42669
 Alpha  occ. eigenvalues --   -0.42468  -0.42394  -0.42160  -0.41949  -0.41888
 Alpha  occ. eigenvalues --   -0.41758  -0.41635  -0.41235  -0.41069  -0.41040
 Alpha  occ. eigenvalues --   -0.40969  -0.40916  -0.40908  -0.40452  -0.40380
 Alpha  occ. eigenvalues --   -0.40299  -0.40139  -0.39879  -0.39853  -0.39795
 Alpha  occ. eigenvalues --   -0.39749  -0.39696  -0.39505  -0.39400  -0.39127
 Alpha  occ. eigenvalues --   -0.38724  -0.38652  -0.38527  -0.38266  -0.38027
 Alpha  occ. eigenvalues --   -0.37959  -0.37941  -0.37825  -0.37677  -0.37517
 Alpha  occ. eigenvalues --   -0.37392  -0.37318  -0.36989  -0.36977  -0.36855
 Alpha  occ. eigenvalues --   -0.36769  -0.36589  -0.36569  -0.36512  -0.36439
 Alpha  occ. eigenvalues --   -0.36282  -0.36084  -0.36029  -0.35848  -0.35320
 Alpha  occ. eigenvalues --   -0.35111  -0.34900  -0.34858  -0.34047  -0.33959
 Alpha  occ. eigenvalues --   -0.33653  -0.33506  -0.32953  -0.32746  -0.32523
 Alpha  occ. eigenvalues --   -0.32431  -0.31944  -0.31591  -0.31455  -0.30814
 Alpha  occ. eigenvalues --   -0.30552  -0.30400  -0.30295  -0.29699  -0.29384
 Alpha  occ. eigenvalues --   -0.29021  -0.28879  -0.28432  -0.26905  -0.26652
 Alpha  occ. eigenvalues --   -0.26359  -0.25879  -0.25761  -0.25738  -0.25522
 Alpha  occ. eigenvalues --   -0.25342  -0.25333  -0.24249  -0.20992  -0.20575
 Alpha  occ. eigenvalues --   -0.18880  -0.18859
 Alpha virt. eigenvalues --   -0.11153  -0.11026  -0.05704  -0.05493  -0.04179
 Alpha virt. eigenvalues --   -0.03523  -0.01947  -0.01748  -0.01102  -0.00493
 Alpha virt. eigenvalues --   -0.00006   0.00266   0.00807   0.01339   0.02028

 Mulliken charges:
               1
     1  Mg  11.999962
     2  C    6.000008
     3  C    5.999894
     4  C    5.999986
     5  C    6.000064
     6  N    7.000001
     7  C    5.999835
     8  C    6.000019
     9  C    5.999911
    10  C    6.000229
    11  C    6.000009
    12  C    6.000031
    13  C    5.999996
    14  H    0.999972
    15  N    6.999979
    16  C    6.000244
    17  C    6.000146
    18  C    6.000084
    19  C    6.000113
    20  C    5.999951
    21  C    6.000165
    22  O    8.000212
    23  C    5.999970
    24  N    7.000083
    25  C    6.000153
    26  C    5.999956
    27  C    6.000061
    28  C    5.999795
    29  C    5.999958
    30  C    6.000043
    31  C    6.000003
    32  N    7.000020
    33  C    5.999783
    34  C    5.999770
    35  C    5.999962
    36  C    5.999897
    37  C    6.000010
    38  C    5.999883
    39  O    7.999752
    40  C    6.000011
    41  C    5.999947
    42  O    7.999951
    43  O    7.999986
    44  C    6.000017
    45  H    1.000053
    46  H    1.000071
    47  H    0.999939
    48  H    1.000038
    49  H    1.000016
    50  H    1.000085
    51  H    0.999991
    52  H    1.000021
    53  H    0.999906
    54  H    1.000049
    55  H    0.999965
    56  H    1.000009
    57  H    1.000142
    58  H    1.000167
    59  H    1.000125
    60  H    1.000089
    61  H    1.000022
    62  H    1.000123
    63  H    0.999980
    64  H    0.999978
    65  H    0.999995
    66  H    1.000090
    67  H    0.999982
    68  H    1.000001
    69  H    0.999917
    70  H    1.000010
    71  H    1.000011
    72  H    0.999960
    73  H    0.999865
    74  H    0.999871
    75  H    0.999841
    76  H    0.999960
    77  H    0.999954
    78  H    0.999982
    79  H    0.999970
    80  Mg  12.001840
    81  C    5.979348
    82  C    6.009979
    83  C    6.028275
    84  C    5.992033
    85  N    6.993625
    86  C    6.031772
    87  C    5.989291
    88  C    6.011500
    89  C    5.968555
    90  C    6.003881
    91  C    5.997644
    92  C    5.995921
    93  H    1.007408
    94  N    7.005102
    95  C    5.961877
    96  C    5.981025
    97  C    5.987626
    98  C    5.963111
    99  C    6.002151
   100  C    5.986568
   101  O    7.981037
   102  C    6.004196
   103  N    7.002049
   104  C    5.959982
   105  C    6.015779
   106  C    5.988312
   107  C    6.033548
   108  C    6.002731
   109  C    5.995789
   110  C    6.000007
   111  N    6.999063
   112  C    6.032755
   113  C    6.031028
   114  C    6.003281
   115  C    6.027675
   116  C    5.998069
   117  C    6.016096
   118  O    8.026394
   119  C    6.001534
   120  C    6.007370
   121  O    8.009210
   122  O    7.993960
   123  C    5.997812
   124  H    0.987979
   125  H    0.994227
   126  H    1.011198
   127  H    0.999533
   128  H    0.995048
   129  H    0.986641
   130  H    1.000227
   131  H    0.997047
   132  H    0.995900
   133  H    1.008090
   134  H    1.007070
   135  H    0.993213
   136  H    0.985516
   137  H    0.985664
   138  H    0.982947
   139  H    0.991029
   140  H    0.990169
   141  H    0.987720
   142  H    0.998638
   143  H    1.001007
   144  H    0.991423
   145  H    1.005194
   146  H    0.995595
   147  H    0.999849
   148  H    1.012142
   149  H    0.996311
   150  H    1.005393
   151  H    1.000486
   152  H    1.017515
   153  H    1.017018
   154  H    1.015392
   155  H    1.006554
   156  H    1.004862
   157  H    1.006352
   158  H    1.000839
 Sum of Mulliken charges = 624.00000

 Dipole moment (field-independent basis, Debye):
    X=             -2.5267    Y=             -9.0046    Z=              3.5476  Tot=             10.0026
 Quadrupole moment (field-independent basis, Debye-Ang):
   XX=           -144.5268   YY=             -7.5889   ZZ=              0.9581
   XY=           -277.4922   XZ=            110.0980   YZ=              1.2196

 Normal termination of Gaussian 16 at Thu Oct 14 08:02:59 2021.
