 Gaussian 16, Revision A.03,
 Gaussian 16:  ES64L-G16RevA.03 25-Dec-2016

 --------------------------------------------------------
 #p PBE1PBE/Def2SVP td=(nstates=5) density=(transition=1)
 --------------------------------------------------------

 --------------------------------
 TDDFT excited states in gaussian
 --------------------------------
 Symbolic Z-matrix:
 Charge =  0 Multiplicity = 1

                         Standard orientation:
 ---------------------------------------------------------------------
 Center     Atomic      Atomic             Coordinates (Angstroms)
 Number     Number       Type             X           Y           Z
 ---------------------------------------------------------------------
      1         12           0      -13.321264   -0.654669   -0.155811
      2          6           0      -11.951844    2.110369    1.491886
      3          6           0      -15.212711    1.328302   -1.961359
      4          6           0      -15.141932   -3.385483   -1.171500
      5          6           0      -11.674197   -2.783932    2.128685
      6          7           0      -13.442349    1.446822   -0.257819
      7          6           0      -12.773391    2.433370    0.432790
      8          6           0      -13.048516    3.815011   -0.146506
      9          6           0      -14.260786    3.523083   -1.087948
     10          6           0      -14.245530    2.037881   -1.194332
     11          6           0      -15.611863    4.131721   -0.780267
     12          6           0      -11.815595    4.506228   -0.811613
     13          6           0      -12.077440    5.908202   -1.372572
     14          1           0      -11.117169    6.998416   -0.920012
     15          7           0      -15.077179   -0.984339   -1.412593
     16          6           0      -15.609580   -0.011938   -2.181815
     17          6           0      -16.592103   -0.587174   -3.058007
     18          6           0      -16.658499   -1.958585   -2.757428
     19          6           0      -15.602155   -2.153356   -1.727350
     20          6           0      -17.414552    0.213784   -4.045232
     21          6           0      -17.487323   -3.034760   -3.378602
     22          8           0      -17.601659   -4.219429   -2.964665
     23          6           0      -18.263587   -2.758408   -4.660405
     24          7           0      -13.408823   -2.733271    0.415415
     25          6           0      -14.287923   -3.619266   -0.107883
     26          6           0      -13.909083   -5.117411    0.387462
     27          6           0      -12.509960   -4.892132    1.061028
     28          6           0      -12.455933   -3.401855    1.167456
     29          6           0      -15.043661   -5.643194    1.351109
     30          6           0      -11.347760   -5.320877    0.092533
     31          6           0      -11.320123   -4.773630   -1.326098
     32          7           0      -11.977941   -0.431309    1.499525
     33          6           0      -11.424198   -1.403982    2.285878
     34          6           0      -10.616237   -0.763327    3.216488
     35          6           0      -10.755458    0.641051    3.021929
     36          6           0      -11.603171    0.794988    1.956613
     37          6           0       -9.821671   -1.350980    4.328990
     38          6           0      -10.395311    2.004599    3.472503
     39          8           0       -9.725145    2.436742    4.403352
     40          6           0      -11.095750    3.016032    2.409059
     41          6           0      -11.769217    4.135698    3.119389
     42          8           0      -12.362804    4.032729    4.233835
     43          8           0      -11.475053    5.245806    2.456125
     44          6           0      -11.643510    6.460088    3.231248
     45          1           0      -15.781616    1.937570   -2.666934
     46          1           0      -15.687084   -4.269748   -1.510132
     47          1           0      -11.083144   -3.475965    2.730575
     48          1           0      -13.255097    4.430597    0.729188
     49          1           0      -14.090214    3.850180   -2.114201
     50          1           0      -15.622477    4.997378   -0.118008
     51          1           0      -16.270027    3.356451   -0.387079
     52          1           0      -16.115465    4.281896   -1.735424
     53          1           0      -11.410987    3.860854   -1.591706
     54          1           0      -11.013916    4.581843   -0.077700
     55          1           0      -12.930900    6.377770   -0.883800
     56          1           0      -12.194878    5.886070   -2.456403
     57          1           0      -17.302165    1.294903   -3.964532
     58          1           0      -18.494661    0.172220   -3.906879
     59          1           0      -17.219079   -0.047298   -5.085749
     60          1           0      -19.071552   -2.068579   -4.418212
     61          1           0      -18.863733   -3.614937   -4.966626
     62          1           0      -17.626357   -2.463677   -5.494959
     63          1           0      -13.887469   -5.790446   -0.469674
     64          1           0      -12.591736   -5.365665    2.039362
     65          1           0      -15.954589   -5.045273    1.317796
     66          1           0      -14.763590   -5.656448    2.404555
     67          1           0      -15.404858   -6.638566    1.096530
     68          1           0      -11.511596   -6.398505    0.101554
     69          1           0      -10.344449   -5.142922    0.478394
     70          1           0      -12.267373   -4.286625   -1.558702
     71          1           0      -11.019605   -5.469287   -2.108831
     72          1           0      -10.478526   -4.081826   -1.290255
     73          1           0       -9.123402   -2.129285    4.020135
     74          1           0      -10.557315   -1.822980    4.979612
     75          1           0       -9.293139   -0.596198    4.910374
     76          1           0      -10.252378    3.427925    1.855432
     77          1           0      -10.800630    7.131194    3.061433
     78          1           0      -11.686207    6.340490    4.313562
     79          1           0      -12.554230    6.928229    2.856282
     80         12           0       13.760628   -0.613108    0.115267
     81          6           0       11.557152    2.061262   -0.605135
     82          6           0       16.331820    1.553050   -0.177986
     83          6           0       15.757920   -3.151453    0.649994
     84          6           0       10.973551   -2.820474   -0.361787
     85          7           0       13.963404    1.587679   -0.449814
     86          6           0       12.896462    2.470396   -0.434966
     87          6           0       13.473074    3.843711   -0.377202
     88          6           0       14.930823    3.672885   -0.805691
     89          6           0       15.147604    2.181447   -0.446918
     90          6           0       15.092013    3.899628   -2.355631
     91          6           0       13.354668    4.626877    1.038855
     92          6           0       12.969667    6.137559    1.077227
     93          1           0       13.762159    7.086704    0.132484
     94          7           0       15.803311   -0.742141    0.203856
     95          6           0       16.644173    0.241705    0.077070
     96          6           0       18.009387   -0.301403    0.184384
     97          6           0       17.893777   -1.648208    0.644269
     98          6           0       16.436460   -1.920522    0.490251
     99          6           0       19.378777    0.421886   -0.085859
    100          6           0       18.937040   -2.641926    1.154163
    101          8           0       18.699276   -3.837176    1.413015
    102          6           0       20.335001   -2.239275    1.148187
    103          7           0       13.394126   -2.757382   -0.037691
    104          6           0       14.419618   -3.610959    0.360495
    105          6           0       13.833256   -5.064434    0.538933
    106          6           0       12.310214   -4.859737    0.343958
    107          6           0       12.193676   -3.374142   -0.004362
    108          6           0       14.521910   -6.100020   -0.350388
    109          6           0       11.400531   -5.352982    1.497218
    110          6           0       10.067423   -6.040112    1.119822
    111          7           0       11.696354   -0.473997   -0.392425
    112          6           0       10.712110   -1.435480   -0.598605
    113          6           0        9.447128   -0.766976   -0.768556
    114          6           0        9.742937    0.595398   -0.834732
    115          6           0       11.133754    0.760182   -0.587547
    116          6           0        8.177230   -1.361492   -0.833228
    117          6           0        9.180032    1.947665   -0.963213
    118          8           0        8.039355    2.361960   -1.095862
    119          6           0       10.358631    2.960732   -0.790064
    120          6           0       10.388048    3.834717   -2.031243
    121          8           0       10.871250    3.700077   -3.132603
    122          8           0        9.782325    4.973076   -1.583583
    123          6           0        9.921115    6.197852   -2.407080
    124          1           0       17.166765    2.257370   -0.182345
    125          1           0       16.427430   -3.926268    1.029131
    126          1           0       10.085496   -3.450790   -0.286997
    127          1           0       13.029204    4.577473   -1.050472
    128          1           0       15.623983    4.221442   -0.168414
    129          1           0       16.050384    4.331766   -2.641538
    130          1           0       14.398674    4.639363   -2.756598
    131          1           0       15.030573    2.902794   -2.790921
    132          1           0       14.252149    4.441527    1.628084
    133          1           0       12.609728    4.134610    1.665129
    134          1           0       13.268218    6.422791    2.086647
    135          1           0       11.899394    6.095082    0.875069
    136          1           0       19.993311    0.602864    0.795720
    137          1           0       19.143871    1.374892   -0.560716
    138          1           0       20.092211   -0.143190   -0.685753
    139          1           0       20.474638   -1.307819    1.697447
    140          1           0       20.699120   -2.119104    0.127777
    141          1           0       20.872424   -2.962210    1.761119
    142          1           0       13.943418   -5.301991    1.597118
    143          1           0       11.983246   -5.295132   -0.600102
    144          1           0       14.002660   -6.148253   -1.308115
    145          1           0       14.471444   -7.122765    0.021807
    146          1           0       15.493769   -5.713731   -0.655812
    147          1           0       11.195425   -4.597290    2.255323
    148          1           0       11.926634   -6.071083    2.127657
    149          1           0        9.325897   -5.246361    1.211543
    150          1           0        9.891901   -6.759620    1.920219
    151          1           0       10.126940   -6.448583    0.111378
    152          1           0        7.352639   -0.836143   -1.314529
    153          1           0        7.913777   -1.645133    0.186200
    154          1           0        8.310823   -2.255487   -1.441273
    155          1           0       10.208652    3.557265    0.109612
    156          1           0       10.130370    6.988840   -1.687478
    157          1           0        9.041259    6.499072   -2.975038
    158          1           0       10.775515    6.101094   -3.076446
 ---------------------------------------------------------------------

 SCF Done:  E(RPBE1PBE) =  -4067.38234250     A.U. after   17 cycles

 Excitation energies and oscillator strengths:

 Excited State   1:      Singlet-A      1.7461 eV  710.07 nm  f=0.0000  <S**2>=0.000
     312 -> 313        0.70710
 This state for optimization and/or second-order correction.
 Total Energy, E(TD-HF/TD-DFT) =  -4067.31817481
 Copying the excited state density for this state as the 1-particle RhoCI density.

 Excited State   2:      Singlet-A      1.8525 eV  669.29 nm  f=0.4139  <S**2>=0.000
     309 -> 316        0.15600
     311 -> 313        0.69506
     311 <- 313       -0.11145

 Excited State   3:      Singlet-A      1.8849 eV  657.76 nm  f=0.3467  <S**2>=0.000
     310 -> 315        0.17623
     312 -> 314        0.68735

 Excited State   4:      Singlet-A      2.1525 eV  575.99 nm  f=0.1509  <S**2>=0.000
     309 -> 313        0.66969
     311 -> 316       -0.19779

 Excited State   5:      Singlet-A      2.1703 eV  571.28 nm  f=0.0000  <S**2>=0.000
     311 -> 314        0.70709

 The electronic state is 1-A.
 Alpha  occ. eigenvalues --  -46.92734 -46.92725 -19.27297 -19.25052 -19.20248
 Alpha  occ. eigenvalues --  -19.19404 -19.19373 -19.19071 -19.18912 -19.18868
 Alpha  occ. eigenvalues --  -14.42301 -14.41341 -14.41296 -14.40912 -14.39420
 Alpha  occ. eigenvalues --  -14.39202 -14.38657 -14.37832 -10.36278 -10.36238
 Alpha  occ. eigenvalues --  -10.32629 -10.32554 -10.32164 -10.31984 -10.29560
 Alpha  occ. eigenvalues --  -10.29438 -10.29233 -10.28827 -10.28686 -10.28659
 Alpha  occ. eigenvalues --  -10.28561 -10.28382 -10.28138 -10.28102 -10.27994
 Alpha  occ. eigenvalues --  -10.27939 -10.27696 -10.27545 -10.27360 -10.27337
 Alpha  occ. eigenvalues --  -10.27064 -10.27024 -10.26715 -10.26307 -10.26186
 Alpha  occ. eigenvalues --  -10.26112 -10.26052 -10.25951 -10.25927 -10.25785
 Alpha  occ. eigenvalues --  -10.25690 -10.25636 -10.25570 -10.25544 -10.25523
 Alpha  occ. eigenvalues --  -10.25368 -10.25348 -10.25330 -10.25246 -10.25182
 Alpha  occ. eigenvalues --  -10.25157 -10.25041 -10.24982 -10.24952 -10.24863
 Alpha  occ. eigenvalues --  -10.24637 -10.24481 -10.24362 -10.24206 -10.24181
 Alpha  occ. eigenvalues --  -10.24175 -10.24017 -10.23843 -10.23768 -10.23703
 Alpha  occ. eigenvalues --  -10.23258 -10.23257 -10.23180 -10.23177 -10.23110
 Alpha  occ. eigenvalues --  -10.23081 -10.22820 -10.22691 -10.22568 -10.22493
 Alpha  occ. eigenvalues --  -10.22249  -3.14705  -3.14697  -1.87546  -1.87543
 Alpha  occ. eigenvalues --   -1.87081  -1.87041  -1.86934  -1.86919  -1.12921
 Alpha  occ. eigenvalues --   -1.10885  -1.04343  -1.03992  -1.03699  -1.02809
 Alpha  occ. eigenvalues --   -1.02597  -1.00746  -0.99858  -0.99777  -0.98898
 Alpha  occ. eigenvalues --   -0.98548  -0.98059  -0.97682  -0.97178  -0.96742
 Alpha  occ. eigenvalues --   -0.87141  -0.86253  -0.83790  -0.83524  -0.83171
 Alpha  occ. eigenvalues --   -0.82765  -0.82558  -0.82289  -0.82106  -0.81892
 Alpha  occ. eigenvalues --   -0.81407  -0.81327  -0.81160  -0.80181  -0.79062
 Alpha  occ. eigenvalues --   -0.78503  -0.78045  -0.77879  -0.77130  -0.76963
 Alpha  occ. eigenvalues --   -0.76572  -0.76010  -0.75835  -0.75604  -0.74967
 Alpha  occ. eigenvalues --   -0.74816  -0.72899  -0.72646  -0.71910  -0.71742
 Alpha  occ. eigenvalues --   -0.71631  -0.71336  -0.70471  -0.70161  -0.69543
 Alpha  occ. eigenvalues --   -0.69459  -0.67234  -0.66980  -0.66262  -0.66108
 Alpha  occ. eigenvalues --   -0.64138  -0.63537  -0.63214  -0.63104  -0.62595
 Alpha  occ. eigenvalues --   -0.62213  -0.62181  -0.61710  -0.59964  -0.59831
 Alpha  occ. eigenvalues --   -0.59831  -0.59759  -0.59426  -0.59245  -0.59026
 Alpha  occ. eigenvalues --   -0.58892  -0.57318  -0.56525  -0.55370  -0.54979
 Alpha  occ. eigenvalues --   -0.54237  -0.54124  -0.53834  -0.53817  -0.53119
 Alpha  occ. eigenvalues --   -0.52938  -0.52385  -0.52102  -0.52068  -0.51840
 Alpha  occ. eigenvalues --   -0.50749  -0.50740  -0.50505  -0.50429  -0.50282
 Alpha  occ. eigenvalues --   -0.49976  -0.49895  -0.49724  -0.49010  -0.48887
 Alpha  occ. eigenvalues --   -0.48268  -0.48118  -0.47991  -0.47798  -0.47620
 Alpha  occ. eigenvalues --   -0.47471  -0.47386  -0.47258  -0.47030  -0.46987
 Alpha  occ. eigenvalues --   -0.46663  -0.46269  -0.46248  -0.46124  -0.46113
 Alpha  occ. eigenvalues --   -0.45873  -0.45565  -0.45382  -0.45186  -0.44954
 Alpha  occ. eigenvalues --   -0.44817  -0.44652  -0.44601  -0.44138  -0.44066
 Alpha  occ. eigenvalues --   -0.43931  -0.43656  -0.43550  -0.43476  -0.43421
 Alpha  occ. eigenvalues --   -0.43218  -0.43008  -0.42879  -0.42856  -0.42677
 Alpha  occ. eigenvalues --   -0.42344  -0.42078  -0.41968  -0.41791  -0.41616
 Alpha  occ. eigenvalues --   -0.41465  -0.41450  -0.41353  -0.41139  -0.40994
 Alpha  occ. eigenvalues --   -0.40983  -0.40699  -0.40629  -0.40616  -0.40309
 Alpha  occ. eigenvalues --   -0.40159  -0.39962  -0.39756  -0.39639  -0.39545
 Alpha  occ. eigenvalues --   -0.39477  -0.39174  -0.39165  -0.39005  -0.38789
 Alpha  occ. eigenvalues --   -0.38632  -0.38605  -0.38493  -0.38367  -0.38134
 Alpha  occ. eigenvalues --   -0.37995  -0.37818  -0.37775  -0.37531  -0.37531
 Alpha  occ. eigenvalues --   -0.37431  -0.37247  -0.37168  -0.36998  -0.36992
 Alpha  occ. eigenvalues --   -0.36669  -0.36428  -0.36373  -0.36215  -0.36156
 Alpha  occ. eigenvalues --   -0.36113  -0.35749  -0.35642  -0.35414  -0.35290
 Alpha  occ. eigenvalues --   -0.35088  -0.34717  -0.34594  -0.34487  -0.34155
 Alpha  occ. eigenvalues --   -0.33693  -0.33595  -0.32798  -0.32660  -0.32384
 Alpha  occ. eigenvalues --   -0.32291  -0.31947  -0.31614  -0.31582  -0.31384
 Alpha  occ. eigenvalues --   -0.31306  -0.30944  -0.29583  -0.29247  -0.29166
 Alpha  occ. eigenvalues --   -0.29119  -0.28592  -0.28205  -0.27332  -0.26884
 Alpha  occ. eigenvalues --   -0.26476  -0.26316  -0.25906  -0.25573  -0.25345
 Alpha  occ. eigenvalues --   -0.25205  -0.24940  -0.24371  -0.20951  -0.20902
 Alpha  occ. eigenvalues --   -0.19276  -0.18617
 Alpha virt. eigenvalues --   -0.11715  -0.10806  -0.05552  -0.04867  -0.04252
 Alpha virt. eigenvalues --   -0.04071  -0.02141  -0.02010  -0.00987  -0.00873
 Alpha virt. eigenvalues --   -0.00215   0.00582   0.01131   0.01276   0.01566

 Mulliken charges:
               1
     1  Mg  12.000000
     2  C    6.000000
     3  C    6.000000
     4  C    6.000000
     5  C    6.000000
     6  N    7.000000
     7  C    6.000000
     8  C    6.000000
     9  C    6.000000
    10  C    6.000000
    11  C    6.000000
    12  C    6.000000
    13  C    6.000000
    14  H    1.000000
    15  N    7.000000
    16  C    6.000000
    17  C    6.000000
    18  C    6.000000
    19  C    6.000000
    20  C    6.000000
    21  C    6.000000
    22  O    8.000000
    23  C    6.000000
    24  N    7.000000
    25  C    6.000000
    26  C    6.000000
    27  C    6.000000
    28  C    6.000000
    29  C    6.000000
    30  C    6.000000
    31  C    6.000000
    32  N    7.000000
    33  C    6.000000
    34  C    6.000000
    35  C    6.000000
    36  C    6.000000
    37  C    6.000000
    38  C    6.000000
    39  O    8.000000
    40  C    6.000000
    41  C    6.000000
    42  O    8.000000
    43  O    8.000000
    44  C    6.000000
    45  H    1.000000
    46  H    1.000000
    47  H    1.000000
    48  H    1.000000
    49  H    1.000000
    50  H    1.000000
    51  H    1.000000
    52  H    1.000000
    53  H    1.000000
    54  H    1.000000
    55  H    1.000000
    56  H    1.000000
    57  H    1.000000
    58  H    1.000000
    59  H    1.000000
    60  H    1.000000
    61  H    1.000000
    62  H    1.000000
    63  H    1.000000
    64  H    1.000000
    65  H    1.000000
    66  H    1.000000
    67  H    1.000000
    68  H    1.000000
    69  H    1.000000
    70  H    1.000000
    71  H    1.000000
    72  H    1.000000
    73  H    1.000000
    74  H    1.000000
    75  H    1.000000
    76  H    1.000000
    77  H    1.000000
    78  H    1.000000
    79  H    1.000000
    80  Mg  12.000000
    81  C    6.000000
    82  C    6.000000
    83  C    6.000000
    84  C    6.000000
    85  N    7.000000
    86  C    6.000000
    87  C    6.000000
    88  C    6.000000
    89  C    6.000000
    90  C    6.000000
    91  C    6.000000
    92  C    6.000000
    93  H    1.000000
    94  N    7.000000
    95  C    6.000000
    96  C    6.000000
    97  C    6.000000
    98  C    6.000000
    99  C    6.000000
   100  C    6.000000
   101  O    8.000000
   102  C    6.000000
   103  N    7.000000
   104  C    6.000000
   105  C    6.000000
   106  C    6.000000
   107  C    6.000000
   108  C    6.000000
   109  C    6.000000
   110  C    6.000000
   111  N    7.000000
   112  C    6.000000
   113  C    6.000000
   114  C    6.000000
   115  C    6.000000
   116  C    6.000000
   117  C    6.000000
   118  O    8.000000
   119  C    6.000000
   120  C    6.000000
   121  O    8.000000
   122  O    8.000000
   123  C    6.000000
   124  H    1.000000
   125  H    1.000000
   126  H    1.000000
   127  H    1.000000
   128  H    1.000000
   129  H    1.000000
   130  H    1.000000
   131  H    1.000000
   132  H    1.000000
   133  H    1.000000
   134  H    1.000000
   135  H    1.000000
   136  H    1.000000
   137  H    1.000000
   138  H    1.000000
   139  H    1.000000
   140  H    1.000000
   141  H    1.000000
   142  H    1.000000
   143  H    1.000000
   144  H    1.000000
   145  H    1.000000
   146  H    1.000000
   147  H    1.000000
   148  H    1.000000
   149  H    1.000000
   150  H    1.000000
   151  H    1.000000
   152  H    1.000000
   153  H    1.000000
   154  H    1.000000
   155  H    1.000000
   156  H    1.000000
   157  H    1.000000
   158  H    1.000000
 Sum of Mulliken charges = 624.00000

 Dipole moment (field-independent basis, Debye):
    X=              0.0000    Y=             -0.0000    Z=             -0.0000  Tot=              0.0000
 Quadrupole moment (field-independent basis, Debye-Ang):
   XX=              0.0000   YY=             -0.0000   ZZ=             -0.0000
   XY=             -0.0000   XZ=              0.0000   YZ=              0.0000

 Normal termination of Gaussian 16 at Thu Oct 14 09:09:26 2021.
