 Gaussian 16, Revision A.03,
 Gaussian 16:  ES64L-G16RevA.03 25-Dec-2016

 --------------------------------------------------------
 #p PBE1PBE/Def2SVP td=(nstates=5) density=(transition=1)
 --------------------------------------------------------

 --------------------------------
 TDDFT excited states in gaussian
 --------------------------------
 Symbolic Z-matrix:
 Charge =  0 Multiplicity = 1

                         Standard orientation:
 ---------------------------------------------------------------------
 Center     Atomic      Atomic             Coordinates (Angstroms)
 Number     Number       Type             X           Y           Z
 ---------------------------------------------------------------------
      1         12           0       25.571289    0.693987   -0.251113
      2          6           0       26.474940   -2.056726    1.550730
      3          6           0       23.620772   -1.407811   -2.322790
      4          6           0       24.843982    3.328817   -2.185520
      5          6           0       27.445315    2.644113    1.866388
      6          7           0       25.344116   -1.492625   -0.577758
      7          6           0       25.738466   -2.422993    0.392276
      8          6           0       25.275000   -3.864367    0.037882
      9          6           0       24.442535   -3.545276   -1.232307
     10          6           0       24.510633   -2.044882   -1.452556
     11          6           0       24.686008   -4.313295   -2.600841
     12          6           0       24.432971   -4.639175    1.144774
     13          6           0       23.997987   -6.048857    0.662004
     14          1           0       24.755879   -7.184014    1.351833
     15          7           0       24.324623    0.929660   -2.024658
     16          6           0       23.456244   -0.012541   -2.532502
     17          6           0       22.825359    0.614315   -3.688113
     18          6           0       23.197909    1.996234   -3.640674
     19          6           0       24.141036    2.162380   -2.579935
     20          6           0       21.925322   -0.156257   -4.575113
     21          6           0       22.738791    3.044056   -4.713924
     22          8           0       23.219022    4.191759   -4.809235
     23          6           0       21.717108    2.658897   -5.751858
     24          7           0       26.066519    2.584780   -0.194146
     25          6           0       25.649919    3.563516   -1.139821
     26          6           0       26.437815    4.843516   -0.976395
     27          6           0       26.825598    4.725988    0.496358
     28          6           0       26.738679    3.236094    0.795318
     29          6           0       27.677653    4.924601   -1.929011
     30          6           0       25.840207    5.457905    1.434753
     31          6           0       26.049465    6.926467    1.689746
     32          7           0       26.798826    0.452426    1.387582
     33          6           0       27.370712    1.317185    2.240950
     34          6           0       28.057132    0.588896    3.266749
     35          6           0       27.731009   -0.735800    3.067629
     36          6           0       26.917720   -0.772012    1.924303
     37          6           0       28.839462    1.261300    4.340421
     38          6           0       27.914661   -2.022397    3.589631
     39          8           0       28.507638   -2.419226    4.574154
     40          6           0       27.082754   -2.969120    2.603128
     41          6           0       28.013964   -3.995672    2.062512
     42          8           0       28.940463   -3.816216    1.310065
     43          8           0       27.620475   -5.228768    2.394957
     44          6           0       28.458990   -6.369045    1.858374
     45          1           0       22.924659   -2.089847   -2.815152
     46          1           0       24.610372    4.198432   -2.803036
     47          1           0       27.953921    3.206566    2.651698
     48          1           0       26.152815   -4.452041   -0.230971
     49          1           0       23.385931   -3.718003   -1.025541
     50          1           0       23.799671   -4.528997   -3.198075
     51          1           0       25.355703   -5.157537   -2.435973
     52          1           0       25.215275   -3.587646   -3.218280
     53          1           0       23.617733   -3.951341    1.365834
     54          1           0       25.047631   -4.725617    2.040683
     55          1           0       24.025977   -6.093908   -0.426707
     56          1           0       22.957598   -6.169272    0.962554
     57          1           0       22.421035   -0.266529   -5.539776
     58          1           0       20.964682    0.357631   -4.540255
     59          1           0       21.719084   -1.141198   -4.155987
     60          1           0       21.474887    3.522263   -6.371565
     61          1           0       20.814357    2.469396   -5.169520
     62          1           0       21.945014    1.794489   -6.374973
     63          1           0       25.817066    5.716927   -1.178119
     64          1           0       27.837228    5.072342    0.706893
     65          1           0       28.476604    4.266165   -1.590296
     66          1           0       28.033889    5.952671   -1.999543
     67          1           0       27.308215    4.618540   -2.907136
     68          1           0       25.740000    4.973809    2.405372
     69          1           0       24.823300    5.329390    1.063699
     70          1           0       25.144730    7.431719    1.352904
     71          1           0       26.810481    7.195214    0.956964
     72          1           0       26.361013    7.170962    2.705386
     73          1           0       28.235751    1.363848    5.241313
     74          1           0       29.373444    2.180033    4.095804
     75          1           0       29.626717    0.553208    4.599723
     76          1           0       26.292052   -3.450628    3.178947
     77          1           0       28.566235   -6.206462    0.785690
     78          1           0       27.986119   -7.344130    1.978332
     79          1           0       29.425326   -6.335273    2.362000
     80         12           0      -25.426732    0.463791    0.527958
     81          6           0      -25.848330   -1.847629   -1.965063
     82          6           0      -24.949603   -1.995257    2.747146
     83          6           0      -25.279846    2.847215    2.907216
     84          6           0      -26.465271    3.040735   -1.817265
     85          7           0      -25.677542   -1.735393    0.415858
     86          6           0      -25.732243   -2.468344   -0.702780
     87          6           0      -25.618724   -4.041523   -0.359391
     88          6           0      -25.320554   -3.959646    1.184427
     89          6           0      -25.349752   -2.455910    1.524599
     90          6           0      -26.237549   -4.854421    2.040843
     91          6           0      -24.516760   -4.782770   -1.168428
     92          6           0      -24.065078   -6.198361   -0.681603
     93          1           0      -24.600502   -7.450444   -1.474635
     94          7           0      -25.197628    0.422844    2.577543
     95          6           0      -24.916321   -0.648651    3.289396
     96          6           0      -24.706003   -0.245817    4.671668
     97          6           0      -24.900040    1.162180    4.802681
     98          6           0      -25.134672    1.540507    3.391802
     99          6           0      -24.489236   -1.189968    5.842668
    100          6           0      -24.918399    2.054410    6.039478
    101          8           0      -25.387166    3.188143    5.995484
    102          6           0      -24.358891    1.523824    7.312884
    103          7           0      -25.865913    2.638943    0.541442
    104          6           0      -25.678458    3.374868    1.630521
    105          6           0      -25.804184    4.879614    1.339942
    106          6           0      -25.962656    4.865077   -0.178209
    107          6           0      -26.141157    3.425650   -0.487921
    108          6           0      -26.887491    5.670802    2.087956
    109          6           0      -24.919610    5.667094   -0.914536
    110          6           0      -25.443241    6.900660   -1.733166
    111          7           0      -25.971066    0.614187   -1.436890
    112          6           0      -26.288000    1.718710   -2.296871
    113          6           0      -26.443189    1.285480   -3.668105
    114          6           0      -26.251166   -0.117265   -3.528702
    115          6           0      -25.988413   -0.449771   -2.193794
    116          6           0      -26.585095    2.050648   -4.936445
    117          6           0      -26.060630   -1.271624   -4.370170
    118          8           0      -25.939216   -1.440592   -5.592693
    119          6           0      -25.922467   -2.466663   -3.460417
    120          6           0      -27.218136   -3.302370   -3.553815
    121          8           0      -28.386962   -2.887238   -3.576985
    122          8           0      -26.856815   -4.616098   -3.599749
    123          6           0      -27.947036   -5.634122   -3.730104
    124          1           0      -24.658536   -2.688749    3.538870
    125          1           0      -25.448415    3.648163    3.630077
    126          1           0      -26.635648    3.882654   -2.490670
    127          1           0      -26.621728   -4.420218   -0.552675
    128          1           0      -24.286461   -4.270141    1.333746
    129          1           0      -25.603588   -5.334263    2.785667
    130          1           0      -26.690194   -5.654246    1.454660
    131          1           0      -27.017997   -4.264738    2.521907
    132          1           0      -23.610896   -4.197071   -1.012086
    133          1           0      -24.830348   -4.897383   -2.205972
    134          1           0      -24.503144   -6.345125    0.306180
    135          1           0      -22.977445   -6.248835   -0.719302
    136          1           0      -24.473399   -2.230112    5.517244
    137          1           0      -25.295576   -1.066506    6.565221
    138          1           0      -23.555376   -0.982791    6.363700
    139          1           0      -23.383581    1.115928    7.045903
    140          1           0      -24.852011    0.751452    7.902334
    141          1           0      -24.228922    2.295522    8.070860
    142          1           0      -24.853346    5.344142    1.598895
    143          1           0      -26.907476    5.357948   -0.406636
    144          1           0      -26.406768    6.621668    2.316537
    145          1           0      -27.244392    5.110913    2.952268
    146          1           0      -27.818291    5.793345    1.534243
    147          1           0      -24.547068    4.971863   -1.666172
    148          1           0      -24.127131    6.048905   -0.271522
    149          1           0      -26.528661    6.966742   -1.653749
    150          1           0      -25.190841    6.723204   -2.779038
    151          1           0      -24.963823    7.852455   -1.503929
    152          1           0      -26.422268    3.112553   -4.754098
    153          1           0      -27.639269    1.970949   -5.199382
    154          1           0      -25.842779    1.615547   -5.607148
    155          1           0      -25.061150   -3.004298   -3.857331
    156          1           0      -28.796598   -5.492298   -3.061651
    157          1           0      -27.610491   -6.667010   -3.647100
    158          1           0      -28.361517   -5.484576   -4.726924
 ---------------------------------------------------------------------

 SCF Done:  E(RPBE1PBE) =  -4067.40111684     A.U. after   17 cycles

 Excitation energies and oscillator strengths:

 Excited State   1:      Singlet-A      1.8106 eV  684.78 nm  f=0.3715  <S**2>=0.000
     309 -> 316        0.15515
     311 -> 313        0.69952
     311 <- 313       -0.12511
 This state for optimization and/or second-order correction.
 Total Energy, E(TD-HF/TD-DFT) =  -4067.33458003
 Copying the excited state density for this state as the 1-particle RhoCI density.

 Excited State   2:      Singlet-A      1.8790 eV  659.82 nm  f=0.3896  <S**2>=0.000
     310 -> 315       -0.16678
     312 -> 314        0.69068
     312 <- 314       -0.10565

 Excited State   3:      Singlet-A      1.8941 eV  654.58 nm  f=0.0000  <S**2>=0.000
     312 -> 313        0.70711

 Excited State   4:      Singlet-A      2.0398 eV  607.83 nm  f=0.0000  <S**2>=0.000
     311 -> 314        0.70711

 Excited State   5:      Singlet-A      2.2535 eV  550.20 nm  f=0.1023  <S**2>=0.000
     309 -> 313        0.64875
     311 -> 316       -0.26376

 The electronic state is 1-A.
 Alpha  occ. eigenvalues --  -46.92601 -46.90923 -19.26314 -19.25513 -19.19747
 Alpha  occ. eigenvalues --  -19.19683 -19.19498 -19.18905 -19.18904 -19.18020
 Alpha  occ. eigenvalues --  -14.42165 -14.41467 -14.41397 -14.41389 -14.39654
 Alpha  occ. eigenvalues --  -14.38982 -14.38617 -14.38481 -10.36651 -10.35472
 Alpha  occ. eigenvalues --  -10.33169 -10.32500 -10.31973 -10.30556 -10.29783
 Alpha  occ. eigenvalues --  -10.29496 -10.29429 -10.29428 -10.29049 -10.28668
 Alpha  occ. eigenvalues --  -10.28392 -10.28268 -10.28122 -10.27932 -10.27863
 Alpha  occ. eigenvalues --  -10.27823 -10.27816 -10.27355 -10.27174 -10.26994
 Alpha  occ. eigenvalues --  -10.26893 -10.26586 -10.26547 -10.26452 -10.26410
 Alpha  occ. eigenvalues --  -10.26300 -10.26221 -10.26212 -10.26161 -10.25845
 Alpha  occ. eigenvalues --  -10.25630 -10.25627 -10.25623 -10.25617 -10.25611
 Alpha  occ. eigenvalues --  -10.25600 -10.25240 -10.25205 -10.25094 -10.24980
 Alpha  occ. eigenvalues --  -10.24970 -10.24963 -10.24849 -10.24567 -10.24523
 Alpha  occ. eigenvalues --  -10.24464 -10.24380 -10.24295 -10.24078 -10.24068
 Alpha  occ. eigenvalues --  -10.24034 -10.23977 -10.23918 -10.23791 -10.23668
 Alpha  occ. eigenvalues --  -10.23649 -10.23538 -10.23296 -10.23275 -10.23218
 Alpha  occ. eigenvalues --  -10.23216 -10.23178 -10.23162 -10.22577 -10.22540
 Alpha  occ. eigenvalues --  -10.22220  -3.14707  -3.13278  -1.87539  -1.87075
 Alpha  occ. eigenvalues --   -1.86943  -1.86123  -1.85670  -1.85499  -1.11639
 Alpha  occ. eigenvalues --   -1.10368  -1.05090  -1.05057  -1.03117  -1.02770
 Alpha  occ. eigenvalues --   -1.01915  -1.01396  -1.00354  -1.00074  -0.99062
 Alpha  occ. eigenvalues --   -0.98587  -0.98543  -0.97755  -0.97695  -0.96743
 Alpha  occ. eigenvalues --   -0.87633  -0.85689  -0.84247  -0.83409  -0.83145
 Alpha  occ. eigenvalues --   -0.83020  -0.82954  -0.82504  -0.82214  -0.81800
 Alpha  occ. eigenvalues --   -0.81514  -0.81490  -0.81329  -0.80917  -0.78660
 Alpha  occ. eigenvalues --   -0.78486  -0.78288  -0.77619  -0.76825  -0.76522
 Alpha  occ. eigenvalues --   -0.76414  -0.75842  -0.75523  -0.75418  -0.74930
 Alpha  occ. eigenvalues --   -0.74440  -0.72882  -0.72763  -0.71882  -0.71857
 Alpha  occ. eigenvalues --   -0.71540  -0.71058  -0.70492  -0.70417  -0.69721
 Alpha  occ. eigenvalues --   -0.69610  -0.67660  -0.67125  -0.66281  -0.66165
 Alpha  occ. eigenvalues --   -0.63891  -0.63800  -0.63472  -0.63340  -0.62689
 Alpha  occ. eigenvalues --   -0.62232  -0.62008  -0.60581  -0.60314  -0.60260
 Alpha  occ. eigenvalues --   -0.59483  -0.59422  -0.59213  -0.58940  -0.58719
 Alpha  occ. eigenvalues --   -0.58453  -0.57230  -0.56645  -0.55255  -0.54832
 Alpha  occ. eigenvalues --   -0.54602  -0.54254  -0.53733  -0.53519  -0.53496
 Alpha  occ. eigenvalues --   -0.53283  -0.52917  -0.52638  -0.52429  -0.51898
 Alpha  occ. eigenvalues --   -0.51168  -0.50918  -0.50478  -0.50255  -0.49685
 Alpha  occ. eigenvalues --   -0.49683  -0.49254  -0.49135  -0.48843  -0.48664
 Alpha  occ. eigenvalues --   -0.48328  -0.48041  -0.48022  -0.48005  -0.47419
 Alpha  occ. eigenvalues --   -0.47299  -0.47166  -0.47108  -0.46826  -0.46794
 Alpha  occ. eigenvalues --   -0.46398  -0.46330  -0.46304  -0.45919  -0.45783
 Alpha  occ. eigenvalues --   -0.45685  -0.45352  -0.45042  -0.45031  -0.44909
 Alpha  occ. eigenvalues --   -0.44607  -0.44599  -0.44468  -0.44402  -0.44293
 Alpha  occ. eigenvalues --   -0.44237  -0.43985  -0.43844  -0.43629  -0.43598
 Alpha  occ. eigenvalues --   -0.43580  -0.43428  -0.43219  -0.42988  -0.42879
 Alpha  occ. eigenvalues --   -0.42754  -0.42481  -0.42390  -0.42311  -0.42166
 Alpha  occ. eigenvalues --   -0.41969  -0.41862  -0.41624  -0.41488  -0.41349
 Alpha  occ. eigenvalues --   -0.41193  -0.41143  -0.40923  -0.40868  -0.40690
 Alpha  occ. eigenvalues --   -0.40580  -0.40201  -0.39967  -0.39731  -0.39578
 Alpha  occ. eigenvalues --   -0.39450  -0.39294  -0.39158  -0.39016  -0.38876
 Alpha  occ. eigenvalues --   -0.38822  -0.38692  -0.38591  -0.38580  -0.38389
 Alpha  occ. eigenvalues --   -0.38367  -0.38234  -0.37780  -0.37726  -0.37698
 Alpha  occ. eigenvalues --   -0.37027  -0.36901  -0.36869  -0.36819  -0.36759
 Alpha  occ. eigenvalues --   -0.36730  -0.36563  -0.36401  -0.36376  -0.36008
 Alpha  occ. eigenvalues --   -0.35973  -0.35805  -0.35704  -0.35607  -0.35415
 Alpha  occ. eigenvalues --   -0.35349  -0.34942  -0.34760  -0.34244  -0.34029
 Alpha  occ. eigenvalues --   -0.33383  -0.33257  -0.32999  -0.32895  -0.32494
 Alpha  occ. eigenvalues --   -0.32110  -0.32000  -0.31698  -0.31688  -0.31518
 Alpha  occ. eigenvalues --   -0.31227  -0.31042  -0.29523  -0.29514  -0.29157
 Alpha  occ. eigenvalues --   -0.29132  -0.28696  -0.28491  -0.27085  -0.26801
 Alpha  occ. eigenvalues --   -0.26647  -0.26221  -0.26164  -0.26008  -0.25432
 Alpha  occ. eigenvalues --   -0.25386  -0.24832  -0.24815  -0.21486  -0.20882
 Alpha  occ. eigenvalues --   -0.18806  -0.18753
 Alpha virt. eigenvalues --   -0.11535  -0.11052  -0.05355  -0.05129  -0.03856
 Alpha virt. eigenvalues --   -0.03608  -0.02088  -0.01899  -0.00863   0.00172
 Alpha virt. eigenvalues --    0.00763   0.00927   0.00974   0.01348   0.01703

 Mulliken charges:
               1
     1  Mg  12.001471
     2  C    6.024818
     3  C    6.004395
     4  C    5.970407
     5  C    5.986168
     6  N    7.011830
     7  C    5.960922
     8  C    6.014766
     9  C    5.993404
    10  C    6.024766
    11  C    5.995790
    12  C    6.002829
    13  C    5.997489
    14  H    1.004089
    15  N    6.994056
    16  C    6.036125
    17  C    6.023707
    18  C    6.007424
    19  C    6.044718
    20  C    5.995303
    21  C    6.012591
    22  O    8.025199
    23  C    5.994454
    24  N    6.982556
    25  C    6.038612
    26  C    5.991977
    27  C    6.005247
    28  C    5.979294
    29  C    5.998913
    30  C    6.007362
    31  C    6.000619
    32  N    7.003497
    33  C    5.977283
    34  C    5.964646
    35  C    6.001444
    36  C    5.968716
    37  C    6.004066
    38  C    5.984506
    39  O    7.973886
    40  C    5.997192
    41  C    5.998225
    42  O    7.996068
    43  O    7.998299
    44  C    6.000897
    45  H    1.016374
    46  H    1.004259
    47  H    0.986093
    48  H    0.998081
    49  H    1.001075
    50  H    1.000220
    51  H    1.014524
    52  H    0.998393
    53  H    0.994768
    54  H    1.007393
    55  H    0.993078
    56  H    0.997721
    57  H    1.018303
    58  H    1.017216
    59  H    1.015151
    60  H    1.013622
    61  H    1.005665
    62  H    1.005474
    63  H    0.998451
    64  H    0.998836
    65  H    1.012108
    66  H    1.005557
    67  H    0.992558
    68  H    1.004671
    69  H    0.984861
    70  H    0.992820
    71  H    0.995434
    72  H    1.000546
    73  H    0.978015
    74  H    0.982406
    75  H    0.984170
    76  H    0.992351
    77  H    0.994977
    78  H    0.995015
    79  H    0.999789
    80  Mg  11.999983
    81  C    6.000017
    82  C    5.999864
    83  C    5.999943
    84  C    6.000033
    85  N    6.999910
    86  C    5.999960
    87  C    6.000018
    88  C    5.999962
    89  C    6.000157
    90  C    6.000001
    91  C    6.000023
    92  C    5.999993
    93  H    1.000005
    94  N    7.000025
    95  C    6.000127
    96  C    6.000053
    97  C    6.000005
    98  C    6.000076
    99  C    5.999963
   100  C    6.000032
   101  O    8.000081
   102  C    5.999974
   103  N    7.000027
   104  C    6.000085
   105  C    5.999956
   106  C    6.000024
   107  C    5.999930
   108  C    6.000001
   109  C    6.000009
   110  C    6.000005
   111  N    6.999980
   112  C    5.999938
   113  C    5.999931
   114  C    6.000004
   115  C    5.999957
   116  C    6.000014
   117  C    5.999937
   118  O    7.999898
   119  C    6.000007
   120  C    5.999996
   121  O    8.000012
   122  O    7.999986
   123  C    5.999996
   124  H    1.000021
   125  H    1.000047
   126  H    0.999963
   127  H    1.000017
   128  H    0.999989
   129  H    1.000002
   130  H    1.000032
   131  H    1.000016
   132  H    0.999966
   133  H    1.000005
   134  H    1.000004
   135  H    0.999969
   136  H    1.000058
   137  H    1.000076
   138  H    1.000051
   139  H    1.000000
   140  H    1.000049
   141  H    1.000059
   142  H    0.999991
   143  H    1.000012
   144  H    1.000008
   145  H    1.000002
   146  H    1.000036
   147  H    0.999993
   148  H    0.999956
   149  H    1.000017
   150  H    0.999987
   151  H    0.999978
   152  H    0.999947
   153  H    0.999968
   154  H    0.999941
   155  H    0.999953
   156  H    1.000010
   157  H    0.999985
   158  H    0.999996
 Sum of Mulliken charges = 624.00000

 Dipole moment (field-independent basis, Debye):
    X=             -5.9757    Y=              0.4526    Z=             -8.5034  Tot=             10.4029
 Quadrupole moment (field-independent basis, Debye-Ang):
   XX=           -304.0432   YY=             -2.3131   ZZ=              4.5837
   XY=              8.6501   XZ=           -216.4037   YZ=             -5.8871

 Normal termination of Gaussian 16 at Fri Oct 15 04:47:18 2021.
