 Gaussian 16, Revision A.03,
 Gaussian 16:  ES64L-G16RevA.03 25-Dec-2016

 --------------------------------------------------------
 #p PBE1PBE/Def2SVP td=(nstates=5) density=(transition=1)
 --------------------------------------------------------

 --------------------------------
 TDDFT excited states in gaussian
 --------------------------------
 Symbolic Z-matrix:
 Charge =  0 Multiplicity = 1

                         Standard orientation:
 ---------------------------------------------------------------------
 Center     Atomic      Atomic             Coordinates (Angstroms)
 Number     Number       Type             X           Y           Z
 ---------------------------------------------------------------------
      1         12           0       24.605356   -0.810539    0.289893
      2          6           0       24.988814    2.148172   -1.517623
      3          6           0       24.432608    0.935178    3.118232
      4          6           0       25.580079   -3.637053    1.946948
      5          6           0       24.842397   -2.596124   -2.692014
      6          7           0       24.534451    1.341671    0.731923
      7          6           0       24.689276    2.322850   -0.148706
      8          6           0       24.446868    3.698155    0.572071
      9          6           0       24.385134    3.278958    2.060421
     10          6           0       24.477922    1.757300    1.998479
     11          6           0       25.639223    3.780685    2.934529
     12          6           0       23.130095    4.479635    0.121820
     13          6           0       23.362621    5.944674   -0.021353
     14          1           0       22.429451    6.923107    0.675141
     15          7           0       24.929572   -1.272486    2.264400
     16          6           0       24.782439   -0.403156    3.312643
     17          6           0       24.771373   -1.174854    4.563203
     18          6           0       25.108786   -2.510184    4.206043
     19          6           0       25.268641   -2.490317    2.742536
     20          6           0       24.558596   -0.523543    5.966969
     21          6           0       25.348869   -3.736394    5.137478
     22          8           0       25.633350   -4.859623    4.737129
     23          6           0       25.198162   -3.538823    6.598473
     24          7           0       25.151226   -2.758054   -0.256402
     25          6           0       25.592292   -3.782419    0.586726
     26          6           0       26.113905   -4.968097   -0.266508
     27          6           0       25.279485   -4.827879   -1.614436
     28          6           0       25.075661   -3.291693   -1.485195
     29          6           0       27.650633   -4.983259   -0.413424
     30          6           0       23.963472   -5.548949   -1.686253
     31          6           0       22.740913   -4.998704   -1.013799
     32          7           0       24.659222   -0.396166   -1.732736
     33          6           0       24.793899   -1.203143   -2.838764
     34          6           0       24.843799   -0.428178   -4.080653
     35          6           0       25.029060    0.948851   -3.609105
     36          6           0       24.914475    0.877103   -2.166188
     37          6           0       24.962996   -0.953724   -5.418426
     38          6           0       25.277533    2.329198   -4.006871
     39          8           0       25.507070    2.826781   -5.044828
     40          6           0       25.178911    3.180842   -2.636065
     41          6           0       26.309506    4.156527   -2.427854
     42          8           0       27.346560    3.918732   -1.815771
     43          8           0       25.934512    5.389844   -2.959791
     44          6           0       26.889765    6.505625   -2.834780
     45          1           0       24.181344    1.327068    4.106396
     46          1           0       25.901397   -4.495694    2.540834
     47          1           0       24.815374   -3.214186   -3.591454
     48          1           0       25.299310    4.370508    0.472031
     49          1           0       23.519335    3.625401    2.624725
     50          1           0       25.354377    4.738701    3.369940
     51          1           0       26.547518    3.989850    2.370005
     52          1           0       25.800714    3.055061    3.732567
     53          1           0       22.319921    4.352044    0.839954
     54          1           0       22.674706    4.136984   -0.807434
     55          1           0       23.181711    6.117857   -1.081840
     56          1           0       24.361100    6.326806    0.189194
     57          1           0       25.554309   -0.258011    6.321035
     58          1           0       24.007164   -1.183520    6.637071
     59          1           0       24.136322    0.481267    5.931273
     60          1           0       25.567235   -2.642018    7.095846
     61          1           0       25.663745   -4.368626    7.129648
     62          1           0       24.174476   -3.778824    6.887238
     63          1           0       25.762522   -5.843310    0.279211
     64          1           0       25.856261   -5.122318   -2.491032
     65          1           0       28.043873   -5.021762   -1.429307
     66          1           0       28.146548   -5.688695    0.253684
     67          1           0       28.067433   -4.051727   -0.030913
     68          1           0       23.993431   -6.572973   -1.315957
     69          1           0       23.701847   -5.651554   -2.739501
     70          1           0       22.255585   -4.458964   -1.826768
     71          1           0       22.919204   -4.274868   -0.218278
     72          1           0       22.125491   -5.824694   -0.655832
     73          1           0       24.382388   -0.282607   -6.051614
     74          1           0       24.495570   -1.938102   -5.418192
     75          1           0       26.006505   -0.952819   -5.731820
     76          1           0       24.260277    3.764824   -2.692619
     77          1           0       27.841045    6.153917   -3.235026
     78          1           0       27.052191    6.761873   -1.788183
     79          1           0       26.666423    7.461596   -3.308713
     80         12           0      -25.467350   -0.577902   -0.228712
     81          6           0      -23.422566    2.412118    0.021524
     82          6           0      -27.483941    0.898354    2.033792
     83          6           0      -27.219182   -3.242033   -0.419173
     84          6           0      -22.997113   -1.997207   -2.331180
     85          7           0      -25.431574    1.545911    0.907811
     86          6           0      -24.576764    2.573189    0.763399
     87          6           0      -25.093303    3.807559    1.527004
     88          6           0      -26.125564    3.042580    2.479776
     89          6           0      -26.409701    1.797596    1.749816
     90          6           0      -25.829959    2.990065    3.969349
     91          6           0      -25.691691    4.800096    0.515215
     92          6           0      -25.662721    6.272183    1.021925
     93          1           0      -24.828712    6.739907    2.302775
     94          7           0      -27.194666   -1.122163    0.658328
     95          6           0      -27.864535   -0.426752    1.646670
     96          6           0      -28.993675   -1.242668    2.082737
     97          6           0      -28.974693   -2.432752    1.314265
     98          6           0      -27.750656   -2.288605    0.476260
     99          6           0      -29.937080   -0.853287    3.132174
    100          6           0      -30.018599   -3.667808    1.283313
    101          8           0      -29.952319   -4.525393    0.445723
    102          6           0      -31.311101   -3.649436    2.118986
    103          7           0      -24.993291   -2.464464   -1.031547
    104          6           0      -25.984898   -3.349075   -1.099883
    105          6           0      -25.680627   -4.560117   -1.940162
    106          6           0      -24.555749   -3.966658   -2.823076
    107          6           0      -24.065152   -2.804343   -1.892754
    108          6           0      -25.172610   -5.828080   -1.108109
    109          6           0      -24.978535   -3.511804   -4.282744
    110          6           0      -26.149630   -4.232604   -5.011788
    111          7           0      -23.563493   -0.023577   -0.922212
    112          6           0      -22.708860   -0.622160   -1.788270
    113          6           0      -21.660849    0.220671   -2.149407
    114          6           0      -21.889606    1.359123   -1.430611
    115          6           0      -23.055086    1.216419   -0.703872
    116          6           0      -20.573630   -0.086004   -3.175694
    117          6           0      -21.326524    2.700789   -1.217058
    118          8           0      -20.257250    3.213199   -1.512233
    119          6           0      -22.395681    3.444937   -0.303679
    120          6           0      -21.683599    4.006416    0.830896
    121          8           0      -21.288952    3.402582    1.833469
    122          8           0      -21.298431    5.249729    0.475026
    123          6           0      -20.267308    5.783734    1.346639
    124          1           0      -28.026093    1.299668    2.892643
    125          1           0      -27.821838   -4.152012   -0.428451
    126          1           0      -22.313303   -2.441181   -3.057389
    127          1           0      -24.321777    4.235348    2.167318
    128          1           0      -27.043576    3.627572    2.444045
    129          1           0      -26.546908    3.569253    4.550480
    130          1           0      -24.827625    3.369113    4.167829
    131          1           0      -25.794685    1.981167    4.380486
    132          1           0      -26.752944    4.567520    0.424391
    133          1           0      -25.272108    4.720038   -0.487433
    134          1           0      -26.666159    6.691818    1.100354
    135          1           0      -25.371557    6.808898    0.119115
    136          1           0      -29.977840    0.228408    3.258373
    137          1           0      -29.572923   -1.343271    4.035336
    138          1           0      -30.965292   -1.162520    2.943135
    139          1           0      -32.018465   -2.876248    1.819216
    140          1           0      -30.965359   -3.637948    3.152867
    141          1           0      -31.805208   -4.619329    2.056114
    142          1           0      -26.639131   -4.769593   -2.414420
    143          1           0      -23.718368   -4.649497   -2.964604
    144          1           0      -25.766815   -6.628319   -1.548695
    145          1           0      -25.376019   -5.776025   -0.037946
    146          1           0      -24.122293   -6.087972   -1.234345
    147          1           0      -24.094105   -3.520931   -4.918184
    148          1           0      -25.374599   -2.518177   -4.072364
    149          1           0      -27.102154   -3.776508   -4.743111
    150          1           0      -26.011386   -5.277616   -4.732216
    151          1           0      -26.033447   -4.215621   -6.094893
    152          1           0      -21.050750   -0.765537   -3.882272
    153          1           0      -19.729245   -0.632995   -2.757288
    154          1           0      -20.271372    0.851464   -3.642142
    155          1           0      -22.830839    4.231752   -0.921129
    156          1           0      -19.929516    6.778703    1.058160
    157          1           0      -19.442933    5.115084    1.595007
    158          1           0      -20.675422    5.983600    2.337994
 ---------------------------------------------------------------------

 SCF Done:  E(RPBE1PBE) =  -4067.36040599     A.U. after   16 cycles

 Excitation energies and oscillator strengths:

 Excited State   1:      Singlet-A      1.8400 eV  673.84 nm  f=0.3636  <S**2>=0.000
     309 -> 315       -0.17116
     312 -> 313        0.69450
     312 <- 313       -0.11328
 This state for optimization and/or second-order correction.
 Total Energy, E(TD-HF/TD-DFT) =  -4067.29278895
 Copying the excited state density for this state as the 1-particle RhoCI density.

 Excited State   2:      Singlet-A      1.9474 eV  636.65 nm  f=0.3567  <S**2>=0.000
     310 -> 316       -0.18523
     311 -> 314        0.68731

 Excited State   3:      Singlet-A      2.0084 eV  617.31 nm  f=0.0000  <S**2>=0.000
     312 -> 314        0.70711

 Excited State   4:      Singlet-A      2.0965 eV  591.38 nm  f=0.0000  <S**2>=0.000
     311 -> 313        0.70711

 Excited State   5:      Singlet-A      2.2406 eV  553.35 nm  f=0.1503  <S**2>=0.000
     310 -> 314        0.66536
     311 -> 316        0.23012

 The electronic state is 1-A.
 Alpha  occ. eigenvalues --  -46.92764 -46.91317 -19.25599 -19.25577 -19.20511
 Alpha  occ. eigenvalues --  -19.20211 -19.19743 -19.19443 -19.19322 -19.19042
 Alpha  occ. eigenvalues --  -14.41609 -14.41005 -14.40785 -14.40747 -14.39444
 Alpha  occ. eigenvalues --  -14.38908 -14.38890 -14.38481 -10.36596 -10.35233
 Alpha  occ. eigenvalues --  -10.33951 -10.32815 -10.32513 -10.32192 -10.28993
 Alpha  occ. eigenvalues --  -10.28946 -10.28596 -10.28373 -10.28274 -10.28243
 Alpha  occ. eigenvalues --  -10.28126 -10.28044 -10.27808 -10.27796 -10.27633
 Alpha  occ. eigenvalues --  -10.27548 -10.27507 -10.27337 -10.27206 -10.27109
 Alpha  occ. eigenvalues --  -10.26746 -10.26674 -10.26561 -10.26524 -10.26217
 Alpha  occ. eigenvalues --  -10.26071 -10.25948 -10.25933 -10.25924 -10.25811
 Alpha  occ. eigenvalues --  -10.25748 -10.25724 -10.25720 -10.25500 -10.25369
 Alpha  occ. eigenvalues --  -10.25295 -10.25242 -10.25199 -10.25184 -10.25181
 Alpha  occ. eigenvalues --  -10.25131 -10.25021 -10.24896 -10.24829 -10.24447
 Alpha  occ. eigenvalues --  -10.24440 -10.24437 -10.24295 -10.24248 -10.23925
 Alpha  occ. eigenvalues --  -10.23772 -10.23707 -10.23593 -10.23471 -10.23465
 Alpha  occ. eigenvalues --  -10.23443 -10.23417 -10.23148 -10.23128 -10.23121
 Alpha  occ. eigenvalues --  -10.23085 -10.23029 -10.23013 -10.22915 -10.21934
 Alpha  occ. eigenvalues --  -10.21747  -3.14846  -3.13594  -1.87688  -1.87238
 Alpha  occ. eigenvalues --   -1.87055  -1.86439  -1.85945  -1.85846  -1.11307
 Alpha  occ. eigenvalues --   -1.09808  -1.07606  -1.07168  -1.04926  -1.04412
 Alpha  occ. eigenvalues --   -1.02180  -1.01472  -1.00451  -0.99775  -0.99771
 Alpha  occ. eigenvalues --   -0.99168  -0.98384  -0.98196  -0.97557  -0.96779
 Alpha  occ. eigenvalues --   -0.86809  -0.86118  -0.83300  -0.83229  -0.82971
 Alpha  occ. eigenvalues --   -0.82833  -0.82419  -0.82350  -0.81734  -0.81415
 Alpha  occ. eigenvalues --   -0.81256  -0.81222  -0.80586  -0.80182  -0.78598
 Alpha  occ. eigenvalues --   -0.78436  -0.77836  -0.77476  -0.76799  -0.76633
 Alpha  occ. eigenvalues --   -0.76051  -0.75907  -0.75263  -0.75088  -0.74699
 Alpha  occ. eigenvalues --   -0.74466  -0.72695  -0.72556  -0.71539  -0.71157
 Alpha  occ. eigenvalues --   -0.71021  -0.70989  -0.70118  -0.70081  -0.69598
 Alpha  occ. eigenvalues --   -0.69209  -0.67319  -0.66667  -0.66069  -0.65902
 Alpha  occ. eigenvalues --   -0.63978  -0.63576  -0.63167  -0.62917  -0.62201
 Alpha  occ. eigenvalues --   -0.62081  -0.61128  -0.61079  -0.60108  -0.59928
 Alpha  occ. eigenvalues --   -0.59544  -0.59158  -0.59141  -0.58780  -0.58534
 Alpha  occ. eigenvalues --   -0.58263  -0.56450  -0.56343  -0.55191  -0.54733
 Alpha  occ. eigenvalues --   -0.54078  -0.54009  -0.53846  -0.53427  -0.52973
 Alpha  occ. eigenvalues --   -0.52739  -0.52520  -0.52288  -0.52138  -0.51604
 Alpha  occ. eigenvalues --   -0.51009  -0.50421  -0.50051  -0.50025  -0.49817
 Alpha  occ. eigenvalues --   -0.49803  -0.49307  -0.49148  -0.48580  -0.48558
 Alpha  occ. eigenvalues --   -0.48225  -0.48159  -0.48041  -0.47902  -0.47568
 Alpha  occ. eigenvalues --   -0.47456  -0.47245  -0.47039  -0.46832  -0.46707
 Alpha  occ. eigenvalues --   -0.46215  -0.46143  -0.46083  -0.45939  -0.45863
 Alpha  occ. eigenvalues --   -0.45753  -0.45732  -0.45256  -0.45004  -0.44967
 Alpha  occ. eigenvalues --   -0.44755  -0.44730  -0.44606  -0.44285  -0.44144
 Alpha  occ. eigenvalues --   -0.44119  -0.43810  -0.43569  -0.43459  -0.43347
 Alpha  occ. eigenvalues --   -0.43311  -0.43256  -0.42962  -0.42884  -0.42659
 Alpha  occ. eigenvalues --   -0.42636  -0.42426  -0.42233  -0.42093  -0.41737
 Alpha  occ. eigenvalues --   -0.41634  -0.41461  -0.41384  -0.41307  -0.40982
 Alpha  occ. eigenvalues --   -0.40789  -0.40776  -0.40576  -0.40419  -0.40283
 Alpha  occ. eigenvalues --   -0.40206  -0.39843  -0.39785  -0.39673  -0.39451
 Alpha  occ. eigenvalues --   -0.39441  -0.39135  -0.39128  -0.38971  -0.38935
 Alpha  occ. eigenvalues --   -0.38834  -0.38679  -0.38559  -0.38421  -0.38162
 Alpha  occ. eigenvalues --   -0.38077  -0.38072  -0.38014  -0.37835  -0.37678
 Alpha  occ. eigenvalues --   -0.37568  -0.37493  -0.37406  -0.37161  -0.37069
 Alpha  occ. eigenvalues --   -0.36729  -0.36391  -0.36300  -0.36298  -0.36176
 Alpha  occ. eigenvalues --   -0.36164  -0.35997  -0.35380  -0.35355  -0.35151
 Alpha  occ. eigenvalues --   -0.34643  -0.34225  -0.34022  -0.33617  -0.33599
 Alpha  occ. eigenvalues --   -0.33182  -0.32998  -0.32978  -0.32671  -0.32440
 Alpha  occ. eigenvalues --   -0.31912  -0.31679  -0.31604  -0.31421  -0.30919
 Alpha  occ. eigenvalues --   -0.30866  -0.30706  -0.29504  -0.29426  -0.29225
 Alpha  occ. eigenvalues --   -0.28675  -0.28344  -0.27992  -0.26961  -0.26779
 Alpha  occ. eigenvalues --   -0.26580  -0.26198  -0.26165  -0.26006  -0.25651
 Alpha  occ. eigenvalues --   -0.25535  -0.25297  -0.25131  -0.20889  -0.20351
 Alpha  occ. eigenvalues --   -0.18889  -0.18417
 Alpha virt. eigenvalues --   -0.10919  -0.10775  -0.04887  -0.04648  -0.03817
 Alpha virt. eigenvalues --   -0.03626  -0.01913  -0.01833  -0.00450  -0.00140
 Alpha virt. eigenvalues --    0.00113   0.00174   0.01095   0.01431   0.02058

 Mulliken charges:
               1
     1  Mg  12.001684
     2  C    5.975887
     3  C    5.995446
     4  C    6.028647
     5  C    6.006916
     6  N    6.988169
     7  C    6.033207
     8  C    5.990415
     9  C    6.008080
    10  C    5.974083
    11  C    6.006208
    12  C    5.998315
    13  C    5.999948
    14  H    1.005223
    15  N    7.004315
    16  C    5.967104
    17  C    5.977762
    18  C    5.988825
    19  C    5.960516
    20  C    6.001391
    21  C    5.986074
    22  O    7.972362
    23  C    6.009592
    24  N    7.018046
    25  C    5.964034
    26  C    6.003988
    27  C    5.991833
    28  C    6.020811
    29  C    5.998947
    30  C    5.994560
    31  C    5.996854
    32  N    6.997829
    33  C    6.023587
    34  C    6.036262
    35  C    6.003517
    36  C    6.027352
    37  C    5.995374
    38  C    6.014910
    39  O    8.023894
    40  C    6.004408
    41  C    6.002868
    42  O    8.008571
    43  O    8.000134
    44  C    5.997949
    45  H    0.988628
    46  H    0.996131
    47  H    1.014253
    48  H    1.000212
    49  H    0.995634
    50  H    0.990217
    51  H    0.988080
    52  H    1.007032
    53  H    1.007061
    54  H    0.993223
    55  H    0.995440
    56  H    1.001026
    57  H    0.982736
    58  H    0.985192
    59  H    0.983856
    60  H    0.994397
    61  H    0.986020
    62  H    0.989222
    63  H    1.003644
    64  H    1.001945
    65  H    0.989450
    66  H    1.003022
    67  H    1.001583
    68  H    1.011557
    69  H    0.998613
    70  H    0.993577
    71  H    1.011974
    72  H    1.007268
    73  H    1.017924
    74  H    1.015416
    75  H    1.023362
    76  H    1.006159
    77  H    1.000791
    78  H    1.006100
    79  H    1.003356
    80  Mg  12.000005
    81  C    5.999962
    82  C    6.000042
    83  C    6.000013
    84  C    5.999980
    85  N    6.999998
    86  C    6.000025
    87  C    6.000005
    88  C    5.999997
    89  C    6.000004
    90  C    5.999993
    91  C    6.000011
    92  C    5.999998
    93  H    1.000024
    94  N    6.999998
    95  C    6.000001
    96  C    6.000009
    97  C    6.000024
    98  C    6.000006
    99  C    5.999996
   100  C    6.000021
   101  O    8.000028
   102  C    5.999991
   103  N    6.999998
   104  C    5.999978
   105  C    5.999983
   106  C    6.000007
   107  C    5.999993
   108  C    5.999995
   109  C    6.000008
   110  C    5.999995
   111  N    6.999989
   112  C    6.000003
   113  C    6.000000
   114  C    6.000029
   115  C    5.999997
   116  C    5.999990
   117  C    5.999935
   118  O    7.999962
   119  C    6.000019
   120  C    5.999992
   121  O    8.000012
   122  O    7.999994
   123  C    5.999998
   124  H    1.000033
   125  H    1.000000
   126  H    0.999963
   127  H    1.000011
   128  H    1.000002
   129  H    1.000014
   130  H    1.000028
   131  H    1.000012
   132  H    0.999981
   133  H    0.999990
   134  H    0.999992
   135  H    0.999986
   136  H    1.000018
   137  H    1.000043
   138  H    1.000026
   139  H    1.000003
   140  H    1.000021
   141  H    1.000025
   142  H    0.999990
   143  H    0.999996
   144  H    1.000001
   145  H    1.000014
   146  H    1.000020
   147  H    0.999986
   148  H    0.999995
   149  H    0.999991
   150  H    1.000001
   151  H    0.999978
   152  H    0.999963
   153  H    0.999974
   154  H    0.999956
   155  H    0.999983
   156  H    0.999979
   157  H    1.000009
   158  H    1.000011
 Sum of Mulliken charges = 624.00000

 Dipole moment (field-independent basis, Debye):
    X=             -0.1022    Y=              1.4175    Z=            -10.1090  Tot=             10.2084
 Quadrupole moment (field-independent basis, Debye-Ang):
   XX=             -3.7670   YY=              0.0106   ZZ=             -6.4809
   XY=             38.2813   XZ=           -253.1379   YZ=              8.6170

 Normal termination of Gaussian 16 at Thu Oct 14 04:03:34 2021.
