 Gaussian 16, Revision A.03,
 Gaussian 16:  ES64L-G16RevA.03 25-Dec-2016

 --------------------------------------------------------
 #p PBE1PBE/Def2SVP td=(nstates=5) density=(transition=1)
 --------------------------------------------------------

 --------------------------------
 TDDFT excited states in gaussian
 --------------------------------
 Symbolic Z-matrix:
 Charge =  0 Multiplicity = 1

                         Standard orientation:
 ---------------------------------------------------------------------
 Center     Atomic      Atomic             Coordinates (Angstroms)
 Number     Number       Type             X           Y           Z
 ---------------------------------------------------------------------
      1         12           0       25.217667   -0.473521    0.067443
      2          6           0       23.576899    2.586118    0.712977
      3          6           0       26.050530    0.641741   -3.053565
      4          6           0       26.112956   -3.559032   -0.672939
      5          6           0       23.880278   -1.687070    3.121054
      6          7           0       24.934279    1.466664   -0.977686
      7          6           0       24.272952    2.509935   -0.516815
      8          6           0       24.610499    3.708548   -1.385024
      9          6           0       24.995094    3.054307   -2.767713
     10          6           0       25.353076    1.605919   -2.265516
     11          6           0       23.825745    3.193939   -3.815032
     12          6           0       25.823190    4.510026   -0.846065
     13          6           0       25.939922    6.012839   -1.357763
     14          1           0       24.936986    6.611847   -2.347441
     15          7           0       26.147341   -1.276670   -1.521059
     16          6           0       26.502560   -0.653975   -2.745071
     17          6           0       27.245536   -1.638010   -3.566517
     18          6           0       27.186267   -2.907512   -2.887048
     19          6           0       26.465706   -2.665179   -1.618324
     20          6           0       27.908904   -1.307545   -4.856808
     21          6           0       27.746426   -4.340316   -3.239490
     22          8           0       27.680827   -5.317407   -2.481192
     23          6           0       28.268341   -4.577797   -4.626914
     24          7           0       24.922345   -2.410186    1.042523
     25          6           0       25.430583   -3.513480    0.561283
     26          6           0       25.249071   -4.732429    1.421706
     27          6           0       24.508522   -4.142178    2.672904
     28          6           0       24.503205   -2.620777    2.320109
     29          6           0       24.593469   -5.881571    0.650235
     30          6           0       25.204230   -4.396370    4.004264
     31          6           0       24.282001   -4.749088    5.225858
     32          7           0       24.016211    0.263969    1.717071
     33          6           0       23.596602   -0.352771    2.912025
     34          6           0       22.995408    0.630581    3.745774
     35          6           0       22.791043    1.759978    2.890499
     36          6           0       23.457635    1.511118    1.717555
     37          6           0       22.704003    0.477881    5.211110
     38          6           0       22.335846    3.162146    2.731869
     39          8           0       21.738807    3.880837    3.506135
     40          6           0       22.624411    3.601474    1.218097
     41          6           0       22.891359    5.068800    1.135712
     42          8           0       23.783595    5.663669    1.664592
     43          8           0       21.881577    5.732824    0.414419
     44          6           0       21.594320    7.127820    0.810549
     45          1           0       26.180345    0.850292   -4.117973
     46          1           0       26.494884   -4.578088   -0.755993
     47          1           0       23.549008   -2.072168    4.087782
     48          1           0       23.728023    4.339406   -1.278980
     49          1           0       25.884387    3.517119   -3.196894
     50          1           0       22.974485    3.703141   -3.364420
     51          1           0       23.484471    2.167461   -3.949284
     52          1           0       24.083002    3.752165   -4.715287
     53          1           0       26.690223    3.952775   -1.203133
     54          1           0       25.779157    4.462232    0.241937
     55          1           0       26.944044    6.077425   -1.779649
     56          1           0       25.956401    6.612472   -0.447345
     57          1           0       28.006805   -0.263468   -5.151975
     58          1           0       27.388504   -1.738142   -5.711844
     59          1           0       28.918677   -1.699904   -4.733785
     60          1           0       29.322012   -4.329798   -4.753995
     61          1           0       27.586173   -3.932230   -5.181444
     62          1           0       28.056726   -5.623112   -4.850261
     63          1           0       26.280460   -4.983562    1.668894
     64          1           0       23.484296   -4.494763    2.787951
     65          1           0       23.980567   -5.556185   -0.190910
     66          1           0       23.920477   -6.354633    1.364263
     67          1           0       25.318674   -6.601596    0.270461
     68          1           0       25.790865   -3.531052    4.312320
     69          1           0       25.983801   -5.116884    3.757273
     70          1           0       23.227621   -4.627232    4.978382
     71          1           0       24.548586   -4.014027    5.984991
     72          1           0       24.380197   -5.729219    5.693708
     73          1           0       22.188905   -0.479297    5.293670
     74          1           0       22.060465    1.252034    5.629418
     75          1           0       23.637449    0.387981    5.767628
     76          1           0       21.692863    3.535427    0.656906
     77          1           0       21.852054    7.771822   -0.030376
     78          1           0       22.133771    7.422520    1.711358
     79          1           0       20.520592    7.155017    0.996034
     80         12           0      -24.465600   -0.809086    0.036885
     81          6           0      -25.410155    2.481116    0.416756
     82          6           0      -22.845479    0.115533   -3.010830
     83          6           0      -23.835350   -3.968514   -0.582368
     84          6           0      -26.204312   -1.687076    2.929904
     85          7           0      -24.203472    1.110142   -1.086256
     86          6           0      -24.643510    2.318858   -0.724386
     87          6           0      -24.110969    3.377328   -1.744539
     88          6           0      -23.407476    2.521071   -2.894832
     89          6           0      -23.532970    1.099484   -2.313659
     90          6           0      -24.098072    2.481332   -4.244513
     91          6           0      -23.232522    4.478537   -1.131903
     92          6           0      -23.710878    5.861319   -1.541519
     93          1           0      -22.740325    7.049752   -1.602917
     94          7           0      -23.406265   -1.763238   -1.541020
     95          6           0      -22.786246   -1.247719   -2.642549
     96          6           0      -22.141608   -2.228030   -3.396434
     97          6           0      -22.501312   -3.483691   -2.793721
     98          6           0      -23.279155   -3.111083   -1.561780
     99          6           0      -21.304571   -1.940170   -4.634326
    100          6           0      -22.220322   -4.894969   -3.283299
    101          8           0      -22.771413   -5.846786   -2.697047
    102          6           0      -21.419082   -5.157607   -4.492589
    103          7           0      -24.929910   -2.510363    1.049848
    104          6           0      -24.508324   -3.760031    0.644419
    105          6           0      -24.981891   -4.942755    1.568483
    106          6           0      -25.492400   -4.102665    2.816005
    107          6           0      -25.570969   -2.678308    2.236733
    108          6           0      -26.064505   -5.986400    1.084561
    109          6           0      -24.748514   -4.287550    4.215934
    110          6           0      -23.428394   -3.575242    4.348634
    111          7           0      -25.681726    0.091534    1.330678
    112          6           0      -26.339795   -0.339570    2.466781
    113          6           0      -27.037717    0.699615    3.106295
    114          6           0      -26.658989    1.812966    2.347336
    115          6           0      -25.822291    1.414877    1.264215
    116          6           0      -27.785319    0.491175    4.353930
    117          6           0      -26.955706    3.190764    2.257436
    118          8           0      -27.755509    3.835362    2.938784
    119          6           0      -26.127918    3.749466    0.985588
    120          6           0      -27.053782    4.359522    0.047597
    121          8           0      -27.817571    3.786085   -0.694961
    122          8           0      -27.044327    5.680026    0.181739
    123          6           0      -27.979609    6.462460   -0.568499
    124          1           0      -22.398204    0.398550   -3.965528
    125          1           0      -23.706178   -5.050150   -0.654391
    126          1           0      -26.737751   -2.005326    3.828074
    127          1           0      -25.055646    3.764795   -2.124723
    128          1           0      -22.455747    3.020364   -3.079955
    129          1           0      -24.965556    3.136506   -4.329482
    130          1           0      -24.485949    1.481796   -4.439084
    131          1           0      -23.363086    2.611091   -5.039479
    132          1           0      -22.168491    4.395727   -1.354133
    133          1           0      -23.281913    4.372353   -0.048467
    134          1           0      -24.411073    6.174199   -0.766119
    135          1           0      -24.173430    5.738921   -2.520708
    136          1           0      -21.091300   -0.876241   -4.738138
    137          1           0      -21.901791   -2.161528   -5.519150
    138          1           0      -20.433469   -2.592718   -4.679830
    139          1           0      -21.636723   -6.147822   -4.894435
    140          1           0      -20.374157   -5.172515   -4.181187
    141          1           0      -21.624205   -4.405616   -5.254133
    142          1           0      -24.144419   -5.496389    1.994215
    143          1           0      -26.483818   -4.461746    3.089313
    144          1           0      -26.344262   -5.723374    0.065199
    145          1           0      -27.001570   -5.787121    1.605982
    146          1           0      -25.826944   -7.048422    1.152480
    147          1           0      -24.505987   -5.347607    4.286399
    148          1           0      -25.375338   -4.082170    5.082857
    149          1           0      -23.320231   -3.307822    5.399192
    150          1           0      -23.191414   -2.709763    3.731125
    151          1           0      -22.662897   -4.293801    4.055696
    152          1           0      -27.439949   -0.273049    5.049731
    153          1           0      -28.870027    0.452154    4.261551
    154          1           0      -27.651421    1.460130    4.834192
    155          1           0      -25.428267    4.501045    1.350753
    156          1           0      -27.589864    6.750715   -1.545441
    157          1           0      -28.127520    7.390358   -0.016331
    158          1           0      -28.900202    5.897713   -0.716482
 ---------------------------------------------------------------------

 SCF Done:  E(RPBE1PBE) =  -4067.38032335     A.U. after   17 cycles

 Excitation energies and oscillator strengths:

 Excited State   1:      Singlet-A      1.8680 eV  663.72 nm  f=0.3964  <S**2>=0.000
     309 -> 316        0.16558
     311 -> 313        0.69326
     311 <- 313       -0.11113
 This state for optimization and/or second-order correction.
 Total Energy, E(TD-HF/TD-DFT) =  -4067.31167450
 Copying the excited state density for this state as the 1-particle RhoCI density.

 Excited State   2:      Singlet-A      1.8895 eV  656.19 nm  f=0.3632  <S**2>=0.000
     310 -> 315        0.18739
     312 -> 314        0.68566

 Excited State   3:      Singlet-A      1.9450 eV  637.45 nm  f=0.0000  <S**2>=0.000
     312 -> 313        0.70711

 Excited State   4:      Singlet-A      2.1142 eV  586.43 nm  f=0.0000  <S**2>=0.000
     311 -> 314        0.70711

 Excited State   5:      Singlet-A      2.1350 eV  580.71 nm  f=0.0936  <S**2>=0.000
     310 -> 314        0.65947
     312 -> 315       -0.23135

 The electronic state is 1-A.
 Alpha  occ. eigenvalues --  -46.91952 -46.91100 -19.25410 -19.24084 -19.20210
 Alpha  occ. eigenvalues --  -19.19899 -19.18931 -19.18907 -19.18798 -19.18416
 Alpha  occ. eigenvalues --  -14.41835 -14.41674 -14.41496 -14.41152 -14.39329
 Alpha  occ. eigenvalues --  -14.39325 -14.38669 -14.37930 -10.35711 -10.35216
 Alpha  occ. eigenvalues --  -10.33641 -10.32299 -10.31938 -10.31693 -10.29670
 Alpha  occ. eigenvalues --  -10.29218 -10.28917 -10.28898 -10.28820 -10.28405
 Alpha  occ. eigenvalues --  -10.28382 -10.28222 -10.28194 -10.28062 -10.28017
 Alpha  occ. eigenvalues --  -10.27938 -10.27868 -10.27793 -10.26985 -10.26795
 Alpha  occ. eigenvalues --  -10.26788 -10.26519 -10.26389 -10.26291 -10.26130
 Alpha  occ. eigenvalues --  -10.25981 -10.25965 -10.25955 -10.25898 -10.25875
 Alpha  occ. eigenvalues --  -10.25874 -10.25797 -10.25789 -10.25555 -10.25549
 Alpha  occ. eigenvalues --  -10.25495 -10.25476 -10.25463 -10.25446 -10.25198
 Alpha  occ. eigenvalues --  -10.25195 -10.25119 -10.25054 -10.24990 -10.24825
 Alpha  occ. eigenvalues --  -10.24603 -10.24448 -10.24158 -10.23956 -10.23926
 Alpha  occ. eigenvalues --  -10.23915 -10.23846 -10.23824 -10.23685 -10.23656
 Alpha  occ. eigenvalues --  -10.23520 -10.23495 -10.23412 -10.23346 -10.23274
 Alpha  occ. eigenvalues --  -10.23221 -10.23044 -10.22893 -10.22601 -10.22447
 Alpha  occ. eigenvalues --  -10.22379  -3.13996  -3.13458  -1.86848  -1.86369
 Alpha  occ. eigenvalues --   -1.86299  -1.86215  -1.85851  -1.85686  -1.12688
 Alpha  occ. eigenvalues --   -1.10085  -1.04895  -1.04619  -1.03647  -1.03160
 Alpha  occ. eigenvalues --   -1.02565  -1.01981  -0.99722  -0.99283  -0.99145
 Alpha  occ. eigenvalues --   -0.98365  -0.97931  -0.97206  -0.96697  -0.95310
 Alpha  occ. eigenvalues --   -0.86442  -0.86384  -0.83661  -0.83590  -0.83119
 Alpha  occ. eigenvalues --   -0.83022  -0.82614  -0.82014  -0.81942  -0.81888
 Alpha  occ. eigenvalues --   -0.81632  -0.81508  -0.81065  -0.80088  -0.78861
 Alpha  occ. eigenvalues --   -0.78207  -0.78140  -0.78125  -0.77226  -0.76812
 Alpha  occ. eigenvalues --   -0.76519  -0.75950  -0.75553  -0.75084  -0.74971
 Alpha  occ. eigenvalues --   -0.74245  -0.72745  -0.72599  -0.71660  -0.71535
 Alpha  occ. eigenvalues --   -0.71220  -0.70826  -0.70269  -0.69794  -0.69625
 Alpha  occ. eigenvalues --   -0.69441  -0.67920  -0.67040  -0.66177  -0.65884
 Alpha  occ. eigenvalues --   -0.64234  -0.63999  -0.63302  -0.63017  -0.62165
 Alpha  occ. eigenvalues --   -0.61790  -0.61467  -0.60993  -0.60445  -0.59850
 Alpha  occ. eigenvalues --   -0.59617  -0.59426  -0.59142  -0.59082  -0.58891
 Alpha  occ. eigenvalues --   -0.58086  -0.56895  -0.55760  -0.54941  -0.54588
 Alpha  occ. eigenvalues --   -0.54541  -0.53784  -0.53579  -0.53158  -0.53132
 Alpha  occ. eigenvalues --   -0.52830  -0.52697  -0.52233  -0.52206  -0.51527
 Alpha  occ. eigenvalues --   -0.51129  -0.50949  -0.50606  -0.50072  -0.49769
 Alpha  occ. eigenvalues --   -0.49662  -0.49162  -0.48920  -0.48800  -0.48115
 Alpha  occ. eigenvalues --   -0.47801  -0.47796  -0.47765  -0.47689  -0.47408
 Alpha  occ. eigenvalues --   -0.47306  -0.46916  -0.46806  -0.46795  -0.46649
 Alpha  occ. eigenvalues --   -0.46639  -0.46382  -0.46341  -0.45963  -0.45872
 Alpha  occ. eigenvalues --   -0.45747  -0.45379  -0.45071  -0.44926  -0.44872
 Alpha  occ. eigenvalues --   -0.44789  -0.44542  -0.44515  -0.44286  -0.44073
 Alpha  occ. eigenvalues --   -0.44051  -0.43899  -0.43744  -0.43744  -0.43544
 Alpha  occ. eigenvalues --   -0.43076  -0.43000  -0.42976  -0.42820  -0.42700
 Alpha  occ. eigenvalues --   -0.42499  -0.42442  -0.42191  -0.42003  -0.41979
 Alpha  occ. eigenvalues --   -0.41789  -0.41630  -0.41239  -0.41117  -0.41100
 Alpha  occ. eigenvalues --   -0.41070  -0.40938  -0.40800  -0.40411  -0.40330
 Alpha  occ. eigenvalues --   -0.40233  -0.40206  -0.39884  -0.39874  -0.39781
 Alpha  occ. eigenvalues --   -0.39699  -0.39313  -0.39210  -0.39158  -0.38683
 Alpha  occ. eigenvalues --   -0.38669  -0.38557  -0.38405  -0.38283  -0.38066
 Alpha  occ. eigenvalues --   -0.38058  -0.37989  -0.37548  -0.37525  -0.37422
 Alpha  occ. eigenvalues --   -0.37380  -0.37006  -0.36886  -0.36866  -0.36601
 Alpha  occ. eigenvalues --   -0.36470  -0.36338  -0.36318  -0.36313  -0.36105
 Alpha  occ. eigenvalues --   -0.36059  -0.35941  -0.35879  -0.35858  -0.35393
 Alpha  occ. eigenvalues --   -0.35142  -0.34930  -0.34131  -0.33989  -0.33811
 Alpha  occ. eigenvalues --   -0.33683  -0.33118  -0.32777  -0.32738  -0.32554
 Alpha  occ. eigenvalues --   -0.32202  -0.31621  -0.31485  -0.31342  -0.31163
 Alpha  occ. eigenvalues --   -0.30845  -0.30432  -0.29439  -0.29415  -0.29051
 Alpha  occ. eigenvalues --   -0.28867  -0.28464  -0.28463  -0.27105  -0.26682
 Alpha  occ. eigenvalues --   -0.26388  -0.25860  -0.25792  -0.25495  -0.25428
 Alpha  occ. eigenvalues --   -0.25374  -0.25268  -0.24280  -0.21092  -0.20605
 Alpha  occ. eigenvalues --   -0.19091  -0.18911
 Alpha virt. eigenvalues --   -0.11496  -0.11057  -0.05523  -0.05032  -0.04210
 Alpha virt. eigenvalues --   -0.03711  -0.01904  -0.01779  -0.00037   0.00237
 Alpha virt. eigenvalues --    0.00257   0.01244   0.01308   0.01774   0.02260

 Mulliken charges:
               1
     1  Mg  11.999980
     2  C    6.000064
     3  C    5.999915
     4  C    5.999982
     5  C    6.000096
     6  N    7.000016
     7  C    5.999896
     8  C    6.000030
     9  C    5.999960
    10  C    6.000158
    11  C    6.000005
    12  C    6.000016
    13  C    6.000003
    14  H    1.000002
    15  N    6.999973
    16  C    6.000162
    17  C    6.000077
    18  C    6.000162
    19  C    6.000063
    20  C    5.999982
    21  C    6.000015
    22  O    8.000118
    23  C    5.999979
    24  N    7.000038
    25  C    6.000104
    26  C    5.999953
    27  C    6.000035
    28  C    5.999821
    29  C    5.999982
    30  C    6.000018
    31  C    6.000000
    32  N    6.999996
    33  C    5.999836
    34  C    5.999845
    35  C    5.999992
    36  C    5.999868
    37  C    6.000018
    38  C    5.999954
    39  O    7.999885
    40  C    5.999983
    41  C    5.999982
    42  O    7.999959
    43  O    8.000003
    44  C    6.000014
    45  H    1.000024
    46  H    1.000025
    47  H    0.999974
    48  H    1.000019
    49  H    0.999991
    50  H    1.000047
    51  H    1.000021
    52  H    1.000007
    53  H    0.999948
    54  H    1.000002
    55  H    0.999966
    56  H    0.999986
    57  H    1.000049
    58  H    1.000089
    59  H    1.000035
    60  H    1.000015
    61  H    1.000027
    62  H    1.000055
    63  H    0.999978
    64  H    1.000019
    65  H    1.000030
    66  H    1.000054
    67  H    0.999994
    68  H    0.999981
    69  H    0.999961
    70  H    1.000030
    71  H    0.999985
    72  H    0.999981
    73  H    0.999960
    74  H    0.999949
    75  H    0.999904
    76  H    1.000009
    77  H    0.999975
    78  H    0.999967
    79  H    1.000005
    80  Mg  12.002384
    81  C    5.984308
    82  C    6.011507
    83  C    6.021837
    84  C    5.995437
    85  N    6.992279
    86  C    6.026449
    87  C    5.992686
    88  C    6.014986
    89  C    5.971103
    90  C    6.002742
    91  C    5.998952
    92  C    5.998683
    93  H    1.004398
    94  N    7.005075
    95  C    5.964042
    96  C    5.983055
    97  C    5.983435
    98  C    5.966199
    99  C    6.002029
   100  C    5.986313
   101  O    7.969029
   102  C    6.005320
   103  N    7.001745
   104  C    5.962033
   105  C    6.014785
   106  C    5.990369
   107  C    6.026846
   108  C    5.999369
   109  C    5.994985
   110  C    5.997219
   111  N    6.998647
   112  C    6.033149
   113  C    6.027386
   114  C    6.001710
   115  C    6.032112
   116  C    5.996497
   117  C    6.017034
   118  O    8.030812
   119  C    6.003251
   120  C    6.003988
   121  O    8.007331
   122  O    8.001168
   123  C    5.997475
   124  H    0.989979
   125  H    0.994732
   126  H    1.011203
   127  H    0.997635
   128  H    0.992662
   129  H    0.985833
   130  H    1.003557
   131  H    0.998040
   132  H    1.008128
   133  H    0.993420
   134  H    0.993977
   135  H    1.004667
   136  H    0.984042
   137  H    0.982320
   138  H    0.985510
   139  H    0.985518
   140  H    0.989281
   141  H    0.994608
   142  H    0.997002
   143  H    1.002236
   144  H    1.003786
   145  H    0.989339
   146  H    0.999348
   147  H    1.010425
   148  H    0.998033
   149  H    0.999827
   150  H    0.999790
   151  H    1.010336
   152  H    1.018632
   153  H    1.021534
   154  H    1.013354
   155  H    1.008844
   156  H    1.007364
   157  H    1.003260
   158  H    1.001621
 Sum of Mulliken charges = 624.00000

 Dipole moment (field-independent basis, Debye):
    X=             -5.4963    Y=              5.1413    Z=              7.4347  Tot=             10.5791
 Quadrupole moment (field-independent basis, Debye-Ang):
   XX=            273.0692   YY=             -7.0683   ZZ=             -2.7948
   XY=           -124.2745   XZ=           -183.0000   YZ=             -8.6374

 Normal termination of Gaussian 16 at Thu Oct 14 07:51:12 2021.
