 Gaussian 16, Revision A.03,
 Gaussian 16:  ES64L-G16RevA.03 25-Dec-2016

 --------------------------------------------------------
 #p PBE1PBE/Def2SVP td=(nstates=5) density=(transition=1)
 --------------------------------------------------------

 --------------------------------
 TDDFT excited states in gaussian
 --------------------------------
 Symbolic Z-matrix:
 Charge =  0 Multiplicity = 1

                         Standard orientation:
 ---------------------------------------------------------------------
 Center     Atomic      Atomic             Coordinates (Angstroms)
 Number     Number       Type             X           Y           Z
 ---------------------------------------------------------------------
      1         12           0       26.038036    0.378372    0.523814
      2          6           0       24.554612   -1.863429   -1.677020
      3          6           0       25.923667    2.682420   -2.066158
      4          6           0       27.938254    2.419071    2.470855
      5          6           0       26.209251   -2.121200    2.906821
      6          7           0       25.367735    0.379772   -1.644114
      7          6           0       24.746803   -0.646626   -2.339502
      8          6           0       24.455128   -0.305740   -3.853634
      9          6           0       25.225889    1.065897   -3.972879
     10          6           0       25.573880    1.404788   -2.476583
     11          6           0       26.495663    1.187903   -4.820400
     12          6           0       22.940183   -0.264321   -4.125399
     13          6           0       22.353947   -1.402249   -4.918875
     14          1           0       21.224581   -1.051536   -5.903811
     15          7           0       26.673276    2.345443    0.363396
     16          6           0       26.440252    3.095399   -0.746984
     17          6           0       27.066758    4.403907   -0.475522
     18          6           0       27.734464    4.337973    0.757364
     19          6           0       27.479254    3.048535    1.271230
     20          6           0       26.841098    5.553401   -1.371696
     21          6           0       28.592392    5.356789    1.448678
     22          8           0       29.046697    5.206401    2.616839
     23          6           0       29.012250    6.584450    0.849486
     24          7           0       26.854774    0.216291    2.400386
     25          6           0       27.574932    1.194542    3.014343
     26          6           0       28.068864    0.813904    4.354417
     27          6           0       27.471870   -0.626662    4.544664
     28          6           0       26.877043   -0.868637    3.208458
     29          6           0       29.573763    0.852415    4.752322
     30          6           0       26.500596   -0.809570    5.813368
     31          6           0       24.983180   -0.459599    5.780096
     32          7           0       25.556134   -1.594373    0.651618
     33          6           0       25.644738   -2.476705    1.689585
     34          6           0       24.964944   -3.657286    1.377625
     35          6           0       24.596532   -3.462097   -0.009080
     36          6           0       24.958316   -2.182001   -0.378752
     37          6           0       24.680701   -4.848504    2.290663
     38          6           0       23.852385   -4.085504   -1.065535
     39          8           0       23.201368   -5.105795   -1.163145
     40          6           0       24.007951   -3.124047   -2.295586
     41          6           0       24.927517   -3.719787   -3.285108
     42          8           0       26.062198   -3.295016   -3.595465
     43          8           0       24.466930   -4.847088   -3.870014
     44          6           0       25.190049   -5.417601   -5.057411
     45          1           0       25.942897    3.381565   -2.904018
     46          1           0       28.579860    3.011308    3.126923
     47          1           0       26.071391   -2.900974    3.659417
     48          1           0       25.063543   -0.903036   -4.533535
     49          1           0       24.485921    1.783697   -4.326739
     50          1           0       27.364756    1.328638   -4.177333
     51          1           0       26.425141    2.147140   -5.331106
     52          1           0       26.679755    0.366222   -5.513397
     53          1           0       22.787444    0.629649   -4.731175
     54          1           0       22.430035   -0.101912   -3.175941
     55          1           0       21.953833   -2.123723   -4.206010
     56          1           0       23.067340   -1.989658   -5.497077
     57          1           0       26.324299    6.287938   -0.755408
     58          1           0       26.279888    5.415143   -2.296735
     59          1           0       27.800471    5.974012   -1.672903
     60          1           0       29.326257    6.316527   -0.158992
     61          1           0       29.693363    7.123409    1.506787
     62          1           0       28.161979    7.239122    0.658150
     63          1           0       27.528550    1.548761    4.950482
     64          1           0       28.286647   -1.343637    4.638469
     65          1           0       29.775824    1.601742    5.517736
     66          1           0       30.199224    1.126330    3.902017
     67          1           0       29.961970   -0.114162    5.073249
     68          1           0       26.943239   -0.122802    6.535151
     69          1           0       26.718288   -1.843955    6.079798
     70          1           0       24.578084   -0.229030    4.795124
     71          1           0       24.639739    0.254913    6.528715
     72          1           0       24.507409   -1.371186    6.139304
     73          1           0       25.066834   -5.780475    1.876502
     74          1           0       23.598879   -4.971094    2.340356
     75          1           0       25.006165   -4.716676    3.322889
     76          1           0       23.054711   -3.119427   -2.824459
     77          1           0       24.393078   -6.085364   -5.384869
     78          1           0       26.119588   -5.937041   -4.826847
     79          1           0       25.410742   -4.622252   -5.769994
     80         12           0      -26.184156   -0.748409   -0.488690
     81          6           0      -24.801418    2.516177   -0.658905
     82          6           0      -23.013420   -1.881678    0.421949
     83          6           0      -27.696523   -3.385219    0.774688
     84          6           0      -29.418024    0.836523   -1.147519
     85          7           0      -24.151104    0.310013    0.087728
     86          6           0      -23.812653    1.555733   -0.327900
     87          6           0      -22.306232    1.722621   -0.240134
     88          6           0      -21.762361    0.313950   -0.479035
     89          6           0      -23.034618   -0.494534    0.096045
     90          6           0      -21.481933   -0.126706   -1.916924
     91          6           0      -21.926288    2.421766    1.137428
     92          6           0      -20.923805    3.494441    0.966177
     93          1           0      -19.797350    3.592190    2.013323
     94          7           0      -25.478615   -2.447835    0.539196
     95          6           0      -24.111782   -2.762721    0.740708
     96          6           0      -24.081944   -4.060692    1.366447
     97          6           0      -25.393848   -4.601705    1.421601
     98          6           0      -26.284270   -3.489699    0.932254
     99          6           0      -22.759786   -4.682781    1.804442
    100          6           0      -25.776232   -5.911081    1.989819
    101          8           0      -24.900893   -6.631111    2.454003
    102          6           0      -27.158589   -6.451322    2.156481
    103          7           0      -28.358813   -1.142996   -0.143678
    104          6           0      -28.624677   -2.416742    0.207968
    105          6           0      -30.132558   -2.707368    0.099913
    106          6           0      -30.711699   -1.394003   -0.674583
    107          6           0      -29.439451   -0.508313   -0.712831
    108          6           0      -30.490440   -4.127198   -0.532207
    109          6           0      -31.957002   -0.720317   -0.017729
    110          6           0      -31.714627    0.537036    0.885140
    111          7           0      -26.963410    1.169062   -0.829156
    112          6           0      -28.276076    1.623593   -1.142477
    113          6           0      -28.190308    3.081842   -1.589610
    114          6           0      -26.866030    3.411665   -1.349325
    115          6           0      -26.175958    2.224242   -0.913479
    116          6           0      -29.243875    4.073119   -2.120263
    117          6           0      -25.902830    4.461761   -1.450035
    118          8           0      -26.011744    5.604444   -1.897815
    119          6           0      -24.650279    3.912567   -0.866303
    120          6           0      -24.538167    4.661743    0.481199
    121          8           0      -25.151716    4.422701    1.519171
    122          8           0      -23.637607    5.745290    0.284738
    123          6           0      -23.455741    6.659413    1.338134
    124          1           0      -22.032181   -2.318298    0.620063
    125          1           0      -28.084711   -4.365871    1.056920
    126          1           0      -30.305764    1.363629   -1.501288
    127          1           0      -21.889312    2.312098   -1.056572
    128          1           0      -20.843999   -0.013552    0.006906
    129          1           0      -21.378470    0.700650   -2.618384
    130          1           0      -22.136784   -0.943317   -2.221912
    131          1           0      -20.482918   -0.556091   -1.832975
    132          1           0      -21.481269    1.674291    1.794282
    133          1           0      -22.784477    2.727834    1.735797
    134          1           0      -21.554864    4.382418    0.957258
    135          1           0      -20.446918    3.363266   -0.005033
    136          1           0      -22.426820   -5.482178    1.142763
    137          1           0      -22.849929   -4.996950    2.843256
    138          1           0      -21.966884   -3.934870    1.788779
    139          1           0      -27.564230   -6.657616    1.165722
    140          1           0      -27.856866   -5.813422    2.699707
    141          1           0      -27.147245   -7.466705    2.550810
    142          1           0      -30.464679   -2.649026    1.136223
    143          1           0      -30.901435   -1.661832   -1.713442
    144          1           0      -29.668375   -4.831513   -0.405484
    145          1           0      -30.883416   -4.171520   -1.548629
    146          1           0      -31.416791   -4.384112   -0.016044
    147          1           0      -32.555510   -1.425820    0.558029
    148          1           0      -32.520243   -0.388743   -0.889700
    149          1           0      -32.547940    0.344440    1.561265
    150          1           0      -31.834106    1.523180    0.435893
    151          1           0      -30.757970    0.399527    1.389541
    152          1           0      -28.966534    4.448413   -3.104702
    153          1           0      -29.013314    4.882808   -1.428572
    154          1           0      -30.225179    3.629657   -1.952899
    155          1           0      -23.804519    4.189118   -1.495936
    156          1           0      -22.763042    7.473136    1.119792
    157          1           0      -23.058101    6.102657    2.185728
    158          1           0      -24.449901    7.062500    1.533255
 ---------------------------------------------------------------------

 SCF Done:  E(RPBE1PBE) =  -4067.33728539     A.U. after   16 cycles

 Excitation energies and oscillator strengths:

 Excited State   1:      Singlet-A      1.8406 eV  673.62 nm  f=0.3408  <S**2>=0.000
     309 -> 315        0.18910
     311 -> 313        0.68694
 This state for optimization and/or second-order correction.
 Total Energy, E(TD-HF/TD-DFT) =  -4067.26964541
 Copying the excited state density for this state as the 1-particle RhoCI density.

 Excited State   2:      Singlet-A      1.8654 eV  664.65 nm  f=0.3734  <S**2>=0.000
     310 -> 316        0.17015
     312 -> 314        0.69167
     312 <- 314       -0.10906

 Excited State   3:      Singlet-A      2.0040 eV  618.69 nm  f=0.0000  <S**2>=0.000
     312 -> 313        0.70711

 Excited State   4:      Singlet-A      2.0199 eV  613.80 nm  f=0.0000  <S**2>=0.000
     311 -> 314        0.70711

 Excited State   5:      Singlet-A      2.1946 eV  564.94 nm  f=0.0643  <S**2>=0.000
     309 -> 313        0.63436
     311 -> 315       -0.29979

 The electronic state is 1-A.
 Alpha  occ. eigenvalues --  -46.94687 -46.90931 -19.25366 -19.24669 -19.21587
 Alpha  occ. eigenvalues --  -19.19085 -19.18503 -19.18498 -19.18166 -19.17834
 Alpha  occ. eigenvalues --  -14.41880 -14.41511 -14.41463 -14.41399 -14.39866
 Alpha  occ. eigenvalues --  -14.39457 -14.39182 -14.38053 -10.37649 -10.35523
 Alpha  occ. eigenvalues --  -10.31629 -10.31586 -10.31349 -10.31296 -10.29633
 Alpha  occ. eigenvalues --  -10.29235 -10.29216 -10.29211 -10.28998 -10.28735
 Alpha  occ. eigenvalues --  -10.28704 -10.28607 -10.28576 -10.28249 -10.28242
 Alpha  occ. eigenvalues --  -10.28139 -10.27882 -10.27785 -10.27676 -10.27070
 Alpha  occ. eigenvalues --  -10.27006 -10.26647 -10.26379 -10.26371 -10.26280
 Alpha  occ. eigenvalues --  -10.26231 -10.26196 -10.25974 -10.25963 -10.25953
 Alpha  occ. eigenvalues --  -10.25903 -10.25675 -10.25631 -10.25463 -10.25450
 Alpha  occ. eigenvalues --  -10.25347 -10.25314 -10.25307 -10.25244 -10.25200
 Alpha  occ. eigenvalues --  -10.25172 -10.25104 -10.24950 -10.24911 -10.24892
 Alpha  occ. eigenvalues --  -10.24826 -10.24741 -10.24546 -10.24476 -10.24347
 Alpha  occ. eigenvalues --  -10.24310 -10.24300 -10.24263 -10.23858 -10.23821
 Alpha  occ. eigenvalues --  -10.23765 -10.23492 -10.23458 -10.23410 -10.23150
 Alpha  occ. eigenvalues --  -10.23111 -10.23101 -10.22898 -10.22773 -10.22648
 Alpha  occ. eigenvalues --  -10.22410  -3.16475  -3.13223  -1.89252  -1.88900
 Alpha  occ. eigenvalues --   -1.88651  -1.86076  -1.85602  -1.85451  -1.10549
 Alpha  occ. eigenvalues --   -1.09867  -1.04319  -1.04271  -1.04132  -1.03448
 Alpha  occ. eigenvalues --   -1.02601  -0.99870  -0.99523  -0.98802  -0.98757
 Alpha  occ. eigenvalues --   -0.98062  -0.97859  -0.97477  -0.96868  -0.95978
 Alpha  occ. eigenvalues --   -0.88752  -0.87480  -0.83438  -0.83266  -0.83014
 Alpha  occ. eigenvalues --   -0.82725  -0.82606  -0.82088  -0.81831  -0.81552
 Alpha  occ. eigenvalues --   -0.81322  -0.81175  -0.80453  -0.79907  -0.79064
 Alpha  occ. eigenvalues --   -0.78622  -0.77943  -0.77931  -0.76976  -0.76971
 Alpha  occ. eigenvalues --   -0.76704  -0.75868  -0.75296  -0.75142  -0.74869
 Alpha  occ. eigenvalues --   -0.74622  -0.72879  -0.72358  -0.71822  -0.71583
 Alpha  occ. eigenvalues --   -0.71195  -0.71134  -0.70507  -0.70336  -0.69643
 Alpha  occ. eigenvalues --   -0.69576  -0.67552  -0.67178  -0.66319  -0.65772
 Alpha  occ. eigenvalues --   -0.64486  -0.64269  -0.63167  -0.63120  -0.62433
 Alpha  occ. eigenvalues --   -0.61694  -0.61500  -0.61246  -0.59836  -0.59669
 Alpha  occ. eigenvalues --   -0.59495  -0.59445  -0.59210  -0.59208  -0.59099
 Alpha  occ. eigenvalues --   -0.58905  -0.56765  -0.56068  -0.54489  -0.54481
 Alpha  occ. eigenvalues --   -0.54324  -0.54172  -0.53912  -0.53713  -0.53292
 Alpha  occ. eigenvalues --   -0.53259  -0.52915  -0.52244  -0.51832  -0.51586
 Alpha  occ. eigenvalues --   -0.50767  -0.50650  -0.50573  -0.50233  -0.50110
 Alpha  occ. eigenvalues --   -0.49460  -0.49429  -0.49148  -0.48917  -0.48394
 Alpha  occ. eigenvalues --   -0.48288  -0.47952  -0.47826  -0.47646  -0.47315
 Alpha  occ. eigenvalues --   -0.47257  -0.47094  -0.47013  -0.46738  -0.46584
 Alpha  occ. eigenvalues --   -0.46503  -0.46476  -0.46204  -0.45984  -0.45812
 Alpha  occ. eigenvalues --   -0.45657  -0.45402  -0.45167  -0.44955  -0.44789
 Alpha  occ. eigenvalues --   -0.44783  -0.44504  -0.44342  -0.44197  -0.44020
 Alpha  occ. eigenvalues --   -0.43994  -0.43802  -0.43608  -0.43597  -0.43437
 Alpha  occ. eigenvalues --   -0.43153  -0.43036  -0.42923  -0.42804  -0.42598
 Alpha  occ. eigenvalues --   -0.42516  -0.42412  -0.42208  -0.41888  -0.41844
 Alpha  occ. eigenvalues --   -0.41625  -0.41426  -0.41176  -0.40984  -0.40801
 Alpha  occ. eigenvalues --   -0.40773  -0.40633  -0.40601  -0.40538  -0.40423
 Alpha  occ. eigenvalues --   -0.40186  -0.40171  -0.40079  -0.40068  -0.39914
 Alpha  occ. eigenvalues --   -0.39904  -0.39580  -0.39299  -0.39228  -0.39038
 Alpha  occ. eigenvalues --   -0.38920  -0.38780  -0.38571  -0.38552  -0.38538
 Alpha  occ. eigenvalues --   -0.38323  -0.38176  -0.38136  -0.37823  -0.37759
 Alpha  occ. eigenvalues --   -0.37660  -0.37343  -0.37259  -0.37004  -0.36442
 Alpha  occ. eigenvalues --   -0.36416  -0.36247  -0.36153  -0.35991  -0.35861
 Alpha  occ. eigenvalues --   -0.35769  -0.35632  -0.35358  -0.35168  -0.34952
 Alpha  occ. eigenvalues --   -0.34800  -0.34596  -0.34072  -0.33817  -0.33513
 Alpha  occ. eigenvalues --   -0.33286  -0.33218  -0.32901  -0.32830  -0.32627
 Alpha  occ. eigenvalues --   -0.31909  -0.31593  -0.31585  -0.31469  -0.31312
 Alpha  occ. eigenvalues --   -0.30796  -0.30515  -0.30036  -0.29526  -0.29442
 Alpha  occ. eigenvalues --   -0.28967  -0.28776  -0.27561  -0.26756  -0.26657
 Alpha  occ. eigenvalues --   -0.26252  -0.25871  -0.25630  -0.25238  -0.25202
 Alpha  occ. eigenvalues --   -0.25013  -0.24884  -0.24850  -0.20998  -0.20606
 Alpha  occ. eigenvalues --   -0.18754  -0.18701
 Alpha virt. eigenvalues --   -0.11084  -0.11079  -0.06004  -0.04874  -0.04379
 Alpha virt. eigenvalues --   -0.03509  -0.03144  -0.02191  -0.02025   0.00101
 Alpha virt. eigenvalues --    0.00619   0.00787   0.00844   0.01442   0.01674

 Mulliken charges:
               1
     1  Mg  11.999994
     2  C    5.999893
     3  C    6.000138
     4  C    6.000186
     5  C    6.000072
     6  N    6.999949
     7  C    6.000220
     8  C    5.999894
     9  C    6.000037
    10  C    5.999770
    11  C    6.000026
    12  C    5.999975
    13  C    5.999981
    14  H    1.000073
    15  N    7.000069
    16  C    5.999620
    17  C    5.999740
    18  C    5.999873
    19  C    5.999637
    20  C    6.000057
    21  C    5.999915
    22  O    7.999743
    23  C    6.000031
    24  N    7.000058
    25  C    5.999740
    26  C    6.000118
    27  C    5.999912
    28  C    6.000239
    29  C    6.000001
    30  C    5.999956
    31  C    5.999995
    32  N    6.999979
    33  C    6.000221
    34  C    6.000289
    35  C    6.000099
    36  C    6.000113
    37  C    5.999966
    38  C    6.000233
    39  O    8.000259
    40  C    6.000027
    41  C    5.999998
    42  O    8.000101
    43  O    7.999988
    44  C    5.999981
    45  H    0.999875
    46  H    0.999909
    47  H    1.000143
    48  H    1.000028
    49  H    0.999986
    50  H    1.000028
    51  H    0.999993
    52  H    0.999886
    53  H    1.000072
    54  H    1.000008
    55  H    0.999972
    56  H    0.999990
    57  H    0.999789
    58  H    0.999800
    59  H    0.999774
    60  H    0.999962
    61  H    0.999857
    62  H    0.999924
    63  H    1.000006
    64  H    1.000008
    65  H    0.999985
    66  H    1.000014
    67  H    0.999904
    68  H    1.000114
    69  H    0.999992
    70  H    0.999987
    71  H    1.000073
    72  H    1.000002
    73  H    1.000178
    74  H    1.000192
    75  H    1.000166
    76  H    1.000100
    77  H    1.000050
    78  H    1.000027
    79  H    1.000043
    80  Mg  11.998072
    81  C    5.981951
    82  C    6.012186
    83  C    6.013484
    84  C    5.985007
    85  N    6.996382
    86  C    6.025029
    87  C    5.996653
    88  C    6.001651
    89  C    5.972324
    90  C    6.001201
    91  C    5.995408
    92  C    5.999070
    93  H    1.006269
    94  N    7.009327
    95  C    5.958334
    96  C    5.982242
    97  C    5.987802
    98  C    5.968986
    99  C    6.004344
   100  C    5.990547
   101  O    7.977962
   102  C    6.002602
   103  N    6.996423
   104  C    5.970276
   105  C    6.010905
   106  C    5.987998
   107  C    6.035151
   108  C    6.003038
   109  C    6.000969
   110  C    5.992205
   111  N    6.997437
   112  C    6.042575
   113  C    6.027832
   114  C    6.000763
   115  C    6.026024
   116  C    6.001715
   117  C    6.019485
   118  O    8.030597
   119  C    5.997233
   120  C    6.002892
   121  O    8.005492
   122  O    8.001633
   123  C    5.997906
   124  H    0.991119
   125  H    0.996555
   126  H    1.009260
   127  H    0.998412
   128  H    0.999644
   129  H    0.986660
   130  H    1.002209
   131  H    0.998362
   132  H    1.011807
   133  H    0.997294
   134  H    0.994374
   135  H    1.002795
   136  H    0.981824
   137  H    0.985381
   138  H    0.983501
   139  H    0.989330
   140  H    0.989031
   141  H    0.988810
   142  H    0.999405
   143  H    1.004300
   144  H    1.008270
   145  H    0.994160
   146  H    0.995511
   147  H    1.009422
   148  H    1.000087
   149  H    1.008187
   150  H    0.996121
   151  H    1.001737
   152  H    1.015830
   153  H    1.011830
   154  H    1.014707
   155  H    1.009154
   156  H    1.004346
   157  H    1.005779
   158  H    0.999404
 Sum of Mulliken charges = 624.00000

 Dipole moment (field-independent basis, Debye):
    X=             -3.6881    Y=              8.6820    Z=             -2.9435  Tot=              9.8815
 Quadrupole moment (field-independent basis, Debye-Ang):
   XX=            190.8994   YY=             -8.5792   ZZ=              0.2980
   XY=           -228.5166   XZ=             79.2168   YZ=              2.8880

 Normal termination of Gaussian 16 at Thu Oct 14 03:39:34 2021.
