 Gaussian 16, Revision A.03,
 Gaussian 16:  ES64L-G16RevA.03 25-Dec-2016

 --------------------------------------------------------
 #p PBE1PBE/Def2SVP td=(nstates=5) density=(transition=1)
 --------------------------------------------------------

 --------------------------------
 TDDFT excited states in gaussian
 --------------------------------
 Symbolic Z-matrix:
 Charge =  0 Multiplicity = 1

                         Standard orientation:
 ---------------------------------------------------------------------
 Center     Atomic      Atomic             Coordinates (Angstroms)
 Number     Number       Type             X           Y           Z
 ---------------------------------------------------------------------
      1         12           0       21.256129    0.577421   -0.043979
      2          6           0       20.117415   -2.711954   -0.410879
      3          6           0       18.443549    1.090680    1.901948
      4          6           0       22.429755    3.623458    0.653349
      5          6           0       24.374775   -0.385657   -1.295742
      6          7           0       19.506697   -0.854733    0.837125
      7          6           0       19.222820   -2.105250    0.425427
      8          6           0       17.970930   -2.676288    1.046967
      9          6           0       17.360787   -1.301575    1.518582
     10          6           0       18.480692   -0.266678    1.484844
     11          6           0       16.247121   -0.851464    0.535758
     12          6           0       18.303979   -3.767004    2.072829
     13          6           0       19.511772   -3.590182    3.016466
     14          1           0       19.246483   -3.850100    4.494623
     15          7           0       20.549017    2.126988    1.088977
     16          6           0       19.323363    2.165389    1.699236
     17          6           0       18.968885    3.565570    1.965625
     18          6           0       20.178038    4.343389    1.761161
     19          6           0       21.102655    3.352950    1.129856
     20          6           0       17.643898    3.984016    2.710618
     21          6           0       20.395734    5.815693    2.118929
     22          8           0       19.481482    6.493957    2.496895
     23          6           0       21.752919    6.436261    1.953342
     24          7           0       23.267036    1.399946   -0.116472
     25          6           0       23.506523    2.765228    0.126417
     26          6           0       24.998623    3.199372   -0.196765
     27          6           0       25.567322    1.869870   -0.887851
     28          6           0       24.308262    0.890647   -0.805286
     29          6           0       25.291964    4.541084   -1.036748
     30          6           0       26.904647    1.240383   -0.284284
     31          6           0       27.785558    0.563167   -1.446774
     32          7           0       22.130322   -1.169152   -0.787431
     33          6           0       23.376961   -1.377235   -1.341675
     34          6           0       23.447472   -2.737022   -1.862523
     35          6           0       22.185894   -3.333219   -1.605769
     36          6           0       21.433769   -2.349109   -0.868221
     37          6           0       24.564126   -3.326912   -2.683494
     38          6           0       21.321755   -4.557565   -1.651194
     39          8           0       21.579808   -5.684161   -2.012150
     40          6           0       19.970562   -4.137777   -0.930807
     41          6           0       18.878243   -4.273134   -1.955785
     42          8           0       18.378938   -5.370541   -2.309610
     43          8           0       18.423980   -3.014052   -2.320646
     44          6           0       17.238245   -2.994967   -3.110380
     45          1           0       17.512220    1.281367    2.439434
     46          1           0       22.846893    4.632814    0.643037
     47          1           0       25.281338   -0.609919   -1.861922
     48          1           0       17.280845   -3.052521    0.291998
     49          1           0       16.921384   -1.253164    2.513995
     50          1           0       16.293322    0.237606    0.513812
     51          1           0       15.287483   -1.278984    0.822861
     52          1           0       16.362938   -1.056520   -0.528961
     53          1           0       18.564919   -4.648004    1.487251
     54          1           0       17.407383   -3.961742    2.661420
     55          1           0       19.852774   -2.556634    2.961802
     56          1           0       20.277925   -4.306609    2.721482
     57          1           0       17.652668    3.831220    3.790162
     58          1           0       16.799553    3.444107    2.281906
     59          1           0       17.311421    5.009867    2.556132
     60          1           0       21.800349    7.435690    2.386998
     61          1           0       22.069776    6.504311    0.912443
     62          1           0       22.362564    5.810282    2.605485
     63          1           0       25.374273    3.306837    0.820106
     64          1           0       25.748865    2.029320   -1.950342
     65          1           0       25.387172    5.353471   -0.317229
     66          1           0       24.495312    4.748091   -1.750771
     67          1           0       26.209858    4.395835   -1.606743
     68          1           0       26.680652    0.394013    0.364912
     69          1           0       27.463398    1.980353    0.289261
     70          1           0       27.910339   -0.505236   -1.270109
     71          1           0       28.771362    1.026744   -1.469806
     72          1           0       27.392255    0.538720   -2.462465
     73          1           0       25.482074   -3.278486   -2.098702
     74          1           0       24.699258   -2.739579   -3.591977
     75          1           0       24.395384   -4.377330   -2.920098
     76          1           0       19.801712   -4.937198   -0.209683
     77          1           0       16.920629   -1.962592   -3.254937
     78          1           0       16.478704   -3.660089   -2.699146
     79          1           0       17.426040   -3.305870   -4.138048
     80         12           0      -21.783119    0.068535   -0.575363
     81          6           0      -18.354899    0.217022    0.473192
     82          6           0      -21.909462   -3.010949    1.230376
     83          6           0      -25.141324    0.153851   -0.511783
     84          6           0      -21.544275    3.330470   -1.574883
     85          7           0      -20.303890   -1.170537    0.703333
     86          6           0      -18.985418   -0.933073    0.961642
     87          6           0      -18.347747   -2.068207    1.836502
     88          6           0      -19.442756   -3.228356    1.675874
     89          6           0      -20.645528   -2.401498    1.250145
     90          6           0      -19.115805   -4.265784    0.626348
     91          6           0      -17.969692   -1.612893    3.236285
     92          6           0      -16.592531   -2.063797    3.788674
     93          1           0      -16.478241   -3.288038    4.811430
     94          7           0      -23.378922   -1.323668    0.173725
     95          6           0      -23.173051   -2.570951    0.799384
     96          6           0      -24.477748   -3.205057    1.024727
     97          6           0      -25.442881   -2.280574    0.461162
     98          6           0      -24.712051   -1.085020    0.099686
     99          6           0      -24.741339   -4.487868    1.719232
    100          6           0      -26.915857   -2.559674    0.297101
    101          8           0      -27.310614   -3.684305    0.508291
    102          6           0      -27.938033   -1.530705   -0.127670
    103          7           0      -23.061762    1.558785   -0.869511
    104          6           0      -24.423788    1.280036   -0.940022
    105          6           0      -25.134529    2.574532   -1.341792
    106          6           0      -23.977074    3.494455   -1.877498
    107          6           0      -22.774004    2.722587   -1.451688
    108          6           0      -26.388987    2.472812   -2.285076
    109          6           0      -23.973006    4.994292   -1.450020
    110          6           0      -23.933946    6.029602   -2.526392
    111          7           0      -20.291328    1.469168   -0.691265
    112          6           0      -20.307592    2.757073   -1.197657
    113          6           0      -18.935941    3.285638   -1.327462
    114          6           0      -18.158263    2.301485   -0.602337
    115          6           0      -19.037399    1.272163   -0.252093
    116          6           0      -18.439926    4.563376   -1.951565
    117          6           0      -16.767342    1.977977   -0.167952
    118          8           0      -15.759668    2.622263   -0.236810
    119          6           0      -16.905260    0.685167    0.629545
    120          6           0      -15.956479   -0.317326    0.043415
    121          8           0      -16.151412   -0.717005   -1.084368
    122          8           0      -14.937106   -0.800736    0.917620
    123          6           0      -14.117057   -1.945520    0.417346
    124          1           0      -21.978035   -3.981014    1.727413
    125          1           0      -26.215342    0.334568   -0.580457
    126          1           0      -21.483536    4.295210   -2.082277
    127          1           0      -17.473762   -2.507076    1.356062
    128          1           0      -19.695202   -3.673580    2.638166
    129          1           0      -19.383367   -3.862166   -0.349907
    130          1           0      -19.658157   -5.172568    0.893755
    131          1           0      -18.077292   -4.570688    0.493272
    132          1           0      -18.712942   -2.048620    3.903271
    133          1           0      -18.160826   -0.541722    3.300235
    134          1           0      -16.217966   -1.161869    4.273345
    135          1           0      -15.875519   -2.317266    3.007714
    136          1           0      -24.859572   -5.236972    0.936896
    137          1           0      -25.718648   -4.439273    2.199546
    138          1           0      -24.041252   -4.863523    2.466427
    139          1           0      -28.975995   -1.860616   -0.088819
    140          1           0      -27.700908   -1.298924   -1.166083
    141          1           0      -27.940412   -0.551510    0.349720
    142          1           0      -25.571687    2.882972   -0.391688
    143          1           0      -23.929629    3.380139   -2.960037
    144          1           0      -26.391553    1.522825   -2.820185
    145          1           0      -26.431167    3.329679   -2.957216
    146          1           0      -27.305303    2.555475   -1.700993
    147          1           0      -23.128547    5.165198   -0.782433
    148          1           0      -24.828553    5.138925   -0.790440
    149          1           0      -22.942439    6.481292   -2.549847
    150          1           0      -24.652507    6.817523   -2.301076
    151          1           0      -24.139469    5.705471   -3.546359
    152          1           0      -17.383990    4.488351   -2.210507
    153          1           0      -18.615719    5.351535   -1.218907
    154          1           0      -19.096693    4.800649   -2.788698
    155          1           0      -16.758035    0.934209    1.680560
    156          1           0      -13.363994   -1.568874   -0.275059
    157          1           0      -14.729827   -2.642502   -0.153952
    158          1           0      -13.661143   -2.486403    1.246393
 ---------------------------------------------------------------------

 SCF Done:  E(RPBE1PBE) =  -4067.37002649     A.U. after   16 cycles

 Excitation energies and oscillator strengths:

 Excited State   1:      Singlet-A      1.8362 eV  675.21 nm  f=0.3818  <S**2>=0.000
     309 -> 316        0.16417
     312 -> 313        0.69670
     312 <- 313       -0.11953
 This state for optimization and/or second-order correction.
 Total Energy, E(TD-HF/TD-DFT) =  -4067.30254660
 Copying the excited state density for this state as the 1-particle RhoCI density.

 Excited State   2:      Singlet-A      1.8969 eV  653.63 nm  f=0.3491  <S**2>=0.000
     310 -> 315        0.18773
     311 -> 314        0.68733

 Excited State   3:      Singlet-A      1.9905 eV  622.89 nm  f=0.0000  <S**2>=0.000
     311 -> 313        0.70711

 Excited State   4:      Singlet-A      1.9919 eV  622.44 nm  f=0.0000  <S**2>=0.000
     312 -> 314        0.70711

 Excited State   5:      Singlet-A      2.2341 eV  554.97 nm  f=0.1114  <S**2>=0.000
     310 -> 314        0.64674
     311 -> 315       -0.26754

 The electronic state is 1-A.
 Alpha  occ. eigenvalues --  -46.93779 -46.92733 -19.26684 -19.25857 -19.20858
 Alpha  occ. eigenvalues --  -19.20272 -19.19873 -19.19830 -19.19100 -19.18233
 Alpha  occ. eigenvalues --  -14.42123 -14.41852 -14.41354 -14.41187 -14.40049
 Alpha  occ. eigenvalues --  -14.39214 -14.38999 -14.38820 -10.37178 -10.37013
 Alpha  occ. eigenvalues --  -10.33070 -10.32472 -10.32312 -10.31684 -10.30477
 Alpha  occ. eigenvalues --  -10.29454 -10.29291 -10.29175 -10.29124 -10.29019
 Alpha  occ. eigenvalues --  -10.28726 -10.28482 -10.28435 -10.28349 -10.28182
 Alpha  occ. eigenvalues --  -10.28049 -10.27941 -10.27917 -10.27698 -10.27495
 Alpha  occ. eigenvalues --  -10.27277 -10.27181 -10.27040 -10.26860 -10.26785
 Alpha  occ. eigenvalues --  -10.26701 -10.26387 -10.26364 -10.26349 -10.26241
 Alpha  occ. eigenvalues --  -10.26229 -10.26214 -10.26134 -10.26009 -10.26007
 Alpha  occ. eigenvalues --  -10.25920 -10.25763 -10.25689 -10.25570 -10.25569
 Alpha  occ. eigenvalues --  -10.25494 -10.25456 -10.25451 -10.25271 -10.25198
 Alpha  occ. eigenvalues --  -10.24780 -10.24715 -10.24474 -10.24466 -10.24328
 Alpha  occ. eigenvalues --  -10.24223 -10.24066 -10.24035 -10.23931 -10.23929
 Alpha  occ. eigenvalues --  -10.23872 -10.23805 -10.23791 -10.23592 -10.23513
 Alpha  occ. eigenvalues --  -10.23503 -10.23447 -10.23226 -10.23213 -10.23178
 Alpha  occ. eigenvalues --  -10.22826  -3.15726  -3.14879  -1.88527  -1.88119
 Alpha  occ. eigenvalues --   -1.87937  -1.87665  -1.87260  -1.87108  -1.11218
 Alpha  occ. eigenvalues --   -1.10014  -1.06402  -1.06133  -1.05517  -1.04997
 Alpha  occ. eigenvalues --   -1.02637  -1.01852  -0.99328  -0.99235  -0.98427
 Alpha  occ. eigenvalues --   -0.98191  -0.97675  -0.97372  -0.96622  -0.96195
 Alpha  occ. eigenvalues --   -0.87031  -0.86878  -0.83724  -0.83264  -0.83139
 Alpha  occ. eigenvalues --   -0.82783  -0.82583  -0.81996  -0.81899  -0.81690
 Alpha  occ. eigenvalues --   -0.80548  -0.80480  -0.79957  -0.79802  -0.79093
 Alpha  occ. eigenvalues --   -0.78758  -0.78273  -0.77655  -0.76860  -0.76765
 Alpha  occ. eigenvalues --   -0.76062  -0.76023  -0.75137  -0.74845  -0.74727
 Alpha  occ. eigenvalues --   -0.74513  -0.72494  -0.71832  -0.71791  -0.71592
 Alpha  occ. eigenvalues --   -0.71093  -0.70916  -0.70704  -0.70595  -0.69646
 Alpha  occ. eigenvalues --   -0.69600  -0.67299  -0.67103  -0.66460  -0.66225
 Alpha  occ. eigenvalues --   -0.64239  -0.63911  -0.63765  -0.63306  -0.62746
 Alpha  occ. eigenvalues --   -0.62344  -0.61534  -0.61135  -0.60399  -0.60334
 Alpha  occ. eigenvalues --   -0.59515  -0.59419  -0.59311  -0.59155  -0.59137
 Alpha  occ. eigenvalues --   -0.58838  -0.58290  -0.56871  -0.54555  -0.54351
 Alpha  occ. eigenvalues --   -0.53986  -0.53868  -0.53790  -0.53471  -0.53453
 Alpha  occ. eigenvalues --   -0.52997  -0.52812  -0.52292  -0.52241  -0.51901
 Alpha  occ. eigenvalues --   -0.51109  -0.50762  -0.50611  -0.50196  -0.50057
 Alpha  occ. eigenvalues --   -0.50052  -0.49622  -0.48827  -0.48798  -0.48440
 Alpha  occ. eigenvalues --   -0.48339  -0.47900  -0.47785  -0.47726  -0.47488
 Alpha  occ. eigenvalues --   -0.47486  -0.47303  -0.46886  -0.46529  -0.46331
 Alpha  occ. eigenvalues --   -0.46250  -0.46164  -0.46013  -0.45891  -0.45736
 Alpha  occ. eigenvalues --   -0.45568  -0.45468  -0.45330  -0.45154  -0.45079
 Alpha  occ. eigenvalues --   -0.44614  -0.44533  -0.44488  -0.44435  -0.44316
 Alpha  occ. eigenvalues --   -0.44307  -0.44113  -0.43931  -0.43785  -0.43589
 Alpha  occ. eigenvalues --   -0.43354  -0.43319  -0.43271  -0.43050  -0.42819
 Alpha  occ. eigenvalues --   -0.42382  -0.42211  -0.41955  -0.41894  -0.41838
 Alpha  occ. eigenvalues --   -0.41664  -0.41578  -0.41334  -0.41108  -0.41068
 Alpha  occ. eigenvalues --   -0.41027  -0.40872  -0.40816  -0.40777  -0.40690
 Alpha  occ. eigenvalues --   -0.40608  -0.40482  -0.40251  -0.40106  -0.39953
 Alpha  occ. eigenvalues --   -0.39942  -0.39656  -0.39608  -0.39381  -0.39019
 Alpha  occ. eigenvalues --   -0.38795  -0.38661  -0.38604  -0.38440  -0.38426
 Alpha  occ. eigenvalues --   -0.38260  -0.38155  -0.38122  -0.37979  -0.37794
 Alpha  occ. eigenvalues --   -0.37787  -0.37626  -0.37499  -0.37428  -0.37183
 Alpha  occ. eigenvalues --   -0.37177  -0.37030  -0.36843  -0.36808  -0.36616
 Alpha  occ. eigenvalues --   -0.36393  -0.36137  -0.36026  -0.35651  -0.35527
 Alpha  occ. eigenvalues --   -0.35261  -0.35208  -0.34826  -0.34233  -0.34179
 Alpha  occ. eigenvalues --   -0.33881  -0.33444  -0.33135  -0.32685  -0.32345
 Alpha  occ. eigenvalues --   -0.32242  -0.32199  -0.32040  -0.31715  -0.31563
 Alpha  occ. eigenvalues --   -0.31363  -0.30852  -0.29786  -0.29784  -0.29556
 Alpha  occ. eigenvalues --   -0.29440  -0.28830  -0.28691  -0.26914  -0.26848
 Alpha  occ. eigenvalues --   -0.26346  -0.26172  -0.26057  -0.25751  -0.25436
 Alpha  occ. eigenvalues --   -0.25320  -0.25234  -0.24401  -0.21203  -0.20970
 Alpha  occ. eigenvalues --   -0.19022  -0.18780
 Alpha virt. eigenvalues --   -0.11398  -0.11150  -0.05527  -0.05023  -0.04120
 Alpha virt. eigenvalues --   -0.03546  -0.02389  -0.01969  -0.01961  -0.01549
 Alpha virt. eigenvalues --   -0.00210  -0.00116   0.00241   0.01154   0.01248

 Mulliken charges:
               1
     1  Mg  12.000000
     2  C    5.999912
     3  C    5.999967
     4  C    6.000115
     5  C    6.000048
     6  N    6.999923
     7  C    6.000190
     8  C    5.999957
     9  C    6.000015
    10  C    5.999843
    11  C    6.000037
    12  C    5.999981
    13  C    5.999948
    14  H    1.000091
    15  N    7.000007
    16  C    5.999809
    17  C    5.999884
    18  C    5.999878
    19  C    5.999821
    20  C    6.000064
    21  C    5.999916
    22  O    7.999840
    23  C    6.000027
    24  N    7.000027
    25  C    5.999737
    26  C    6.000054
    27  C    5.999987
    28  C    6.000146
    29  C    6.000011
    30  C    5.999968
    31  C    5.999976
    32  N    6.999987
    33  C    6.000213
    34  C    6.000203
    35  C    6.000085
    36  C    6.000184
    37  C    5.999941
    38  C    6.000092
    39  O    8.000227
    40  C    5.999984
    41  C    5.999996
    42  O    8.000058
    43  O    8.000011
    44  C    5.999986
    45  H    0.999878
    46  H    0.999988
    47  H    1.000090
    48  H    0.999983
    49  H    0.999998
    50  H    1.000017
    51  H    0.999892
    52  H    0.999899
    53  H    0.999984
    54  H    1.000034
    55  H    1.000049
    56  H    0.999984
    57  H    0.999865
    58  H    0.999826
    59  H    0.999835
    60  H    0.999912
    61  H    0.999927
    62  H    0.999982
    63  H    1.000025
    64  H    1.000010
    65  H    1.000031
    66  H    0.999973
    67  H    0.999974
    68  H    1.000007
    69  H    1.000097
    70  H    1.000001
    71  H    1.000077
    72  H    0.999984
    73  H    1.000157
    74  H    1.000138
    75  H    1.000123
    76  H    1.000075
    77  H    1.000006
    78  H    1.000018
    79  H    1.000017
    80  Mg  11.999791
    81  C    5.977585
    82  C    5.999370
    83  C    6.032559
    84  C    5.999595
    85  N    6.985186
    86  C    6.028742
    87  C    5.991196
    88  C    6.008014
    89  C    5.974245
    90  C    6.005821
    91  C    5.995864
    92  C    5.999629
    93  H    1.007217
    94  N    7.003483
    95  C    5.962595
    96  C    5.976190
    97  C    5.993052
    98  C    5.960880
    99  C    6.004836
   100  C    5.988904
   101  O    7.982498
   102  C    6.002253
   103  N    7.009634
   104  C    5.962859
   105  C    6.008545
   106  C    5.989085
   107  C    6.029330
   108  C    6.000515
   109  C    5.995840
   110  C    5.998782
   111  N    6.999826
   112  C    6.031337
   113  C    6.032408
   114  C    6.001892
   115  C    6.030442
   116  C    6.000242
   117  C    6.017740
   118  O    8.024769
   119  C    6.000242
   120  C    6.005055
   121  O    8.002632
   122  O    8.001956
   123  C    5.998356
   124  H    0.987335
   125  H    0.996434
   126  H    1.013202
   127  H    1.000857
   128  H    0.999035
   129  H    0.994857
   130  H    1.001218
   131  H    0.984493
   132  H    1.010077
   133  H    0.994203
   134  H    0.997033
   135  H    0.997539
   136  H    0.980863
   137  H    0.985074
   138  H    0.981778
   139  H    0.988694
   140  H    0.989839
   141  H    0.988807
   142  H    1.000154
   143  H    1.004013
   144  H    1.003226
   145  H    0.992205
   146  H    1.003366
   147  H    0.996582
   148  H    1.011478
   149  H    0.996280
   150  H    1.006299
   151  H    1.004236
   152  H    1.015032
   153  H    1.020249
   154  H    1.015799
   155  H    1.007792
   156  H    1.000703
   157  H    1.005507
   158  H    1.004747
 Sum of Mulliken charges = 624.00000

 Dipole moment (field-independent basis, Debye):
    X=              6.9280    Y=              7.4796    Z=             -2.3889  Tot=             10.4713
 Quadrupole moment (field-independent basis, Debye-Ang):
   XX=           -296.7672   YY=              1.3347   ZZ=              1.5389
   XY=           -166.2718   XZ=             50.6079   YZ=             -2.0504

 Normal termination of Gaussian 16 at Thu Oct 14 23:10:55 2021.
