 Gaussian 16, Revision A.03,
 Gaussian 16:  ES64L-G16RevA.03 25-Dec-2016

 --------------------------------------------------------
 #p PBE1PBE/Def2SVP td=(nstates=5) density=(transition=1)
 --------------------------------------------------------

 --------------------------------
 TDDFT excited states in gaussian
 --------------------------------
 Symbolic Z-matrix:
 Charge =  0 Multiplicity = 1

                         Standard orientation:
 ---------------------------------------------------------------------
 Center     Atomic      Atomic             Coordinates (Angstroms)
 Number     Number       Type             X           Y           Z
 ---------------------------------------------------------------------
      1         12           0       30.553433    0.211175   -0.187407
      2          6           0       27.479695   -1.248099   -0.074916
      3          6           0       28.949691    3.213415   -0.853599
      4          6           0       33.546530    1.708450    0.081175
      5          6           0       32.005498   -2.706921    1.139993
      6          7           0       28.417153    0.937930   -0.176926
      7          6           0       27.360052    0.101847   -0.147287
      8          6           0       26.062372    0.823548   -0.170816
      9          6           0       26.578973    2.254516   -0.817311
     10          6           0       28.106122    2.161174   -0.615748
     11          6           0       26.118580    2.453144   -2.291617
     12          6           0       25.537404    0.982193    1.247282
     13          6           0       26.462806    1.677745    2.349813
     14          1           0       25.860716    2.639881    3.366269
     15          7           0       31.171005    2.171074   -0.357385
     16          6           0       30.375233    3.266765   -0.777488
     17          6           0       31.261019    4.355181   -1.024236
     18          6           0       32.570554    3.998880   -0.726722
     19          6           0       32.522713    2.576053   -0.350086
     20          6           0       30.667037    5.657184   -1.521992
     21          6           0       33.787524    4.892749   -0.712344
     22          8           0       33.583286    6.093796   -1.018925
     23          6           0       35.070628    4.554990   -0.194080
     24          7           0       32.452457   -0.375109    0.725407
     25          6           0       33.553749    0.424559    0.636009
     26          6           0       34.799378   -0.266363    1.240772
     27          6           0       34.263113   -1.698862    1.575963
     28          6           0       32.796789   -1.578493    1.196749
     29          6           0       36.003239   -0.252692    0.323120
     30          6           0       34.513955   -2.069317    3.133968
     31          6           0       34.989982   -3.507991    3.365476
     32          7           0       29.932432   -1.693404    0.442233
     33          6           0       30.616965   -2.823818    0.755635
     34          6           0       29.676610   -3.910020    0.702979
     35          6           0       28.386329   -3.392706    0.335479
     36          6           0       28.608161   -2.030566    0.217946
     37          6           0       29.923321   -5.287353    1.216162
     38          6           0       26.993790   -3.633664    0.133447
     39          8           0       26.462844   -4.750635    0.176218
     40          6           0       26.378605   -2.280023   -0.169985
     41          6           0       25.737665   -2.341647   -1.506096
     42          8           0       24.880147   -3.177239   -1.714463
     43          8           0       26.129270   -1.364190   -2.369115
     44          6           0       25.486036   -1.400741   -3.683965
     45          1           0       28.483294    4.079342   -1.327800
     46          1           0       34.536201    2.145396   -0.066278
     47          1           0       32.409988   -3.693812    1.375638
     48          1           0       25.240212    0.386677   -0.737735
     49          1           0       26.076907    3.098679   -0.342848
     50          1           0       25.528787    3.365018   -2.377612
     51          1           0       25.467398    1.612803   -2.533685
     52          1           0       26.926945    2.466186   -3.023849
     53          1           0       25.187389    0.000717    1.567777
     54          1           0       24.579849    1.475365    1.080465
     55          1           0       27.289824    2.274666    1.965104
     56          1           0       26.797273    0.816256    2.927067
     57          1           0       30.345692    6.188623   -0.626021
     58          1           0       29.783700    5.435744   -2.119673
     59          1           0       31.322525    6.292581   -2.118321
     60          1           0       35.592006    5.428634    0.198360
     61          1           0       35.673666    3.955220   -0.877004
     62          1           0       34.859780    3.987921    0.711589
     63          1           0       34.977941    0.305263    2.152189
     64          1           0       34.690201   -2.417539    0.876801
     65          1           0       35.860875    0.329456   -0.586949
     66          1           0       36.521244   -1.173192    0.055305
     67          1           0       36.695243    0.399677    0.856505
     68          1           0       33.634764   -1.940653    3.765378
     69          1           0       35.218617   -1.386685    3.608574
     70          1           0       36.043260   -3.473471    3.642561
     71          1           0       34.953717   -4.035277    2.411952
     72          1           0       34.424874   -4.023892    4.141905
     73          1           0       30.622147   -5.913571    0.662860
     74          1           0       28.939619   -5.757038    1.251515
     75          1           0       30.338838   -5.281424    2.223896
     76          1           0       25.612262   -2.119750    0.588952
     77          1           0       24.408712   -1.336757   -3.528389
     78          1           0       25.771711   -2.265531   -4.283034
     79          1           0       25.873852   -0.607768   -4.323245
     80         12           0      -30.637162    0.337322    0.371774
     81          6           0      -28.368361   -2.020421   -1.030248
     82          6           0      -31.452704    1.322192   -2.820014
     83          6           0      -32.642450    2.506563    1.852345
     84          6           0      -29.328091   -0.432780    3.629472
     85          7           0      -29.920988   -0.243332   -1.764763
     86          6           0      -29.069503   -1.303925   -2.014618
     87          6           0      -29.001317   -1.448408   -3.573637
     88          6           0      -29.988961   -0.314012   -4.177536
     89          6           0      -30.465772    0.295023   -2.855032
     90          6           0      -29.362922    0.658131   -5.199052
     91          6           0      -29.201216   -2.901806   -4.172358
     92          6           0      -28.065688   -3.424907   -5.003135
     93          1           0      -27.121289   -2.543024   -5.776565
     94          7           0      -32.029155    1.697721   -0.418262
     95          6           0      -32.191713    1.947441   -1.744538
     96          6           0      -33.335673    2.816939   -1.843938
     97          6           0      -33.627505    3.249262   -0.532240
     98          6           0      -32.741495    2.508610    0.423668
     99          6           0      -33.869778    3.231113   -3.225479
    100          6           0      -34.554540    4.356070   -0.130049
    101          8           0      -34.646947    4.734068    1.061936
    102          6           0      -35.340263    5.061746   -1.172212
    103          7           0      -30.857101    0.964205    2.492340
    104          6           0      -31.788729    1.794637    2.808706
    105          6           0      -32.018361    2.074591    4.388600
    106          6           0      -30.931373    1.136720    4.935415
    107          6           0      -30.346020    0.529092    3.684203
    108          6           0      -31.803442    3.603102    4.689600
    109          6           0      -31.391412    0.038209    5.957138
    110          6           0      -32.207666   -1.143525    5.381848
    111          7           0      -29.121683   -0.822415    1.106167
    112          6           0      -28.713132   -0.995583    2.449564
    113          6           0      -27.681567   -2.041537    2.473640
    114          6           0      -27.524055   -2.474237    1.135051
    115          6           0      -28.457724   -1.729024    0.338413
    116          6           0      -26.961929   -2.572381    3.749545
    117          6           0      -26.827278   -3.368905    0.373076
    118          8           0      -25.943461   -4.156889    0.641667
    119          6           0      -27.351050   -3.198819   -1.080337
    120          6           0      -26.220776   -2.965357   -1.949303
    121          8           0      -25.737312   -1.854552   -2.195369
    122          8           0      -25.616718   -4.185476   -2.275296
    123          6           0      -24.333409   -4.054914   -3.008888
    124          1           0      -31.609988    1.888919   -3.740504
    125          1           0      -33.186875    3.335767    2.309118
    126          1           0      -28.898297   -0.707214    4.595040
    127          1           0      -27.933835   -1.269108   -3.695143
    128          1           0      -30.774183   -0.803585   -4.751878
    129          1           0      -29.927000    0.651839   -6.132602
    130          1           0      -28.307950    0.514052   -5.431624
    131          1           0      -29.453603    1.632362   -4.718681
    132          1           0      -30.117275   -2.939380   -4.762197
    133          1           0      -29.271173   -3.560038   -3.306334
    134          1           0      -28.517811   -3.884277   -5.882868
    135          1           0      -27.494206   -4.117461   -4.386185
    136          1           0      -33.510224    2.574951   -4.018449
    137          1           0      -33.571541    4.256203   -3.441576
    138          1           0      -34.952345    3.152593   -3.130855
    139          1           0      -35.937261    4.306032   -1.682728
    140          1           0      -34.690518    5.514460   -1.922182
    141          1           0      -35.919170    5.873360   -0.733316
    142          1           0      -33.008744    1.750591    4.709344
    143          1           0      -30.093679    1.728243    5.305542
    144          1           0      -31.085325    3.985860    3.964459
    145          1           0      -31.350235    3.692852    5.677474
    146          1           0      -32.675740    4.256857    4.668032
    147          1           0      -31.849878    0.510788    6.825228
    148          1           0      -30.493398   -0.371618    6.418369
    149          1           0      -32.852264   -0.926930    4.530636
    150          1           0      -32.749503   -1.611649    6.204438
    151          1           0      -31.461088   -1.881121    5.087854
    152          1           0      -26.961426   -3.660137    3.820201
    153          1           0      -27.355081   -2.149943    4.673563
    154          1           0      -25.885408   -2.456750    3.621228
    155          1           0      -27.791264   -4.177667   -1.267659
    156          1           0      -23.559391   -3.649532   -2.357726
    157          1           0      -24.367342   -3.376524   -3.860604
    158          1           0      -24.154147   -5.019328   -3.484457
 ---------------------------------------------------------------------

 SCF Done:  E(RPBE1PBE) =  -4067.37473805     A.U. after   16 cycles

 Excitation energies and oscillator strengths:

 Excited State   1:      Singlet-A      1.8677 eV  663.84 nm  f=0.3623  <S**2>=0.000
     310 -> 316        0.18703
     312 -> 314        0.68777
 This state for optimization and/or second-order correction.
 Total Energy, E(TD-HF/TD-DFT) =  -4067.30610199
 Copying the excited state density for this state as the 1-particle RhoCI density.

 Excited State   2:      Singlet-A      1.8908 eV  655.72 nm  f=0.3806  <S**2>=0.000
     309 -> 315       -0.16982
     311 -> 313        0.69195
     311 <- 313       -0.10820

 Excited State   3:      Singlet-A      1.9190 eV  646.10 nm  f=0.0000  <S**2>=0.000
     312 -> 313        0.70711

 Excited State   4:      Singlet-A      2.1706 eV  571.20 nm  f=0.0000  <S**2>=0.000
     311 -> 314        0.70711

 Excited State   5:      Singlet-A      2.2069 eV  561.81 nm  f=0.1043  <S**2>=0.000
     310 -> 314        0.65380
     312 -> 316       -0.25869

 The electronic state is 1-A.
 Alpha  occ. eigenvalues --  -46.93192 -46.92464 -19.27044 -19.24996 -19.19745
 Alpha  occ. eigenvalues --  -19.19589 -19.18686 -19.18673 -19.18242 -19.18124
 Alpha  occ. eigenvalues --  -14.42051 -14.41564 -14.41474 -14.41422 -14.39522
 Alpha  occ. eigenvalues --  -14.39376 -14.39287 -14.38374 -10.36505 -10.35672
 Alpha  occ. eigenvalues --  -10.31876 -10.31813 -10.31719 -10.30676 -10.29965
 Alpha  occ. eigenvalues --  -10.29422 -10.29232 -10.29159 -10.29008 -10.28794
 Alpha  occ. eigenvalues --  -10.28729 -10.28673 -10.28320 -10.28218 -10.28159
 Alpha  occ. eigenvalues --  -10.28072 -10.28062 -10.28016 -10.27862 -10.27128
 Alpha  occ. eigenvalues --  -10.26747 -10.26608 -10.26570 -10.26564 -10.26253
 Alpha  occ. eigenvalues --  -10.26236 -10.26210 -10.26158 -10.26136 -10.26117
 Alpha  occ. eigenvalues --  -10.26060 -10.25986 -10.25965 -10.25867 -10.25684
 Alpha  occ. eigenvalues --  -10.25682 -10.25496 -10.25464 -10.25300 -10.25296
 Alpha  occ. eigenvalues --  -10.25124 -10.25004 -10.24970 -10.24926 -10.24900
 Alpha  occ. eigenvalues --  -10.24893 -10.24878 -10.24876 -10.24861 -10.24672
 Alpha  occ. eigenvalues --  -10.24550 -10.24479 -10.24210 -10.23978 -10.23775
 Alpha  occ. eigenvalues --  -10.23750 -10.23665 -10.23652 -10.23402 -10.23377
 Alpha  occ. eigenvalues --  -10.23329 -10.23072 -10.22848 -10.22556 -10.22455
 Alpha  occ. eigenvalues --  -10.22005  -3.15115  -3.14500  -1.87969  -1.87523
 Alpha  occ. eigenvalues --   -1.87315  -1.87294  -1.86892  -1.86705  -1.12200
 Alpha  occ. eigenvalues --   -1.09156  -1.04308  -1.03886  -1.02948  -1.02876
 Alpha  occ. eigenvalues --   -1.02858  -1.01192  -1.00732  -0.99553  -0.99136
 Alpha  occ. eigenvalues --   -0.98179  -0.97587  -0.97543  -0.96591  -0.95971
 Alpha  occ. eigenvalues --   -0.88531  -0.86861  -0.84056  -0.83522  -0.83312
 Alpha  occ. eigenvalues --   -0.83033  -0.82375  -0.82078  -0.82037  -0.81392
 Alpha  occ. eigenvalues --   -0.81103  -0.80512  -0.80171  -0.79926  -0.79386
 Alpha  occ. eigenvalues --   -0.78550  -0.78444  -0.77689  -0.77500  -0.77046
 Alpha  occ. eigenvalues --   -0.76834  -0.76208  -0.75783  -0.75254  -0.75028
 Alpha  occ. eigenvalues --   -0.74388  -0.72972  -0.72433  -0.72239  -0.71879
 Alpha  occ. eigenvalues --   -0.71378  -0.70777  -0.70430  -0.70093  -0.69313
 Alpha  occ. eigenvalues --   -0.69273  -0.67069  -0.66995  -0.66542  -0.65985
 Alpha  occ. eigenvalues --   -0.64783  -0.64415  -0.63621  -0.63535  -0.63229
 Alpha  occ. eigenvalues --   -0.62259  -0.61530  -0.61217  -0.60966  -0.59815
 Alpha  occ. eigenvalues --   -0.59787  -0.59747  -0.59423  -0.59113  -0.58896
 Alpha  occ. eigenvalues --   -0.58777  -0.58398  -0.56086  -0.54776  -0.54590
 Alpha  occ. eigenvalues --   -0.54223  -0.54116  -0.53834  -0.53258  -0.53220
 Alpha  occ. eigenvalues --   -0.52996  -0.52705  -0.52666  -0.52449  -0.52122
 Alpha  occ. eigenvalues --   -0.51284  -0.51129  -0.50827  -0.50555  -0.50412
 Alpha  occ. eigenvalues --   -0.49862  -0.49712  -0.49431  -0.49131  -0.48865
 Alpha  occ. eigenvalues --   -0.48423  -0.48161  -0.47786  -0.47688  -0.47641
 Alpha  occ. eigenvalues --   -0.47551  -0.47303  -0.47197  -0.46957  -0.46592
 Alpha  occ. eigenvalues --   -0.46476  -0.46419  -0.46104  -0.46007  -0.45818
 Alpha  occ. eigenvalues --   -0.45777  -0.45530  -0.45501  -0.44824  -0.44742
 Alpha  occ. eigenvalues --   -0.44455  -0.44191  -0.44103  -0.44041  -0.43835
 Alpha  occ. eigenvalues --   -0.43788  -0.43759  -0.43518  -0.43358  -0.43349
 Alpha  occ. eigenvalues --   -0.43342  -0.43208  -0.43181  -0.42755  -0.42649
 Alpha  occ. eigenvalues --   -0.42487  -0.42253  -0.42180  -0.42007  -0.41754
 Alpha  occ. eigenvalues --   -0.41479  -0.41428  -0.41320  -0.41224  -0.41121
 Alpha  occ. eigenvalues --   -0.41004  -0.40888  -0.40742  -0.40599  -0.40517
 Alpha  occ. eigenvalues --   -0.40421  -0.40278  -0.39973  -0.39789  -0.39570
 Alpha  occ. eigenvalues --   -0.39470  -0.39468  -0.39433  -0.39297  -0.39109
 Alpha  occ. eigenvalues --   -0.38650  -0.38470  -0.38402  -0.38320  -0.38056
 Alpha  occ. eigenvalues --   -0.37984  -0.37664  -0.37638  -0.37385  -0.37377
 Alpha  occ. eigenvalues --   -0.37199  -0.37140  -0.37091  -0.36763  -0.36752
 Alpha  occ. eigenvalues --   -0.36678  -0.36639  -0.36504  -0.36187  -0.36081
 Alpha  occ. eigenvalues --   -0.36059  -0.36014  -0.35958  -0.35799  -0.35497
 Alpha  occ. eigenvalues --   -0.35258  -0.35022  -0.34657  -0.34504  -0.34110
 Alpha  occ. eigenvalues --   -0.34055  -0.33654  -0.32797  -0.32674  -0.32458
 Alpha  occ. eigenvalues --   -0.31945  -0.31929  -0.31699  -0.31491  -0.31067
 Alpha  occ. eigenvalues --   -0.31021  -0.30562  -0.29760  -0.29177  -0.29128
 Alpha  occ. eigenvalues --   -0.28666  -0.28550  -0.28451  -0.27363  -0.26852
 Alpha  occ. eigenvalues --   -0.25748  -0.25617  -0.25579  -0.25498  -0.25423
 Alpha  occ. eigenvalues --   -0.25350  -0.25178  -0.24800  -0.21192  -0.20706
 Alpha  occ. eigenvalues --   -0.19248  -0.18834
 Alpha virt. eigenvalues --   -0.11563  -0.11055  -0.05399  -0.05261  -0.04030
 Alpha virt. eigenvalues --   -0.04030  -0.02348  -0.02066  -0.01373  -0.00167
 Alpha virt. eigenvalues --    0.00373   0.00530   0.01322   0.01483   0.01880

 Mulliken charges:
               1
     1  Mg  11.999984
     2  C    6.000024
     3  C    5.999901
     4  C    5.999950
     5  C    6.000091
     6  N    7.000028
     7  C    5.999790
     8  C    6.000104
     9  C    5.999909
    10  C    6.000195
    11  C    5.999994
    12  C    6.000054
    13  C    6.000017
    14  H    0.999935
    15  N    6.999956
    16  C    6.000337
    17  C    6.000155
    18  C    6.000089
    19  C    6.000220
    20  C    5.999984
    21  C    6.000111
    22  O    8.000180
    23  C    5.999951
    24  N    7.000037
    25  C    6.000198
    26  C    5.999944
    27  C    6.000080
    28  C    5.999798
    29  C    5.999989
    30  C    6.000004
    31  C    6.000008
    32  N    7.000020
    33  C    5.999758
    34  C    5.999744
    35  C    5.999949
    36  C    5.999812
    37  C    6.000014
    38  C    5.999884
    39  O    7.999782
    40  C    5.999971
    41  C    5.999979
    42  O    7.999951
    43  O    7.999996
    44  C    6.000015
    45  H    1.000050
    46  H    1.000079
    47  H    0.999980
    48  H    0.999972
    49  H    1.000011
    50  H    1.000001
    51  H    1.000069
    52  H    0.999990
    53  H    1.000017
    54  H    0.999926
    55  H    0.999921
    56  H    1.000045
    57  H    1.000138
    58  H    1.000118
    59  H    1.000108
    60  H    1.000104
    61  H    1.000096
    62  H    1.000047
    63  H    1.000007
    64  H    1.000013
    65  H    0.999979
    66  H    1.000077
    67  H    1.000014
    68  H    1.000000
    69  H    0.999951
    70  H    0.999982
    71  H    1.000016
    72  H    1.000008
    73  H    0.999845
    74  H    0.999896
    75  H    0.999838
    76  H    0.999923
    77  H    0.999951
    78  H    0.999984
    79  H    0.999947
    80  Mg  11.999576
    81  C    5.990796
    82  C    6.016164
    83  C    6.000565
    84  C    5.984269
    85  N    6.996894
    86  C    6.021965
    87  C    5.993417
    88  C    6.015625
    89  C    5.966018
    90  C    5.999354
    91  C    5.998687
    92  C    5.997990
    93  H    1.004621
    94  N    7.012594
    95  C    5.960890
    96  C    5.982319
    97  C    5.984909
    98  C    5.974005
    99  C    6.000985
   100  C    5.987539
   101  O    7.971475
   102  C    6.004049
   103  N    6.990427
   104  C    5.973965
   105  C    6.006751
   106  C    5.992234
   107  C    6.038494
   108  C    6.004315
   109  C    5.995966
   110  C    5.996857
   111  N    6.998723
   112  C    6.042304
   113  C    6.026309
   114  C    6.001565
   115  C    6.025687
   116  C    5.999035
   117  C    6.014556
   118  O    8.028004
   119  C    6.001014
   120  C    6.004809
   121  O    8.008551
   122  O    7.999838
   123  C    5.997257
   124  H    0.995457
   125  H    0.993093
   126  H    1.007546
   127  H    0.997362
   128  H    0.996289
   129  H    0.998034
   130  H    0.990000
   131  H    1.003358
   132  H    1.007847
   133  H    0.994758
   134  H    1.003825
   135  H    0.995233
   136  H    0.984101
   137  H    0.983600
   138  H    0.986504
   139  H    0.993002
   140  H    0.993059
   141  H    0.986268
   142  H    0.999648
   143  H    1.001731
   144  H    1.000365
   145  H    0.989560
   146  H    1.004040
   147  H    1.008864
   148  H    0.996975
   149  H    1.010679
   150  H    1.004572
   151  H    0.992044
   152  H    1.017239
   153  H    1.017130
   154  H    1.016863
   155  H    1.007483
   156  H    1.001055
   157  H    1.006075
   158  H    1.004973
 Sum of Mulliken charges = 624.00000

 Dipole moment (field-independent basis, Debye):
    X=              6.9732    Y=             -6.4982    Z=              3.3850  Tot=             10.1148
 Quadrupole moment (field-independent basis, Debye-Ang):
   XX=           -419.9871   YY=             -5.4677   ZZ=              4.0576
   XY=            205.2596   XZ=           -102.7648   YZ=              0.0639

 Normal termination of Gaussian 16 at Thu Oct 14 22:41:56 2021.
