 Gaussian 16, Revision A.03,
 Gaussian 16:  ES64L-G16RevA.03 25-Dec-2016

 --------------------------------------------------------
 #p PBE1PBE/Def2SVP td=(nstates=5) density=(transition=1)
 --------------------------------------------------------

 --------------------------------
 TDDFT excited states in gaussian
 --------------------------------
 Symbolic Z-matrix:
 Charge =  0 Multiplicity = 1

                         Standard orientation:
 ---------------------------------------------------------------------
 Center     Atomic      Atomic             Coordinates (Angstroms)
 Number     Number       Type             X           Y           Z
 ---------------------------------------------------------------------
      1         12           0      -29.286889    0.470932    0.130684
      2          6           0      -27.332316   -2.134734   -1.249371
      3          6           0      -28.460846    2.282937   -2.478430
      4          6           0      -30.207137    3.069691    1.955958
      5          6           0      -29.384552   -1.502075    3.084677
      6          7           0      -28.136937   -0.049849   -1.750239
      7          6           0      -27.531948   -1.111530   -2.141538
      8          6           0      -27.147360   -1.008047   -3.631798
      9          6           0      -27.080654    0.584568   -3.878089
     10          6           0      -27.885146    1.013045   -2.581024
     11          6           0      -25.639914    1.228533   -3.954005
     12          6           0      -28.299522   -1.650369   -4.567122
     13          6           0      -27.927865   -2.353841   -5.912532
     14          1           0      -26.633300   -1.829336   -6.636306
     15          7           0      -29.526757    2.390463   -0.282593
     16          6           0      -29.158319    2.941972   -1.500476
     17          6           0      -29.499671    4.407970   -1.476402
     18          6           0      -30.058464    4.620094   -0.147260
     19          6           0      -29.976691    3.384450    0.636284
     20          6           0      -29.193327    5.306680   -2.659571
     21          6           0      -30.647682    5.902547    0.397611
     22          8           0      -31.073240    6.047045    1.552090
     23          6           0      -30.767249    7.064987   -0.502345
     24          7           0      -29.850705    0.729032    2.277226
     25          6           0      -30.136510    1.935623    2.732023
     26          6           0      -30.803421    1.831334    4.175216
     27          6           0      -30.479600    0.278543    4.523159
     28          6           0      -29.900384   -0.210444    3.198369
     29          6           0      -30.265254    2.884082    5.199759
     30          6           0      -31.659406   -0.627704    5.005678
     31          6           0      -31.625733   -1.088833    6.440133
     32          7           0      -28.717956   -1.535551    0.780206
     33          6           0      -28.846586   -2.141347    2.014246
     34          6           0      -28.191209   -3.382172    2.011856
     35          6           0      -27.548286   -3.397690    0.759579
     36          6           0      -27.844409   -2.266131    0.037089
     37          6           0      -28.117253   -4.359121    3.074544
     38          6           0      -26.762358   -4.250499   -0.044914
     39          8           0      -26.323781   -5.429336    0.045486
     40          6           0      -26.361363   -3.337539   -1.289394
     41          6           0      -26.421984   -4.124804   -2.546726
     42          8           0      -27.406809   -4.649341   -3.062580
     43          8           0      -25.119867   -4.074028   -3.137064
     44          6           0      -24.928966   -4.798037   -4.400293
     45          1           0      -28.276801    2.797274   -3.424417
     46          1           0      -30.567592    3.927181    2.526877
     47          1           0      -29.488084   -2.132726    3.970875
     48          1           0      -26.103376   -1.309854   -3.712015
     49          1           0      -27.492481    0.792825   -4.864979
     50          1           0      -24.867987    0.541863   -3.607234
     51          1           0      -25.551900    2.094507   -3.298158
     52          1           0      -25.482847    1.476368   -5.003713
     53          1           0      -29.079406   -0.919029   -4.779881
     54          1           0      -28.854702   -2.370920   -3.966226
     55          1           0      -28.713118   -2.300315   -6.667281
     56          1           0      -27.599627   -3.361482   -5.654531
     57          1           0      -30.026393    5.968247   -2.899830
     58          1           0      -28.924145    4.754217   -3.559835
     59          1           0      -28.249922    5.822949   -2.483659
     60          1           0      -29.794984    7.355111   -0.901629
     61          1           0      -31.207651    7.904578    0.035543
     62          1           0      -31.432301    6.934113   -1.355975
     63          1           0      -31.890218    1.907222    4.142312
     64          1           0      -29.610880    0.176555    5.175230
     65          1           0      -29.440819    3.449591    4.765097
     66          1           0      -30.062472    2.242989    6.057890
     67          1           0      -31.118936    3.487825    5.504959
     68          1           0      -31.649792   -1.525889    4.387810
     69          1           0      -32.606044   -0.122436    4.813111
     70          1           0      -30.808660   -0.509548    6.868111
     71          1           0      -31.332960   -2.139413    6.443372
     72          1           0      -32.535529   -0.855946    6.992043
     73          1           0      -29.140790   -4.548236    3.397028
     74          1           0      -27.712415   -4.004613    4.022497
     75          1           0      -27.674712   -5.280336    2.695114
     76          1           0      -25.347443   -2.970735   -1.126474
     77          1           0      -23.884078   -4.764964   -4.709969
     78          1           0      -25.423305   -4.239710   -5.195495
     79          1           0      -25.196592   -5.844323   -4.256596
     80         12           0       28.975126    0.595952   -0.560048
     81          6           0       27.339440   -2.264623    0.806456
     82          6           0       26.423477    2.361946    0.615683
     83          6           0       30.842372    3.394436   -0.881575
     84          6           0       31.866022   -1.477505   -0.769072
     85          7           0       27.113174    0.106547    0.432556
     86          6           0       26.577973   -1.136910    0.833043
     87          6           0       25.170813   -1.013750    1.497936
     88          6           0       24.902784    0.511400    1.356234
     89          6           0       26.184144    1.038536    0.676377
     90          6           0       23.583837    0.678011    0.583358
     91          6           0       25.017791   -1.514141    2.998947
     92          6           0       24.119041   -2.723348    3.230436
     93          1           0       22.953561   -2.561375    4.227577
     94          7           0       28.680565    2.572626   -0.291369
     95          6           0       27.507034    3.116155    0.230803
     96          6           0       27.545202    4.521411    0.172095
     97          6           0       28.749389    4.893916   -0.396216
     98          6           0       29.496993    3.661605   -0.544097
     99          6           0       26.443446    5.557074    0.608469
    100          6           0       29.107430    6.329782   -0.700172
    101          8           0       28.351552    7.248839   -0.590001
    102          6           0       30.565748    6.557970   -1.336508
    103          7           0       31.066581    0.936474   -0.721233
    104          6           0       31.568942    2.198991   -0.881694
    105          6           0       33.147228    2.071402   -0.875516
    106          6           0       33.488062    0.574849   -0.970302
    107          6           0       32.053785   -0.054298   -0.792481
    108          6           0       33.858640    2.971573   -1.845347
    109          6           0       34.362911    0.177276    0.212079
    110          6           0       35.220449   -1.050289    0.054937
    111          7           0       29.464864   -1.517247   -0.321847
    112          6           0       30.656174   -2.186631   -0.469907
    113          6           0       30.469266   -3.574937   -0.251323
    114          6           0       29.137993   -3.737310    0.199857
    115          6           0       28.626889   -2.409432    0.243349
    116          6           0       31.490262   -4.639666   -0.303038
    117          6           0       28.075301   -4.624739    0.691347
    118          8           0       28.085687   -5.858869    0.793021
    119          6           0       26.842761   -3.724639    1.087978
    120          6           0       25.766392   -3.965248    0.164289
    121          8           0       25.797157   -3.503910   -1.001128
    122          8           0       24.871375   -4.755995    0.788389
    123          6           0       23.559575   -5.004613    0.130067
    124          1           0       25.582757    2.970826    0.955690
    125          1           0       31.397699    4.320739   -1.043629
    126          1           0       32.685371   -2.180071   -0.932991
    127          1           0       24.436593   -1.561873    0.907608
    128          1           0       24.822952    1.029981    2.311159
    129          1           0       23.490380    1.737587    0.347073
    130          1           0       22.680670    0.369748    1.109841
    131          1           0       23.578105    0.119393   -0.353272
    132          1           0       24.477347   -0.703654    3.488004
    133          1           0       26.000657   -1.648884    3.450652
    134          1           0       24.760260   -3.545826    3.549251
    135          1           0       23.641816   -2.998945    2.289347
    136          1           0       26.943383    6.245922    1.289695
    137          1           0       25.613222    5.076207    1.125533
    138          1           0       25.920226    6.064939   -0.201684
    139          1           0       30.608535    7.615086   -1.597052
    140          1           0       30.568874    5.875763   -2.186950
    141          1           0       31.216739    6.248382   -0.518965
    142          1           0       33.419349    2.434800    0.116067
    143          1           0       33.980486    0.238765   -1.882755
    144          1           0       34.786270    2.484947   -2.145438
    145          1           0       34.042055    3.902010   -1.307627
    146          1           0       33.254330    3.286366   -2.695321
    147          1           0       33.800718    0.054166    1.138214
    148          1           0       35.032202    0.981716    0.517010
    149          1           0       35.262363   -1.410317   -0.972873
    150          1           0       34.796475   -1.833558    0.683626
    151          1           0       36.198243   -0.898986    0.512138
    152          1           0       32.294686   -4.393545   -0.996892
    153          1           0       30.961094   -5.533333   -0.634744
    154          1           0       31.900755   -4.694750    0.705469
    155          1           0       26.548935   -3.788230    2.135712
    156          1           0       23.370666   -6.025204    0.466125
    157          1           0       23.577180   -4.887919   -0.953126
    158          1           0       22.755006   -4.458131    0.623286
 ---------------------------------------------------------------------

 SCF Done:  E(RPBE1PBE) =  -4067.34347569     A.U. after   16 cycles

 Excitation energies and oscillator strengths:

 Excited State   1:      Singlet-A      1.8689 eV  663.42 nm  f=0.3678  <S**2>=0.000
     309 -> 316        0.16691
     312 -> 313        0.69418
     312 <- 313       -0.10955
 This state for optimization and/or second-order correction.
 Total Energy, E(TD-HF/TD-DFT) =  -4067.27479577
 Copying the excited state density for this state as the 1-particle RhoCI density.

 Excited State   2:      Singlet-A      1.9488 eV  636.21 nm  f=0.3529  <S**2>=0.000
     310 -> 315       -0.20425
     311 -> 314        0.68089

 Excited State   3:      Singlet-A      2.0313 eV  610.38 nm  f=0.0000  <S**2>=0.000
     312 -> 314        0.70711

 Excited State   4:      Singlet-A      2.1381 eV  579.89 nm  f=0.0000  <S**2>=0.000
     311 -> 313        0.70711

 Excited State   5:      Singlet-A      2.2125 eV  560.39 nm  f=0.0834  <S**2>=0.000
     310 -> 314        0.64638
     311 -> 315        0.26599

 The electronic state is 1-A.
 Alpha  occ. eigenvalues --  -46.92801 -46.91945 -19.27164 -19.24632 -19.20418
 Alpha  occ. eigenvalues --  -19.19938 -19.19732 -19.19190 -19.19146 -19.18776
 Alpha  occ. eigenvalues --  -14.41972 -14.41779 -14.41667 -14.41162 -14.39674
 Alpha  occ. eigenvalues --  -14.39099 -14.38312 -14.38250 -10.36514 -10.36309
 Alpha  occ. eigenvalues --  -10.32706 -10.32512 -10.32215 -10.31678 -10.30072
 Alpha  occ. eigenvalues --  -10.29485 -10.29257 -10.29250 -10.28676 -10.28505
 Alpha  occ. eigenvalues --  -10.28448 -10.28413 -10.28409 -10.28356 -10.28320
 Alpha  occ. eigenvalues --  -10.28082 -10.27978 -10.27939 -10.27042 -10.26852
 Alpha  occ. eigenvalues --  -10.26687 -10.26525 -10.26524 -10.26500 -10.26305
 Alpha  occ. eigenvalues --  -10.26180 -10.26169 -10.26086 -10.26082 -10.25934
 Alpha  occ. eigenvalues --  -10.25869 -10.25670 -10.25649 -10.25632 -10.25499
 Alpha  occ. eigenvalues --  -10.25499 -10.25436 -10.25421 -10.25398 -10.25138
 Alpha  occ. eigenvalues --  -10.25115 -10.25077 -10.25043 -10.25036 -10.24732
 Alpha  occ. eigenvalues --  -10.24636 -10.24549 -10.24352 -10.23978 -10.23901
 Alpha  occ. eigenvalues --  -10.23873 -10.23848 -10.23640 -10.23594 -10.23561
 Alpha  occ. eigenvalues --  -10.23446 -10.23441 -10.23366 -10.23312 -10.23270
 Alpha  occ. eigenvalues --  -10.23076 -10.23039 -10.22860 -10.22837 -10.22655
 Alpha  occ. eigenvalues --  -10.22403  -3.14838  -3.14117  -1.87681  -1.87220
 Alpha  occ. eigenvalues --   -1.87047  -1.86933  -1.86471  -1.86367  -1.11426
 Alpha  occ. eigenvalues --   -1.08693  -1.06610  -1.04108  -1.03552  -1.02203
 Alpha  occ. eigenvalues --   -1.02050  -1.01552  -1.00448  -0.99871  -0.98683
 Alpha  occ. eigenvalues --   -0.98241  -0.97875  -0.97487  -0.96383  -0.96097
 Alpha  occ. eigenvalues --   -0.87382  -0.86635  -0.83975  -0.83845  -0.83571
 Alpha  occ. eigenvalues --   -0.82979  -0.82950  -0.82206  -0.81918  -0.81655
 Alpha  occ. eigenvalues --   -0.81649  -0.81129  -0.81029  -0.80836  -0.79055
 Alpha  occ. eigenvalues --   -0.78605  -0.78579  -0.78279  -0.77537  -0.77012
 Alpha  occ. eigenvalues --   -0.76241  -0.76162  -0.75800  -0.75504  -0.75032
 Alpha  occ. eigenvalues --   -0.74520  -0.73288  -0.72095  -0.72063  -0.71657
 Alpha  occ. eigenvalues --   -0.71286  -0.70914  -0.70574  -0.70236  -0.69592
 Alpha  occ. eigenvalues --   -0.69444  -0.67717  -0.67267  -0.66758  -0.66175
 Alpha  occ. eigenvalues --   -0.63550  -0.63421  -0.63034  -0.62961  -0.62325
 Alpha  occ. eigenvalues --   -0.62228  -0.61634  -0.61627  -0.60444  -0.60104
 Alpha  occ. eigenvalues --   -0.60077  -0.60040  -0.60005  -0.59522  -0.59172
 Alpha  occ. eigenvalues --   -0.59156  -0.56855  -0.55841  -0.55089  -0.54741
 Alpha  occ. eigenvalues --   -0.54653  -0.54230  -0.53921  -0.53911  -0.53046
 Alpha  occ. eigenvalues --   -0.53034  -0.52829  -0.52330  -0.51890  -0.51830
 Alpha  occ. eigenvalues --   -0.51503  -0.50943  -0.50568  -0.50355  -0.50016
 Alpha  occ. eigenvalues --   -0.49583  -0.49287  -0.48897  -0.48846  -0.48563
 Alpha  occ. eigenvalues --   -0.48439  -0.48107  -0.47760  -0.47750  -0.47552
 Alpha  occ. eigenvalues --   -0.47448  -0.47088  -0.47035  -0.46939  -0.46749
 Alpha  occ. eigenvalues --   -0.46669  -0.46255  -0.46110  -0.46106  -0.45846
 Alpha  occ. eigenvalues --   -0.45741  -0.45513  -0.45187  -0.45076  -0.45048
 Alpha  occ. eigenvalues --   -0.44997  -0.44819  -0.44492  -0.44492  -0.44359
 Alpha  occ. eigenvalues --   -0.44250  -0.43785  -0.43760  -0.43575  -0.43439
 Alpha  occ. eigenvalues --   -0.43274  -0.43072  -0.43052  -0.42948  -0.42697
 Alpha  occ. eigenvalues --   -0.42663  -0.42483  -0.42317  -0.42212  -0.42028
 Alpha  occ. eigenvalues --   -0.42005  -0.41674  -0.41668  -0.41543  -0.41123
 Alpha  occ. eigenvalues --   -0.41082  -0.41009  -0.40906  -0.40784  -0.40318
 Alpha  occ. eigenvalues --   -0.40318  -0.40160  -0.40047  -0.39909  -0.39746
 Alpha  occ. eigenvalues --   -0.39571  -0.39504  -0.39104  -0.39005  -0.38887
 Alpha  occ. eigenvalues --   -0.38800  -0.38748  -0.38415  -0.38393  -0.38319
 Alpha  occ. eigenvalues --   -0.38151  -0.38124  -0.37904  -0.37799  -0.37667
 Alpha  occ. eigenvalues --   -0.37503  -0.37377  -0.37166  -0.36818  -0.36782
 Alpha  occ. eigenvalues --   -0.36593  -0.36528  -0.36486  -0.36385  -0.35981
 Alpha  occ. eigenvalues --   -0.35878  -0.35660  -0.35534  -0.35531  -0.35283
 Alpha  occ. eigenvalues --   -0.35197  -0.35097  -0.35023  -0.34082  -0.33983
 Alpha  occ. eigenvalues --   -0.33508  -0.33389  -0.33173  -0.32889  -0.32622
 Alpha  occ. eigenvalues --   -0.32451  -0.32207  -0.31771  -0.31571  -0.31067
 Alpha  occ. eigenvalues --   -0.31053  -0.30688  -0.29802  -0.29422  -0.29111
 Alpha  occ. eigenvalues --   -0.28965  -0.28803  -0.28587  -0.27432  -0.27392
 Alpha  occ. eigenvalues --   -0.26154  -0.26058  -0.25958  -0.25778  -0.25521
 Alpha  occ. eigenvalues --   -0.25305  -0.25026  -0.24753  -0.21173  -0.21122
 Alpha  occ. eigenvalues --   -0.19324  -0.18877
 Alpha virt. eigenvalues --   -0.11238  -0.11184  -0.06079  -0.05252  -0.04435
 Alpha virt. eigenvalues --   -0.03717  -0.02157  -0.01684  -0.00553  -0.00522
 Alpha virt. eigenvalues --   -0.00043   0.00004   0.00559   0.01143   0.01387

 Mulliken charges:
               1
     1  Mg  12.000001
     2  C    5.999945
     3  C    6.000014
     4  C    6.000035
     5  C    5.999983
     6  N    6.999966
     7  C    6.000016
     8  C    6.000012
     9  C    5.999983
    10  C    6.000040
    11  C    5.999991
    12  C    6.000007
    13  C    5.999995
    14  H    1.000002
    15  N    7.000015
    16  C    6.000033
    17  C    5.999982
    18  C    6.000035
    19  C    5.999992
    20  C    6.000003
    21  C    6.000037
    22  O    8.000042
    23  C    5.999985
    24  N    7.000025
    25  C    5.999981
    26  C    5.999979
    27  C    6.000013
    28  C    5.999965
    29  C    5.999996
    30  C    6.000013
    31  C    5.999998
    32  N    6.999974
    33  C    5.999990
    34  C    5.999985
    35  C    6.000034
    36  C    5.999997
    37  C    5.999990
    38  C    5.999940
    39  O    7.999943
    40  C    6.000014
    41  C    5.999991
    42  O    7.999984
    43  O    8.000000
    44  C    6.000008
    45  H    1.000026
    46  H    1.000010
    47  H    0.999974
    48  H    1.000003
    49  H    1.000009
    50  H    1.000023
    51  H    1.000007
    52  H    1.000017
    53  H    0.999981
    54  H    1.000001
    55  H    0.999991
    56  H    0.999997
    57  H    1.000034
    58  H    1.000034
    59  H    1.000056
    60  H    1.000022
    61  H    1.000037
    62  H    1.000009
    63  H    1.000004
    64  H    1.000005
    65  H    1.000006
    66  H    1.000014
    67  H    1.000002
    68  H    1.000003
    69  H    0.999976
    70  H    1.000001
    71  H    0.999996
    72  H    0.999986
    73  H    0.999960
    74  H    0.999955
    75  H    0.999961
    76  H    0.999994
    77  H    0.999990
    78  H    0.999995
    79  H    0.999983
    80  Mg  12.000066
    81  C    5.979789
    82  C    6.001830
    83  C    6.019022
    84  C    5.993868
    85  N    6.984289
    86  C    6.028092
    87  C    5.988221
    88  C    6.013936
    89  C    5.970061
    90  C    6.002559
    91  C    5.997745
    92  C    5.997748
    93  H    1.006449
    94  N    7.002540
    95  C    5.967364
    96  C    5.977128
    97  C    5.990157
    98  C    5.967458
    99  C    6.001860
   100  C    5.991710
   101  O    7.983377
   102  C    5.996152
   103  N    7.004546
   104  C    5.973129
   105  C    6.002817
   106  C    5.993569
   107  C    6.031254
   108  C    6.000453
   109  C    5.992583
   110  C    5.999527
   111  N    7.002025
   112  C    6.031637
   113  C    6.028638
   114  C    6.004007
   115  C    6.029220
   116  C    5.998762
   117  C    6.017842
   118  O    8.029208
   119  C    6.002106
   120  C    6.002213
   121  O    8.005479
   122  O    8.001222
   123  C    5.998412
   124  H    0.986641
   125  H    0.994182
   126  H    1.009095
   127  H    1.000968
   128  H    0.997566
   129  H    1.005407
   130  H    0.988815
   131  H    0.990235
   132  H    1.008453
   133  H    0.998014
   134  H    0.995201
   135  H    0.998981
   136  H    0.985376
   137  H    0.983633
   138  H    0.982307
   139  H    0.988848
   140  H    0.993067
   141  H    0.992240
   142  H    1.000432
   143  H    1.003119
   144  H    0.992043
   145  H    1.004460
   146  H    1.002332
   147  H    1.002258
   148  H    1.012171
   149  H    0.999995
   150  H    0.994837
   151  H    1.005558
   152  H    1.016876
   153  H    1.014070
   154  H    1.020607
   155  H    1.010483
   156  H    1.001866
   157  H    1.002945
   158  H    1.006846
 Sum of Mulliken charges = 624.00000

 Dipole moment (field-independent basis, Debye):
    X=              2.6948    Y=             -9.8249    Z=              0.0704  Tot=             10.1880
 Quadrupole moment (field-independent basis, Debye-Ang):
   XX=            158.7960   YY=             -8.9826   ZZ=              0.2291
   XY=           -282.8042   XZ=              2.3128   YZ=              0.6552

 Normal termination of Gaussian 16 at Thu Oct 14 07:36:44 2021.
