 Gaussian 16, Revision A.03,
 Gaussian 16:  ES64L-G16RevA.03 25-Dec-2016

 --------------------------------------------------------
 #p PBE1PBE/Def2SVP td=(nstates=5) density=(transition=1)
 --------------------------------------------------------

 --------------------------------
 TDDFT excited states in gaussian
 --------------------------------
 Symbolic Z-matrix:
 Charge =  0 Multiplicity = 1

                         Standard orientation:
 ---------------------------------------------------------------------
 Center     Atomic      Atomic             Coordinates (Angstroms)
 Number     Number       Type             X           Y           Z
 ---------------------------------------------------------------------
      1         12           0       20.109035    0.437768    0.389192
      2          6           0       17.751443   -1.556555   -1.215065
      3          6           0       21.212534    1.559039   -2.590148
      4          6           0       22.641974    1.978123    2.013078
      5          6           0       19.253407   -1.119565    3.344256
      6          7           0       19.517525   -0.001632   -1.700880
      7          6           0       18.394642   -0.684895   -2.093104
      8          6           0       18.210886   -0.577293   -3.559176
      9          6           0       19.314453    0.356952   -4.068777
     10          6           0       20.096264    0.713732   -2.731832
     11          6           0       20.208359   -0.110848   -5.206760
     12          6           0       16.698801   -0.090558   -3.937048
     13          6           0       15.820464   -1.054201   -4.769020
     14          1           0       14.918633   -0.532149   -5.860379
     15          7           0       21.627914    1.698704   -0.184641
     16          6           0       21.945869    2.044222   -1.489542
     17          6           0       23.097937    2.870386   -1.495187
     18          6           0       23.546675    3.009672   -0.153831
     19          6           0       22.582403    2.228349    0.627414
     20          6           0       23.543398    3.524708   -2.861155
     21          6           0       24.809172    3.751737    0.281266
     22          8           0       25.244740    3.808797    1.441196
     23          6           0       25.559639    4.540700   -0.699481
     24          7           0       21.046414    0.281380    2.353020
     25          6           0       21.982482    1.083535    2.816453
     26          6           0       22.356151    0.716690    4.270386
     27          6           0       20.954408    0.131603    4.703534
     28          6           0       20.336426   -0.253881    3.363253
     29          6           0       23.503731   -0.317808    4.568954
     30          6           0       19.991073    1.098084    5.545750
     31          6           0       19.576600    2.372942    4.933362
     32          7           0       18.783199   -1.117125    1.052500
     33          6           0       18.527840   -1.648899    2.331720
     34          6           0       17.516958   -2.652989    2.233263
     35          6           0       17.220740   -2.714124    0.886137
     36          6           0       17.949620   -1.674858    0.220355
     37          6           0       17.130993   -3.591532    3.269052
     38          6           0       16.317821   -3.238065   -0.026903
     39          8           0       15.422865   -4.081090    0.093100
     40          6           0       16.652056   -2.612858   -1.457417
     41          6           0       17.223543   -3.736712   -2.257049
     42          8           0       18.193586   -4.443442   -2.080163
     43          8           0       16.394368   -3.878644   -3.292612
     44          6           0       16.760160   -4.939657   -4.287268
     45          1           0       21.325619    2.013166   -3.576750
     46          1           0       23.375001    2.614935    2.511267
     47          1           0       18.948317   -1.555579    4.297590
     48          1           0       18.362138   -1.589648   -3.931762
     49          1           0       18.860969    1.292893   -4.394320
     50          1           0       21.010003   -0.493520   -4.576172
     51          1           0       20.486776    0.651428   -5.934659
     52          1           0       19.883761   -0.930075   -5.847747
     53          1           0       16.759528    0.872257   -4.443533
     54          1           0       16.050042    0.034331   -3.069725
     55          1           0       15.113818   -1.495700   -4.065694
     56          1           0       16.388109   -1.904843   -5.143882
     57          1           0       24.598901    3.304340   -3.019562
     58          1           0       23.439417    4.562718   -2.544972
     59          1           0       23.071009    3.178706   -3.780574
     60          1           0       25.879076    3.922576   -1.537373
     61          1           0       26.526111    4.736884   -0.235817
     62          1           0       25.092871    5.479907   -0.997439
     63          1           0       22.418808    1.639292    4.847602
     64          1           0       21.218282   -0.708147    5.345970
     65          1           0       23.547980   -1.180418    3.905175
     66          1           0       23.297045   -0.598700    5.602287
     67          1           0       24.480873    0.161998    4.507450
     68          1           0       20.419536    1.410174    6.498493
     69          1           0       18.992071    0.672611    5.640542
     70          1           0       18.755438    2.076468    4.282260
     71          1           0       20.284390    2.921142    4.310836
     72          1           0       19.165744    3.149659    5.577513
     73          1           0       17.891825   -4.370184    3.203035
     74          1           0       16.147567   -4.045036    3.148735
     75          1           0       17.040166   -3.135725    4.255607
     76          1           0       15.801794   -2.111914   -1.920372
     77          1           0       17.132653   -4.383327   -5.147703
     78          1           0       15.886131   -5.551455   -4.509453
     79          1           0       17.565942   -5.623192   -4.018217
     80         12           0      -20.003888   -0.517891   -0.395071
     81          6           0      -19.706097    2.917526    0.019988
     82          6           0      -16.553954   -0.833007    0.351399
     83          6           0      -20.452652   -3.745228    0.344561
     84          6           0      -23.502028   -0.081874   -0.434724
     85          7           0      -18.357841    0.917118    0.490012
     86          6           0      -18.472308    2.272228    0.292760
     87          6           0      -17.184814    2.979299    0.579087
     88          6           0      -16.127819    1.790664    0.429788
     89          6           0      -17.030899    0.507008    0.451138
     90          6           0      -15.182426    1.847188   -0.873943
     91          6           0      -17.265414    3.759669    1.990458
     92          6           0      -16.384441    4.898657    2.103630
     93          1           0      -15.444284    4.834346    3.325954
     94          7           0      -18.695942   -2.112683    0.075902
     95          6           0      -17.299047   -2.038055    0.336931
     96          6           0      -16.825414   -3.391652    0.571745
     97          6           0      -17.931388   -4.275937    0.556076
     98          6           0      -19.101243   -3.393046    0.229488
     99          6           0      -15.418109   -3.679433    0.941588
    100          6           0      -17.841434   -5.825817    0.880296
    101          8           0      -16.726749   -6.275243    1.141987
    102          6           0      -18.988863   -6.783317    0.577519
    103          7           0      -21.739296   -1.660101   -0.002209
    104          6           0      -21.616772   -3.002544    0.154934
    105          6           0      -23.064762   -3.747926    0.436294
    106          6           0      -24.062552   -2.585132   -0.036909
    107          6           0      -23.106974   -1.361476   -0.203370
    108          6           0      -23.326257   -5.070874   -0.378601
    109          6           0      -25.172213   -2.296051    0.975767
    110          6           0      -26.662287   -2.423895    0.578064
    111          7           0      -21.312287    1.073926   -0.529412
    112          6           0      -22.676143    1.089955   -0.574488
    113          6           0      -23.123615    2.438993   -0.785939
    114          6           0      -21.931441    3.201676   -0.491122
    115          6           0      -20.881758    2.286404   -0.303041
    116          6           0      -24.545916    2.895145   -0.938373
    117          6           0      -21.447296    4.547148   -0.262793
    118          8           0      -21.973944    5.597733   -0.470885
    119          6           0      -19.900273    4.465925    0.039531
    120          6           0      -18.997552    5.113703   -1.033461
    121          8           0      -19.078692    4.898215   -2.223649
    122          8           0      -18.145281    6.058804   -0.426028
    123          6           0      -17.361894    6.877271   -1.301461
    124          1           0      -15.475415   -0.858477    0.515701
    125          1           0      -20.674916   -4.710768    0.803304
    126          1           0      -24.589694    0.004226   -0.466747
    127          1           0      -16.867403    3.615539   -0.247728
    128          1           0      -15.493384    1.792071    1.316858
    129          1           0      -14.165522    1.897238   -0.484921
    130          1           0      -15.401019    2.696851   -1.520035
    131          1           0      -15.332901    0.903560   -1.399169
    132          1           0      -16.956872    3.002954    2.711571
    133          1           0      -18.340063    3.924007    2.073844
    134          1           0      -17.031117    5.772153    2.177650
    135          1           0      -15.731320    4.954205    1.232784
    136          1           0      -14.771501   -2.820537    0.762754
    137          1           0      -15.014123   -4.455489    0.291006
    138          1           0      -15.330324   -3.934472    1.997950
    139          1           0      -19.876648   -6.612221    1.187157
    140          1           0      -18.613668   -7.797080    0.721368
    141          1           0      -19.226136   -6.677416   -0.481120
    142          1           0      -23.083825   -3.848694    1.521113
    143          1           0      -24.466549   -2.707236   -1.042121
    144          1           0      -23.354869   -5.921593    0.301629
    145          1           0      -22.518646   -5.220608   -1.096154
    146          1           0      -24.286532   -4.942620   -0.879279
    147          1           0      -25.030357   -1.331451    1.462602
    148          1           0      -25.114419   -2.880655    1.893776
    149          1           0      -27.245297   -1.505265    0.506941
    150          1           0      -27.119414   -2.990292    1.389799
    151          1           0      -26.773852   -2.935447   -0.378710
    152          1           0      -24.514069    3.890705   -1.381725
    153          1           0      -25.031835    3.209983   -0.015405
    154          1           0      -25.205623    2.189117   -1.442074
    155          1           0      -19.804720    5.038795    0.962340
    156          1           0      -16.516026    7.098623   -0.649798
    157          1           0      -17.823520    7.849251   -1.474518
    158          1           0      -17.164401    6.363921   -2.241656
 ---------------------------------------------------------------------

 SCF Done:  E(RPBE1PBE) =  -4067.32485623     A.U. after   17 cycles

 Excitation energies and oscillator strengths:

 Excited State   1:      Singlet-A      1.8324 eV  676.64 nm  f=0.3767  <S**2>=0.000
     309 -> 316       -0.16911
     312 -> 314        0.69515
     312 <- 314       -0.11102
 This state for optimization and/or second-order correction.
 Total Energy, E(TD-HF/TD-DFT) =  -4067.25751824
 Copying the excited state density for this state as the 1-particle RhoCI density.

 Excited State   2:      Singlet-A      1.8587 eV  667.04 nm  f=0.3532  <S**2>=0.000
     310 -> 315       -0.16384
     311 -> 313        0.69233
     311 <- 313       -0.10761

 Excited State   3:      Singlet-A      1.9082 eV  649.74 nm  f=0.0000  <S**2>=0.000
     312 -> 313        0.70710

 Excited State   4:      Singlet-A      2.0381 eV  608.33 nm  f=0.0000  <S**2>=0.000
     311 -> 314        0.70711

 Excited State   5:      Singlet-A      2.1770 eV  569.51 nm  f=0.1438  <S**2>=0.000
     310 -> 313        0.66024
     311 -> 315        0.23473

 The electronic state is 1-A.
 Alpha  occ. eigenvalues --  -46.93182 -46.92745 -19.25818 -19.25697 -19.20966
 Alpha  occ. eigenvalues --  -19.19728 -19.19315 -19.18916 -19.18626 -19.18482
 Alpha  occ. eigenvalues --  -14.41700 -14.41649 -14.41645 -14.41233 -14.39738
 Alpha  occ. eigenvalues --  -14.39396 -14.38826 -14.38625 -10.37144 -10.35618
 Alpha  occ. eigenvalues --  -10.33389 -10.32224 -10.31299 -10.31290 -10.29389
 Alpha  occ. eigenvalues --  -10.29224 -10.29178 -10.28943 -10.28924 -10.28700
 Alpha  occ. eigenvalues --  -10.28536 -10.28456 -10.28409 -10.28399 -10.28379
 Alpha  occ. eigenvalues --  -10.28025 -10.27846 -10.27654 -10.27527 -10.27091
 Alpha  occ. eigenvalues --  -10.26809 -10.26637 -10.26549 -10.26447 -10.26384
 Alpha  occ. eigenvalues --  -10.26365 -10.26247 -10.26234 -10.26028 -10.25962
 Alpha  occ. eigenvalues --  -10.25857 -10.25824 -10.25820 -10.25689 -10.25678
 Alpha  occ. eigenvalues --  -10.25638 -10.25630 -10.25587 -10.25551 -10.25483
 Alpha  occ. eigenvalues --  -10.25353 -10.25332 -10.25276 -10.25144 -10.25033
 Alpha  occ. eigenvalues --  -10.24922 -10.24292 -10.24220 -10.24203 -10.24128
 Alpha  occ. eigenvalues --  -10.24124 -10.24116 -10.24024 -10.23992 -10.23977
 Alpha  occ. eigenvalues --  -10.23904 -10.23759 -10.23414 -10.23387 -10.23338
 Alpha  occ. eigenvalues --  -10.23333 -10.22897 -10.22690 -10.22610 -10.22352
 Alpha  occ. eigenvalues --  -10.22134  -3.15182  -3.14738  -1.87969  -1.87610
 Alpha  occ. eigenvalues --   -1.87582  -1.87370  -1.87090  -1.86977  -1.11790
 Alpha  occ. eigenvalues --   -1.10858  -1.05712  -1.04853  -1.03868  -1.03590
 Alpha  occ. eigenvalues --   -1.03309  -1.02182  -1.00046  -0.99809  -0.98940
 Alpha  occ. eigenvalues --   -0.98071  -0.97392  -0.97329  -0.96935  -0.96170
 Alpha  occ. eigenvalues --   -0.86683  -0.86570  -0.83532  -0.83517  -0.83053
 Alpha  occ. eigenvalues --   -0.82706  -0.82600  -0.82418  -0.82280  -0.81956
 Alpha  occ. eigenvalues --   -0.81175  -0.81173  -0.80798  -0.80075  -0.78957
 Alpha  occ. eigenvalues --   -0.78552  -0.78304  -0.77667  -0.77380  -0.76903
 Alpha  occ. eigenvalues --   -0.76358  -0.76258  -0.75850  -0.75480  -0.75097
 Alpha  occ. eigenvalues --   -0.74622  -0.73095  -0.72216  -0.71989  -0.71723
 Alpha  occ. eigenvalues --   -0.71572  -0.71015  -0.70484  -0.70312  -0.69709
 Alpha  occ. eigenvalues --   -0.69266  -0.67936  -0.67144  -0.66156  -0.65775
 Alpha  occ. eigenvalues --   -0.63791  -0.63608  -0.63488  -0.62928  -0.62180
 Alpha  occ. eigenvalues --   -0.61854  -0.61589  -0.60831  -0.60308  -0.60286
 Alpha  occ. eigenvalues --   -0.59927  -0.59342  -0.59335  -0.58871  -0.58695
 Alpha  occ. eigenvalues --   -0.58502  -0.57421  -0.56633  -0.55024  -0.54502
 Alpha  occ. eigenvalues --   -0.54221  -0.54069  -0.53895  -0.53542  -0.53272
 Alpha  occ. eigenvalues --   -0.53061  -0.52837  -0.52623  -0.52390  -0.52034
 Alpha  occ. eigenvalues --   -0.51052  -0.50835  -0.50266  -0.50112  -0.49954
 Alpha  occ. eigenvalues --   -0.49635  -0.49561  -0.49363  -0.49259  -0.49206
 Alpha  occ. eigenvalues --   -0.48606  -0.47917  -0.47852  -0.47829  -0.47462
 Alpha  occ. eigenvalues --   -0.47337  -0.47295  -0.47132  -0.46945  -0.46747
 Alpha  occ. eigenvalues --   -0.46584  -0.46503  -0.46299  -0.46182  -0.45864
 Alpha  occ. eigenvalues --   -0.45699  -0.45651  -0.45466  -0.45002  -0.44767
 Alpha  occ. eigenvalues --   -0.44483  -0.44432  -0.44333  -0.44273  -0.44172
 Alpha  occ. eigenvalues --   -0.44136  -0.43892  -0.43845  -0.43829  -0.43610
 Alpha  occ. eigenvalues --   -0.43413  -0.43168  -0.43126  -0.42990  -0.42735
 Alpha  occ. eigenvalues --   -0.42686  -0.42524  -0.42054  -0.41992  -0.41786
 Alpha  occ. eigenvalues --   -0.41670  -0.41561  -0.41545  -0.41411  -0.41135
 Alpha  occ. eigenvalues --   -0.40991  -0.40867  -0.40766  -0.40613  -0.40540
 Alpha  occ. eigenvalues --   -0.40394  -0.40090  -0.39959  -0.39737  -0.39553
 Alpha  occ. eigenvalues --   -0.39421  -0.39336  -0.39149  -0.39019  -0.38865
 Alpha  occ. eigenvalues --   -0.38830  -0.38666  -0.38548  -0.38444  -0.38222
 Alpha  occ. eigenvalues --   -0.38192  -0.38058  -0.37914  -0.37773  -0.37559
 Alpha  occ. eigenvalues --   -0.37461  -0.37311  -0.37311  -0.37044  -0.37039
 Alpha  occ. eigenvalues --   -0.36962  -0.36729  -0.36445  -0.36374  -0.35964
 Alpha  occ. eigenvalues --   -0.35959  -0.35878  -0.35808  -0.35593  -0.35336
 Alpha  occ. eigenvalues --   -0.35110  -0.34774  -0.34388  -0.33893  -0.33606
 Alpha  occ. eigenvalues --   -0.33145  -0.33070  -0.33058  -0.32747  -0.32700
 Alpha  occ. eigenvalues --   -0.32075  -0.32052  -0.31637  -0.31385  -0.31250
 Alpha  occ. eigenvalues --   -0.31189  -0.30684  -0.29772  -0.29693  -0.29407
 Alpha  occ. eigenvalues --   -0.29212  -0.28996  -0.28875  -0.27121  -0.26888
 Alpha  occ. eigenvalues --   -0.26187  -0.26184  -0.25808  -0.25741  -0.25585
 Alpha  occ. eigenvalues --   -0.25250  -0.25096  -0.24962  -0.21198  -0.20982
 Alpha  occ. eigenvalues --   -0.19089  -0.18793
 Alpha virt. eigenvalues --   -0.11450  -0.11268  -0.05176  -0.05151  -0.03931
 Alpha virt. eigenvalues --   -0.03764  -0.02314  -0.02139  -0.01441  -0.00615
 Alpha virt. eigenvalues --   -0.00122   0.00387   0.01021   0.01675   0.01914

 Mulliken charges:
               1
     1  Mg  12.000084
     2  C    6.000579
     3  C    6.000042
     4  C    5.999544
     5  C    5.999539
     6  N    7.000496
     7  C    5.999379
     8  C    6.000265
     9  C    5.999918
    10  C    6.000493
    11  C    5.999914
    12  C    6.000064
    13  C    6.000054
    14  H    0.999868
    15  N    6.999752
    16  C    6.000813
    17  C    6.000604
    18  C    6.000300
    19  C    6.000727
    20  C    5.999974
    21  C    6.000256
    22  O    8.000706
    23  C    5.999839
    24  N    6.999394
    25  C    6.000722
    26  C    5.999786
    27  C    6.000212
    28  C    5.999655
    29  C    5.999998
    30  C    6.000247
    31  C    5.999943
    32  N    7.000137
    33  C    5.999388
    34  C    5.999328
    35  C    5.999852
    36  C    5.999385
    37  C    6.000044
    38  C    5.999663
    39  O    7.999035
    40  C    5.999981
    41  C    5.999918
    42  O    7.999887
    43  O    7.999993
    44  C    6.000021
    45  H    1.000380
    46  H    1.000097
    47  H    0.999632
    48  H    0.999947
    49  H    1.000108
    50  H    1.000017
    51  H    1.000091
    52  H    1.000295
    53  H    0.999869
    54  H    1.000075
    55  H    1.000062
    56  H    0.999992
    57  H    1.000442
    58  H    1.000379
    59  H    1.000321
    60  H    1.000137
    61  H    1.000348
    62  H    1.000230
    63  H    1.000014
    64  H    0.999855
    65  H    1.000073
    66  H    1.000168
    67  H    0.999901
    68  H    0.999759
    69  H    1.000027
    70  H    1.000116
    71  H    0.999685
    72  H    0.999911
    73  H    0.999533
    74  H    0.999537
    75  H    0.999634
    76  H    0.999802
    77  H    0.999889
    78  H    0.999894
    79  H    0.999976
    80  Mg  11.999690
    81  C    6.007187
    82  C    5.980780
    83  C    5.992029
    84  C    6.022133
    85  N    6.992724
    86  C    5.972178
    87  C    6.013322
    88  C    5.989587
    89  C    6.036759
    90  C    5.998699
    91  C    6.001305
    92  C    6.004360
    93  H    0.988624
    94  N    6.995003
    95  C    6.046791
    96  C    6.012369
    97  C    6.018679
    98  C    6.028882
    99  C    5.994409
   100  C    6.013394
   101  O    8.020834
   102  C    5.996615
   103  N    7.013919
   104  C    6.023659
   105  C    5.992175
   106  C    6.007202
   107  C    5.964464
   108  C    5.998487
   109  C    6.002268
   110  C    6.000801
   111  N    6.999393
   112  C    5.958747
   113  C    5.978972
   114  C    5.990665
   115  C    5.976559
   116  C    6.001147
   117  C    5.982629
   118  O    7.970715
   119  C    5.998591
   120  C    5.994702
   121  O    7.994457
   122  O    7.996899
   123  C    6.002651
   124  H    1.008654
   125  H    1.007704
   126  H    0.993378
   127  H    0.997395
   128  H    1.002866
   129  H    1.002513
   130  H    1.012735
   131  H    0.995401
   132  H    0.988723
   133  H    1.007963
   134  H    1.002787
   135  H    0.996111
   136  H    1.017539
   137  H    1.014906
   138  H    1.017252
   139  H    1.011522
   140  H    1.012410
   141  H    1.008112
   142  H    1.001698
   143  H    0.999379
   144  H    0.999627
   145  H    0.996310
   146  H    1.009786
   147  H    1.004806
   148  H    0.991880
   149  H    1.003408
   150  H    0.996175
   151  H    0.996938
   152  H    0.987911
   153  H    0.979123
   154  H    0.983057
   155  H    0.990467
   156  H    0.994019
   157  H    0.996908
   158  H    0.995083
 Sum of Mulliken charges = 624.00000

 Dipole moment (field-independent basis, Debye):
    X=              5.8100    Y=             -8.5726    Z=              1.0814  Tot=             10.4122
 Quadrupole moment (field-independent basis, Debye-Ang):
   XX=           -218.1698   YY=              5.4072   ZZ=             -0.7630
   XY=            172.8517   XZ=            -26.2833   YZ=             -1.2594

 Normal termination of Gaussian 16 at Thu Oct 14 03:13:56 2021.
