 Gaussian 16, Revision A.03,
 Gaussian 16:  ES64L-G16RevA.03 25-Dec-2016

 --------------------------------------------------------
 #p PBE1PBE/Def2SVP td=(nstates=5) density=(transition=1)
 --------------------------------------------------------

 --------------------------------
 TDDFT excited states in gaussian
 --------------------------------
 Symbolic Z-matrix:
 Charge =  0 Multiplicity = 1

                         Standard orientation:
 ---------------------------------------------------------------------
 Center     Atomic      Atomic             Coordinates (Angstroms)
 Number     Number       Type             X           Y           Z
 ---------------------------------------------------------------------
      1         12           0       -8.737739   -0.464623   -0.197855
      2          6           0       -7.073182    2.497834    0.937012
      3          6           0      -11.015651    1.701308   -1.798925
      4          6           0      -10.763986   -2.980302   -0.717320
      5          6           0       -6.632548   -2.326126    1.716680
      6          7           0       -8.949900    1.827990   -0.426619
      7          6           0       -8.072235    2.742894    0.050824
      8          6           0       -8.439193    4.106515   -0.511063
      9          6           0       -9.683819    3.929924   -1.425877
     10          6           0       -9.893940    2.413662   -1.249864
     11          6           0      -10.950697    4.863853   -0.995951
     12          6           0       -7.255892    4.769471   -1.338175
     13          6           0       -6.930886    6.228784   -1.017672
     14          1           0       -8.066160    7.240008   -0.582446
     15          7           0      -10.673399   -0.608818   -1.093485
     16          6           0      -11.365931    0.345501   -1.678326
     17          6           0      -12.587145   -0.240981   -2.153852
     18          6           0      -12.534118   -1.650686   -2.010539
     19          6           0      -11.332500   -1.791373   -1.230503
     20          6           0      -13.606657    0.535394   -2.985716
     21          6           0      -13.364140   -2.805992   -2.547864
     22          8           0      -13.169305   -3.965296   -2.231523
     23          6           0      -14.420208   -2.447984   -3.557068
     24          7           0       -8.870679   -2.293354    0.715904
     25          6           0       -9.709982   -3.257087    0.153867
     26          6           0       -9.319083   -4.708087    0.545401
     27          6           0       -7.905342   -4.423864    1.179365
     28          6           0       -7.774382   -2.901176    1.210902
     29          6           0      -10.366334   -5.322195    1.485664
     30          6           0       -6.686849   -4.988766    0.306762
     31          6           0       -5.973703   -6.208359    0.786369
     32          7           0       -7.133027   -0.062547    0.958245
     33          6           0       -6.385971   -0.941297    1.712598
     34          6           0       -5.392450   -0.269510    2.546188
     35          6           0       -5.619345    1.125930    2.269705
     36          6           0       -6.745205    1.193950    1.415485
     37          6           0       -4.307509   -0.969423    3.281690
     38          6           0       -5.123898    2.477296    2.481563
     39          8           0       -4.134875    2.817252    3.156164
     40          6           0       -6.094041    3.471732    1.622889
     41          6           0       -6.711397    4.337004    2.615523
     42          8           0       -7.348505    3.928569    3.561683
     43          8           0       -6.495645    5.629200    2.342303
     44          6           0       -6.974912    6.726564    3.239993
     45          1           0      -11.707880    2.319537   -2.374158
     46          1           0      -11.123030   -3.904495   -1.176360
     47          1           0       -5.929812   -2.970989    2.247933
     48          1           0       -8.719660    4.734257    0.334752
     49          1           0       -9.492552    4.267411   -2.444655
     50          1           0      -10.618538    5.726262   -0.417923
     51          1           0      -11.600946    4.202033   -0.423287
     52          1           0      -11.484675    5.190815   -1.888026
     53          1           0       -7.343015    4.682699   -2.420352
     54          1           0       -6.327715    4.242102   -1.118350
     55          1           0       -6.406966    6.713822   -1.841561
     56          1           0       -6.180222    6.137758   -0.232605
     57          1           0      -13.501872    0.398431   -4.062117
     58          1           0      -13.648166    1.585165   -2.693709
     59          1           0      -14.584890    0.157967   -2.688734
     60          1           0      -14.124030   -1.701995   -4.295166
     61          1           0      -15.351654   -2.076622   -3.132039
     62          1           0      -14.566392   -3.294385   -4.228190
     63          1           0       -9.271132   -5.289042   -0.375224
     64          1           0       -7.885367   -4.882799    2.167926
     65          1           0      -11.283505   -4.741255    1.581660
     66          1           0       -9.987478   -5.416138    2.502773
     67          1           0      -10.618809   -6.323470    1.135120
     68          1           0       -5.870853   -4.283392    0.149705
     69          1           0       -6.967532   -5.183409   -0.727682
     70          1           0       -6.103814   -7.024115    0.076381
     71          1           0       -6.468948   -6.423104    1.733503
     72          1           0       -4.907083   -6.010319    0.891783
     73          1           0       -3.392358   -0.378461    3.296189
     74          1           0       -4.231434   -1.962267    2.838705
     75          1           0       -4.654558   -1.085903    4.309290
     76          1           0       -5.527377    4.082023    0.920945
     77          1           0       -6.670093    6.513759    4.264808
     78          1           0       -8.060005    6.832366    3.230816
     79          1           0       -6.679653    7.722464    2.910836
     80         12           0        8.322641   -1.023723   -0.462038
     81          6           0       10.136124    2.060588   -0.321728
     82          6           0        5.390381    0.742852   -0.188231
     83          6           0        6.561207   -3.885094   -0.118922
     84          6           0       11.367894   -2.659354    0.239747
     85          7           0        7.854280    1.143754   -0.290416
     86          6           0        8.719107    2.249034   -0.322119
     87          6           0        7.901463    3.515168   -0.315109
     88          6           0        6.503941    3.013054    0.244254
     89          6           0        6.595172    1.485519   -0.043067
     90          6           0        6.452482    3.340970    1.779078
     91          6           0        7.890635    4.281199   -1.684933
     92          6           0        8.065882    5.700103   -1.472121
     93          1           0        8.427150    6.546682   -2.794056
     94          7           0        6.227230   -1.418810   -0.368318
     95          6           0        5.200129   -0.563019   -0.305207
     96          6           0        3.971524   -1.293669   -0.364294
     97          6           0        4.266573   -2.640286   -0.326333
     98          6           0        5.799191   -2.735184   -0.322576
     99          6           0        2.580883   -0.592835   -0.245760
    100          6           0        3.308870   -3.847324   -0.398919
    101          8           0        3.762954   -4.960359   -0.315716
    102          6           0        1.834714   -3.649868   -0.662686
    103          7           0        8.893286   -2.952803    0.271504
    104          6           0        7.965684   -3.984198    0.174640
    105          6           0        8.636358   -5.313837    0.295806
    106          6           0       10.193006   -4.929222    0.390155
    107          6           0       10.178746   -3.427281    0.229646
    108          6           0        8.100619   -6.141214    1.415047
    109          6           0       11.209662   -5.655892   -0.650709
    110          6           0       12.291582   -6.495433   -0.095764
    111          7           0       10.368251   -0.485686   -0.153134
    112          6           0       11.453555   -1.286406    0.122904
    113          6           0       12.691826   -0.393301    0.166341
    114          6           0       12.239900    0.911429   -0.115926
    115          6           0       10.810866    0.809520   -0.250242
    116          6           0       14.109037   -0.886316    0.488806
    117          6           0       12.685011    2.271553   -0.153457
    118          8           0       13.834891    2.751971   -0.036060
    119          6           0       11.334289    3.097748   -0.118357
    120          6           0       11.510511    4.220676   -1.184323
    121          8           0       10.987059    4.118241   -2.308934
    122          8           0       12.196143    5.260210   -0.648558
    123          6           0       12.529455    6.233329   -1.744936
    124          1           0        4.456735    1.292759   -0.326422
    125          1           0        6.014256   -4.826283   -0.025112
    126          1           0       12.367906   -3.082278    0.355092
    127          1           0        8.328756    4.136962    0.471264
    128          1           0        5.669278    3.509618   -0.249307
    129          1           0        7.077371    2.686441    2.386195
    130          1           0        5.414036    3.319287    2.106882
    131          1           0        6.791841    4.366151    1.929011
    132          1           0        6.870114    4.213074   -2.062510
    133          1           0        8.583841    3.843609   -2.403713
    134          1           0        8.953741    5.901035   -0.872353
    135          1           0        7.144872    6.079372   -1.028720
    136          1           0        2.061349   -0.934706   -1.140876
    137          1           0        2.611368    0.496273   -0.273814
    138          1           0        2.103768   -0.873907    0.693007
    139          1           0        1.303562   -4.599455   -0.596442
    140          1           0        1.943388   -3.269154   -1.678192
    141          1           0        1.457703   -2.920502    0.054185
    142          1           0        8.420498   -5.774680   -0.668288
    143          1           0       10.518708   -5.203926    1.393118
    144          1           0        7.563593   -6.949043    0.919554
    145          1           0        7.336850   -5.626596    1.997880
    146          1           0        8.843541   -6.521899    2.116312
    147          1           0       11.705064   -4.801678   -1.112143
    148          1           0       10.605375   -6.154566   -1.407335
    149          1           0       13.271936   -6.086500   -0.338877
    150          1           0       12.122545   -7.355129   -0.743286
    151          1           0       12.122218   -6.787112    0.941638
    152          1           0       14.233897   -0.736910    1.560691
    153          1           0       14.877351   -0.330322   -0.048386
    154          1           0       14.202044   -1.925659    0.173728
    155          1           0       11.313943    3.489348    0.897748
    156          1           0       13.322590    5.910854   -2.419310
    157          1           0       12.787749    7.235010   -1.402934
    158          1           0       11.597513    6.386369   -2.289515
 ---------------------------------------------------------------------

 SCF Done:  E(RPBE1PBE) =  -4067.34022833     A.U. after   16 cycles

 Excitation energies and oscillator strengths:

 Excited State   1:      Singlet-A      1.5610 eV  794.28 nm  f=0.0000  <S**2>=0.000
     312 -> 313        0.70705
 This state for optimization and/or second-order correction.
 Total Energy, E(TD-HF/TD-DFT) =  -4067.28286386
 Copying the excited state density for this state as the 1-particle RhoCI density.

 Excited State   2:      Singlet-A      1.8259 eV  679.03 nm  f=0.6264  <S**2>=0.000
     309 -> 315        0.16304
     311 -> 313       -0.29623
     312 -> 314        0.62416

 Excited State   3:      Singlet-A      1.8514 eV  669.68 nm  f=0.1448  <S**2>=0.000
     310 -> 316        0.14764
     311 -> 313        0.62905
     312 -> 314        0.29240
     311 <- 313       -0.10592

 Excited State   4:      Singlet-A      2.1266 eV  583.01 nm  f=0.0000  <S**2>=0.000
     311 -> 314        0.70698

 Excited State   5:      Singlet-A      2.2065 eV  561.90 nm  f=0.1177  <S**2>=0.000
     310 -> 313        0.66040
     311 -> 316       -0.23261

 The electronic state is 1-A.
 Alpha  occ. eigenvalues --  -46.92730 -46.92233 -19.26779 -19.26038 -19.20005
 Alpha  occ. eigenvalues --  -19.19888 -19.19510 -19.19431 -19.19101 -19.18882
 Alpha  occ. eigenvalues --  -14.41636 -14.41573 -14.41467 -14.41421 -14.39302
 Alpha  occ. eigenvalues --  -14.38910 -14.38845 -14.38842 -10.36721 -10.35629
 Alpha  occ. eigenvalues --  -10.33052 -10.32891 -10.32566 -10.32140 -10.29898
 Alpha  occ. eigenvalues --  -10.29284 -10.28819 -10.28793 -10.28777 -10.28737
 Alpha  occ. eigenvalues --  -10.28727 -10.28534 -10.28444 -10.28383 -10.28166
 Alpha  occ. eigenvalues --  -10.27527 -10.27520 -10.27148 -10.27131 -10.26883
 Alpha  occ. eigenvalues --  -10.26631 -10.26581 -10.26428 -10.26400 -10.26399
 Alpha  occ. eigenvalues --  -10.26219 -10.26219 -10.26127 -10.26116 -10.26003
 Alpha  occ. eigenvalues --  -10.25997 -10.25881 -10.25816 -10.25762 -10.25719
 Alpha  occ. eigenvalues --  -10.25622 -10.25466 -10.25237 -10.25159 -10.25154
 Alpha  occ. eigenvalues --  -10.25128 -10.24896 -10.24819 -10.24732 -10.24473
 Alpha  occ. eigenvalues --  -10.24246 -10.24111 -10.24110 -10.24089 -10.24034
 Alpha  occ. eigenvalues --  -10.24009 -10.23796 -10.23686 -10.23670 -10.23549
 Alpha  occ. eigenvalues --  -10.23546 -10.23518 -10.23517 -10.23480 -10.23473
 Alpha  occ. eigenvalues --  -10.23124 -10.22837 -10.22742 -10.22631 -10.22619
 Alpha  occ. eigenvalues --  -10.22465  -3.14652  -3.14438  -1.87486  -1.87243
 Alpha  occ. eigenvalues --   -1.87012  -1.86874  -1.86818  -1.86672  -1.11477
 Alpha  occ. eigenvalues --   -1.10791  -1.06235  -1.05727  -1.03417  -1.02660
 Alpha  occ. eigenvalues --   -1.02338  -1.01910  -0.99544  -0.98485  -0.98356
 Alpha  occ. eigenvalues --   -0.97941  -0.97496  -0.97293  -0.96778  -0.96175
 Alpha  occ. eigenvalues --   -0.86710  -0.85603  -0.83126  -0.83103  -0.82841
 Alpha  occ. eigenvalues --   -0.82777  -0.82544  -0.82437  -0.81646  -0.81509
 Alpha  occ. eigenvalues --   -0.81460  -0.81430  -0.80982  -0.79865  -0.78718
 Alpha  occ. eigenvalues --   -0.78604  -0.78598  -0.78068  -0.77114  -0.76782
 Alpha  occ. eigenvalues --   -0.76504  -0.76166  -0.75802  -0.75223  -0.74978
 Alpha  occ. eigenvalues --   -0.74724  -0.72770  -0.72283  -0.72168  -0.71788
 Alpha  occ. eigenvalues --   -0.71375  -0.70831  -0.70748  -0.69736  -0.69413
 Alpha  occ. eigenvalues --   -0.69146  -0.67163  -0.66511  -0.66080  -0.65885
 Alpha  occ. eigenvalues --   -0.63366  -0.63060  -0.62429  -0.62279  -0.62242
 Alpha  occ. eigenvalues --   -0.61791  -0.61518  -0.60635  -0.60144  -0.59781
 Alpha  occ. eigenvalues --   -0.59448  -0.59418  -0.59275  -0.59222  -0.58929
 Alpha  occ. eigenvalues --   -0.58739  -0.57206  -0.56621  -0.55226  -0.54334
 Alpha  occ. eigenvalues --   -0.53938  -0.53636  -0.53603  -0.53294  -0.52942
 Alpha  occ. eigenvalues --   -0.52809  -0.52757  -0.52201  -0.51966  -0.51486
 Alpha  occ. eigenvalues --   -0.50871  -0.50431  -0.50385  -0.49964  -0.49953
 Alpha  occ. eigenvalues --   -0.49592  -0.49063  -0.48846  -0.48516  -0.48307
 Alpha  occ. eigenvalues --   -0.48165  -0.48070  -0.47990  -0.47753  -0.47597
 Alpha  occ. eigenvalues --   -0.47520  -0.47286  -0.47192  -0.47082  -0.47071
 Alpha  occ. eigenvalues --   -0.46950  -0.46892  -0.46418  -0.46094  -0.45999
 Alpha  occ. eigenvalues --   -0.45535  -0.45325  -0.45218  -0.45146  -0.44984
 Alpha  occ. eigenvalues --   -0.44930  -0.44825  -0.44696  -0.44502  -0.44003
 Alpha  occ. eigenvalues --   -0.43943  -0.43912  -0.43763  -0.43562  -0.43405
 Alpha  occ. eigenvalues --   -0.43324  -0.43277  -0.43243  -0.42987  -0.42750
 Alpha  occ. eigenvalues --   -0.42615  -0.42490  -0.42388  -0.42204  -0.42068
 Alpha  occ. eigenvalues --   -0.41625  -0.41474  -0.41282  -0.41145  -0.41144
 Alpha  occ. eigenvalues --   -0.41053  -0.40924  -0.40875  -0.40854  -0.40430
 Alpha  occ. eigenvalues --   -0.40241  -0.40102  -0.40080  -0.39472  -0.39430
 Alpha  occ. eigenvalues --   -0.39267  -0.39205  -0.39019  -0.38874  -0.38711
 Alpha  occ. eigenvalues --   -0.38622  -0.38413  -0.38350  -0.38192  -0.37937
 Alpha  occ. eigenvalues --   -0.37836  -0.37755  -0.37729  -0.37585  -0.37541
 Alpha  occ. eigenvalues --   -0.37407  -0.37191  -0.36791  -0.36770  -0.36756
 Alpha  occ. eigenvalues --   -0.36608  -0.36490  -0.36390  -0.36315  -0.36099
 Alpha  occ. eigenvalues --   -0.35972  -0.35640  -0.35613  -0.35377  -0.35021
 Alpha  occ. eigenvalues --   -0.34842  -0.34630  -0.34391  -0.33684  -0.33534
 Alpha  occ. eigenvalues --   -0.33385  -0.33121  -0.32905  -0.32199  -0.32199
 Alpha  occ. eigenvalues --   -0.32022  -0.31906  -0.31679  -0.31462  -0.31396
 Alpha  occ. eigenvalues --   -0.31087  -0.29855  -0.29853  -0.29212  -0.28941
 Alpha  occ. eigenvalues --   -0.28906  -0.28531  -0.28298  -0.27082  -0.27034
 Alpha  occ. eigenvalues --   -0.26632  -0.26053  -0.25965  -0.25884  -0.25785
 Alpha  occ. eigenvalues --   -0.25408  -0.25281  -0.25007  -0.20982  -0.20969
 Alpha  occ. eigenvalues --   -0.18808  -0.17848
 Alpha virt. eigenvalues --   -0.11348  -0.10187  -0.05806  -0.04907  -0.04254
 Alpha virt. eigenvalues --   -0.04170  -0.02541  -0.01914  -0.01217  -0.00846
 Alpha virt. eigenvalues --    0.00507   0.00541   0.00907   0.01102   0.01211

 Mulliken charges:
               1
     1  Mg  12.000000
     2  C    6.000001
     3  C    6.000000
     4  C    6.000000
     5  C    6.000001
     6  N    7.000001
     7  C    6.000000
     8  C    6.000000
     9  C    6.000000
    10  C    6.000001
    11  C    6.000000
    12  C    6.000000
    13  C    6.000000
    14  H    1.000000
    15  N    7.000000
    16  C    6.000001
    17  C    6.000001
    18  C    6.000001
    19  C    6.000001
    20  C    6.000000
    21  C    6.000000
    22  O    8.000001
    23  C    6.000000
    24  N    7.000001
    25  C    6.000001
    26  C    6.000000
    27  C    6.000000
    28  C    5.999999
    29  C    6.000000
    30  C    6.000000
    31  C    6.000000
    32  N    7.000000
    33  C    5.999999
    34  C    5.999997
    35  C    6.000001
    36  C    5.999999
    37  C    6.000000
    38  C    6.000000
    39  O    8.000000
    40  C    6.000000
    41  C    6.000000
    42  O    8.000000
    43  O    8.000000
    44  C    6.000000
    45  H    1.000000
    46  H    1.000000
    47  H    0.999999
    48  H    1.000000
    49  H    1.000000
    50  H    1.000000
    51  H    1.000000
    52  H    1.000000
    53  H    1.000000
    54  H    1.000000
    55  H    1.000000
    56  H    1.000000
    57  H    1.000001
    58  H    1.000000
    59  H    1.000000
    60  H    1.000000
    61  H    1.000000
    62  H    1.000000
    63  H    1.000000
    64  H    1.000000
    65  H    1.000000
    66  H    1.000000
    67  H    1.000000
    68  H    1.000000
    69  H    1.000000
    70  H    1.000000
    71  H    1.000000
    72  H    1.000000
    73  H    1.000003
    74  H    1.000000
    75  H    0.999998
    76  H    1.000000
    77  H    1.000000
    78  H    1.000000
    79  H    1.000000
    80  Mg  12.000000
    81  C    6.000002
    82  C    6.000000
    83  C    5.999998
    84  C    6.000000
    85  N    7.000001
    86  C    5.999997
    87  C    6.000000
    88  C    5.999999
    89  C    5.999999
    90  C    6.000000
    91  C    6.000000
    92  C    6.000000
    93  H    1.000000
    94  N    7.000000
    95  C    6.000002
    96  C    5.999998
    97  C    6.000000
    98  C    6.000001
    99  C    5.999999
   100  C    6.000001
   101  O    8.000001
   102  C    6.000000
   103  N    7.000000
   104  C    6.000001
   105  C    6.000000
   106  C    6.000001
   107  C    5.999997
   108  C    6.000000
   109  C    6.000000
   110  C    6.000000
   111  N    7.000001
   112  C    5.999997
   113  C    5.999997
   114  C    5.999999
   115  C    5.999997
   116  C    6.000000
   117  C    5.999999
   118  O    7.999998
   119  C    6.000000
   120  C    6.000000
   121  O    8.000000
   122  O    8.000000
   123  C    6.000000
   124  H    1.000001
   125  H    1.000000
   126  H    1.000000
   127  H    1.000000
   128  H    1.000000
   129  H    1.000001
   130  H    1.000000
   131  H    1.000001
   132  H    0.999999
   133  H    1.000000
   134  H    1.000000
   135  H    1.000000
   136  H    1.000000
   137  H    1.000001
   138  H    1.000006
   139  H    1.000001
   140  H    1.000000
   141  H    1.000002
   142  H    1.000000
   143  H    1.000000
   144  H    1.000000
   145  H    1.000000
   146  H    1.000000
   147  H    1.000000
   148  H    0.999999
   149  H    1.000000
   150  H    1.000000
   151  H    1.000000
   152  H    0.999999
   153  H    0.999999
   154  H    0.999999
   155  H    1.000000
   156  H    1.000000
   157  H    1.000000
   158  H    1.000000
 Sum of Mulliken charges = 624.00000

 Dipole moment (field-independent basis, Debye):
    X=             -0.0017    Y=             -0.0001    Z=             -0.0001  Tot=              0.0017
 Quadrupole moment (field-independent basis, Debye-Ang):
   XX=             -0.0056   YY=             -0.0002   ZZ=              0.0002
   XY=              0.0005   XZ=              0.0016   YZ=              0.0002

 Normal termination of Gaussian 16 at Thu Oct 14 12:51:00 2021.
