 Gaussian 16, Revision A.03,
 Gaussian 16:  ES64L-G16RevA.03 25-Dec-2016

 --------------------------------------------------------
 #p PBE1PBE/Def2SVP td=(nstates=5) density=(transition=1)
 --------------------------------------------------------

 --------------------------------
 TDDFT excited states in gaussian
 --------------------------------
 Symbolic Z-matrix:
 Charge =  0 Multiplicity = 1

                         Standard orientation:
 ---------------------------------------------------------------------
 Center     Atomic      Atomic             Coordinates (Angstroms)
 Number     Number       Type             X           Y           Z
 ---------------------------------------------------------------------
      1         12           0       24.949309   -0.779816    0.393308
      2          6           0       24.693419    2.166574   -1.319947
      3          6           0       25.181289    0.836706    3.297675
      4          6           0       25.405574   -3.677879    1.813023
      5          6           0       25.296945   -2.345010   -2.789752
      6          7           0       25.112146    1.316239    0.931930
      7          6           0       24.712811    2.303894    0.092237
      8          6           0       24.342748    3.557599    0.836518
      9          6           0       24.790831    3.174618    2.303944
     10          6           0       25.133660    1.705661    2.182244
     11          6           0       25.919211    4.059094    2.886543
     12          6           0       22.777363    4.032342    0.632615
     13          6           0       22.493390    5.508013    0.313239
     14          1           0       23.570052    6.547087    0.758238
     15          7           0       25.069860   -1.334620    2.228737
     16          6           0       25.161916   -0.563580    3.343511
     17          6           0       25.399298   -1.325966    4.545030
     18          6           0       25.262212   -2.626375    4.163341
     19          6           0       25.361373   -2.582456    2.671337
     20          6           0       25.738321   -0.548773    5.803841
     21          6           0       25.251449   -3.894870    5.039369
     22          8           0       25.185293   -5.019973    4.601775
     23          6           0       25.368841   -3.618913    6.509282
     24          7           0       25.473812   -2.706276   -0.424686
     25          6           0       25.470659   -3.746878    0.427781
     26          6           0       25.605663   -5.072876   -0.327368
     27          6           0       25.251031   -4.673613   -1.799983
     28          6           0       25.369518   -3.139357   -1.693824
     29          6           0       26.971578   -5.874121   -0.208995
     30          6           0       23.806719   -5.054607   -2.299916
     31          6           0       22.553476   -4.568796   -1.620495
     32          7           0       24.913848   -0.304736   -1.681380
     33          6           0       25.154901   -1.002125   -2.869525
     34          6           0       25.069310   -0.120763   -4.040956
     35          6           0       24.877131    1.148538   -3.475111
     36          6           0       24.792260    0.944447   -2.061836
     37          6           0       25.112673   -0.496729   -5.499823
     38          6           0       24.728747    2.506651   -3.737304
     39          8           0       24.760566    3.166975   -4.763977
     40          6           0       24.369136    3.194455   -2.394857
     41          6           0       25.259630    4.377719   -2.393857
     42          8           0       26.456381    4.372123   -2.095561
     43          8           0       24.616722    5.479021   -2.880179
     44          6           0       25.395383    6.668080   -3.240641
     45          1           0       25.058675    1.382435    4.235785
     46          1           0       25.504398   -4.686480    2.217911
     47          1           0       25.375701   -2.959731   -3.689684
     48          1           0       24.998905    4.380528    0.552858
     49          1           0       23.920189    3.213710    2.958225
     50          1           0       26.856854    3.504798    2.847397
     51          1           0       25.689420    4.267232    3.931531
     52          1           0       25.964306    4.952519    2.263645
     53          1           0       22.286524    3.768156    1.569381
     54          1           0       22.321116    3.494698   -0.197975
     55          1           0       21.612702    5.847827    0.857582
     56          1           0       22.236148    5.614121   -0.740575
     57          1           0       26.648245    0.049010    5.748702
     58          1           0       26.044197   -1.070898    6.710245
     59          1           0       24.809435   -0.000640    5.961508
     60          1           0       24.579130   -2.943932    6.838369
     61          1           0       26.396956   -3.265813    6.586562
     62          1           0       25.228953   -4.440289    7.211136
     63          1           0       24.849856   -5.683367    0.168038
     64          1           0       26.051283   -5.016480   -2.456208
     65          1           0       27.654015   -5.331994    0.445146
     66          1           0       27.499120   -5.880262   -1.162072
     67          1           0       26.899108   -6.915350    0.108836
     68          1           0       23.885411   -6.141271   -2.258394
     69          1           0       23.638718   -4.759950   -3.335309
     70          1           0       22.814680   -4.079140   -0.681443
     71          1           0       21.907769   -5.408639   -1.364380
     72          1           0       21.975022   -3.812654   -2.150912
     73          1           0       26.045484   -0.200777   -5.977748
     74          1           0       24.270370   -0.042782   -6.022172
     75          1           0       25.112295   -1.586608   -5.469949
     76          1           0       23.304319    3.417204   -2.324243
     77          1           0       24.895220    7.274247   -3.996879
     78          1           0       26.437391    6.426899   -3.445128
     79          1           0       25.549021    7.339032   -2.395665
     80         12           0      -25.461791   -0.454437   -0.298808
     81          6           0      -23.156364    2.176667   -0.215488
     82          6           0      -27.474214    1.249340    1.875567
     83          6           0      -27.418865   -3.117629   -0.162936
     84          6           0      -23.173689   -2.203469   -2.415858
     85          7           0      -25.277044    1.491981    0.744795
     86          6           0      -24.305300    2.457643    0.603718
     87          6           0      -24.751614    3.758714    1.244789
     88          6           0      -25.986793    3.315462    2.124413
     89          6           0      -26.303314    1.938485    1.447287
     90          6           0      -25.661557    3.171388    3.605691
     91          6           0      -24.936185    4.864802    0.142800
     92          6           0      -25.594951    6.166350    0.678264
     93          1           0      -25.336761    6.511478    2.130218
     94          7           0      -27.155254   -0.852940    0.669630
     95          6           0      -27.803825   -0.072630    1.618471
     96          6           0      -28.981700   -0.759528    2.177013
     97          6           0      -28.967225   -2.033196    1.529521
     98          6           0      -27.806871   -2.038136    0.642554
     99          6           0      -29.911864   -0.124104    3.141251
    100          6           0      -29.955965   -3.149843    1.745062
    101          8           0      -29.895653   -4.230283    1.095202
    102          6           0      -31.114467   -2.995532    2.692762
    103          7           0      -25.333931   -2.385028   -1.226211
    104          6           0      -26.298986   -3.270767   -0.977889
    105          6           0      -25.943210   -4.676095   -1.635612
    106          6           0      -24.508779   -4.387863   -2.352741
    107          6           0      -24.310874   -2.920004   -1.972020
    108          6           0      -25.901748   -5.770357   -0.491597
    109          6           0      -24.523610   -4.532443   -3.934520
    110          6           0      -24.286897   -5.967820   -4.485796
    111          7           0      -23.564268   -0.178920   -1.101324
    112          6           0      -22.785380   -0.905686   -2.040143
    113          6           0      -21.533074   -0.104426   -2.393659
    114          6           0      -21.593613    1.071913   -1.653344
    115          6           0      -22.896716    1.008475   -0.943580
    116          6           0      -20.461693   -0.462802   -3.375299
    117          6           0      -20.967141    2.340819   -1.365084
    118          8           0      -19.909943    2.849757   -1.750711
    119          6           0      -22.050499    3.206968   -0.550059
    120          6           0      -21.464499    3.877060    0.671582
    121          8           0      -21.376727    3.353357    1.749222
    122          8           0      -21.258134    5.256872    0.446340
    123          6           0      -21.129952    6.120777    1.629540
    124          1           0      -27.976769    1.892798    2.601226
    125          1           0      -28.060769   -3.999092   -0.101712
    126          1           0      -22.385963   -2.716917   -2.971295
    127          1           0      -23.939689    4.102301    1.884485
    128          1           0      -26.881839    3.930093    2.023084
    129          1           0      -26.358490    3.829949    4.123819
    130          1           0      -24.601710    3.381470    3.747684
    131          1           0      -25.964875    2.207055    4.012621
    132          1           0      -25.365348    4.282506   -0.671989
    133          1           0      -23.928378    5.096823   -0.199930
    134          1           0      -26.655788    5.997121    0.493422
    135          1           0      -25.232732    6.998827    0.075208
    136          1           0      -29.779488   -0.739062    4.031255
    137          1           0      -30.939709   -0.079042    2.782233
    138          1           0      -29.717484    0.893112    3.483642
    139          1           0      -31.768456   -2.206063    2.324989
    140          1           0      -30.548670   -2.772820    3.598260
    141          1           0      -31.692615   -3.894875    2.903145
    142          1           0      -26.760059   -4.757910   -2.353723
    143          1           0      -23.618073   -4.810082   -1.885533
    144          1           0      -26.090033   -5.384929    0.510301
    145          1           0      -24.918933   -6.241809   -0.466528
    146          1           0      -26.731946   -6.443027   -0.704937
    147          1           0      -23.929962   -3.762340   -4.426262
    148          1           0      -25.538344   -4.280227   -4.240707
    149          1           0      -25.135859   -6.198562   -5.128346
    150          1           0      -24.147285   -6.643205   -3.641620
    151          1           0      -23.389256   -6.026768   -5.101778
    152          1           0      -20.608715    0.191579   -4.234801
    153          1           0      -20.536342   -1.516227   -3.647859
    154          1           0      -19.425624   -0.296140   -3.081269
    155          1           0      -22.441106    3.938527   -1.256817
    156          1           0      -20.108937    5.964744    1.976779
    157          1           0      -21.935387    5.927960    2.338487
    158          1           0      -21.294226    7.139231    1.278615
 ---------------------------------------------------------------------

 SCF Done:  E(RPBE1PBE) =  -4067.38193385     A.U. after   16 cycles

 Excitation energies and oscillator strengths:

 Excited State   1:      Singlet-A      1.8621 eV  665.84 nm  f=0.3731  <S**2>=0.000
     309 -> 315        0.19126
     312 -> 313        0.68815
     312 <- 313       -0.10015
 This state for optimization and/or second-order correction.
 Total Energy, E(TD-HF/TD-DFT) =  -4067.31350386
 Copying the excited state density for this state as the 1-particle RhoCI density.

 Excited State   2:      Singlet-A      1.8950 eV  654.28 nm  f=0.3646  <S**2>=0.000
     310 -> 316        0.18693
     311 -> 314        0.68805

 Excited State   3:      Singlet-A      2.0362 eV  608.90 nm  f=0.0000  <S**2>=0.000
     312 -> 314        0.70711

 Excited State   4:      Singlet-A      2.0421 eV  607.15 nm  f=0.0000  <S**2>=0.000
     311 -> 313        0.70711

 Excited State   5:      Singlet-A      2.2581 eV  549.07 nm  f=0.0657  <S**2>=0.000
     310 -> 314        0.63635
     311 -> 316       -0.29836

 The electronic state is 1-A.
 Alpha  occ. eigenvalues --  -46.91509 -46.91342 -19.24647 -19.24598 -19.20479
 Alpha  occ. eigenvalues --  -19.19911 -19.19427 -19.18623 -19.18602 -19.18072
 Alpha  occ. eigenvalues --  -14.41613 -14.41158 -14.41150 -14.40546 -14.39661
 Alpha  occ. eigenvalues --  -14.39531 -14.39519 -14.38473 -10.36424 -10.35302
 Alpha  occ. eigenvalues --  -10.32882 -10.32698 -10.32347 -10.30806 -10.28982
 Alpha  occ. eigenvalues --  -10.28781 -10.28599 -10.28466 -10.28297 -10.28273
 Alpha  occ. eigenvalues --  -10.28094 -10.28085 -10.28060 -10.27925 -10.27907
 Alpha  occ. eigenvalues --  -10.27811 -10.27765 -10.27498 -10.27299 -10.27153
 Alpha  occ. eigenvalues --  -10.26912 -10.26866 -10.26778 -10.26711 -10.26523
 Alpha  occ. eigenvalues --  -10.26275 -10.26189 -10.26183 -10.26122 -10.25959
 Alpha  occ. eigenvalues --  -10.25920 -10.25720 -10.25678 -10.25605 -10.25523
 Alpha  occ. eigenvalues --  -10.25471 -10.25399 -10.25392 -10.25258 -10.25245
 Alpha  occ. eigenvalues --  -10.25219 -10.25112 -10.25017 -10.24993 -10.24970
 Alpha  occ. eigenvalues --  -10.24792 -10.24484 -10.24363 -10.24145 -10.24065
 Alpha  occ. eigenvalues --  -10.23958 -10.23778 -10.23688 -10.23658 -10.23637
 Alpha  occ. eigenvalues --  -10.23503 -10.23464 -10.23448 -10.23250 -10.23116
 Alpha  occ. eigenvalues --  -10.23089 -10.22900 -10.22857 -10.22711 -10.22629
 Alpha  occ. eigenvalues --  -10.22000  -3.13769  -3.13767  -1.86615  -1.86576
 Alpha  occ. eigenvalues --   -1.86159  -1.86127  -1.86026  -1.86022  -1.10205
 Alpha  occ. eigenvalues --   -1.09641  -1.06060  -1.03900  -1.03864  -1.02612
 Alpha  occ. eigenvalues --   -1.02464  -1.00765  -1.00124  -0.99258  -0.98939
 Alpha  occ. eigenvalues --   -0.98822  -0.98113  -0.97766  -0.97462  -0.96089
 Alpha  occ. eigenvalues --   -0.86801  -0.85967  -0.83776  -0.83173  -0.82845
 Alpha  occ. eigenvalues --   -0.82675  -0.82257  -0.82230  -0.82115  -0.81881
 Alpha  occ. eigenvalues --   -0.81801  -0.81060  -0.80999  -0.80675  -0.78618
 Alpha  occ. eigenvalues --   -0.78520  -0.77880  -0.77251  -0.76856  -0.76703
 Alpha  occ. eigenvalues --   -0.76339  -0.76188  -0.75385  -0.75062  -0.74809
 Alpha  occ. eigenvalues --   -0.74348  -0.73225  -0.73196  -0.71839  -0.71778
 Alpha  occ. eigenvalues --   -0.71300  -0.71290  -0.70095  -0.70013  -0.69529
 Alpha  occ. eigenvalues --   -0.68921  -0.67137  -0.66542  -0.66098  -0.65925
 Alpha  occ. eigenvalues --   -0.63981  -0.63729  -0.63416  -0.62994  -0.62790
 Alpha  occ. eigenvalues --   -0.62616  -0.61644  -0.61500  -0.59948  -0.59820
 Alpha  occ. eigenvalues --   -0.59665  -0.59462  -0.59239  -0.58481  -0.58323
 Alpha  occ. eigenvalues --   -0.58303  -0.56338  -0.55865  -0.55528  -0.55205
 Alpha  occ. eigenvalues --   -0.54080  -0.53904  -0.53794  -0.53276  -0.52561
 Alpha  occ. eigenvalues --   -0.52362  -0.52215  -0.52195  -0.52111  -0.51371
 Alpha  occ. eigenvalues --   -0.50823  -0.50765  -0.50326  -0.49856  -0.49612
 Alpha  occ. eigenvalues --   -0.49174  -0.49160  -0.48755  -0.48713  -0.48485
 Alpha  occ. eigenvalues --   -0.48199  -0.47982  -0.47864  -0.47800  -0.47289
 Alpha  occ. eigenvalues --   -0.47157  -0.47025  -0.46871  -0.46816  -0.46796
 Alpha  occ. eigenvalues --   -0.46519  -0.46362  -0.46134  -0.45991  -0.45810
 Alpha  occ. eigenvalues --   -0.45753  -0.45361  -0.45229  -0.45054  -0.44965
 Alpha  occ. eigenvalues --   -0.44828  -0.44604  -0.44109  -0.44053  -0.43986
 Alpha  occ. eigenvalues --   -0.43914  -0.43900  -0.43715  -0.43654  -0.43532
 Alpha  occ. eigenvalues --   -0.43395  -0.43178  -0.43138  -0.42800  -0.42713
 Alpha  occ. eigenvalues --   -0.42709  -0.42646  -0.42375  -0.42034  -0.41839
 Alpha  occ. eigenvalues --   -0.41543  -0.41478  -0.41330  -0.41228  -0.40941
 Alpha  occ. eigenvalues --   -0.40784  -0.40510  -0.40478  -0.40340  -0.40238
 Alpha  occ. eigenvalues --   -0.40034  -0.39993  -0.39876  -0.39672  -0.39653
 Alpha  occ. eigenvalues --   -0.39446  -0.39261  -0.38991  -0.38861  -0.38827
 Alpha  occ. eigenvalues --   -0.38698  -0.38602  -0.38319  -0.38097  -0.37994
 Alpha  occ. eigenvalues --   -0.37921  -0.37844  -0.37742  -0.37734  -0.37668
 Alpha  occ. eigenvalues --   -0.37492  -0.37196  -0.37186  -0.37047  -0.37045
 Alpha  occ. eigenvalues --   -0.36747  -0.36407  -0.36284  -0.36085  -0.36074
 Alpha  occ. eigenvalues --   -0.35906  -0.35771  -0.35620  -0.35400  -0.35293
 Alpha  occ. eigenvalues --   -0.35087  -0.34470  -0.34147  -0.34139  -0.34068
 Alpha  occ. eigenvalues --   -0.33480  -0.33452  -0.33259  -0.33170  -0.33014
 Alpha  occ. eigenvalues --   -0.32054  -0.31768  -0.31488  -0.31363  -0.31210
 Alpha  occ. eigenvalues --   -0.30945  -0.30100  -0.29563  -0.29404  -0.29376
 Alpha  occ. eigenvalues --   -0.28714  -0.28705  -0.27851  -0.27666  -0.26851
 Alpha  occ. eigenvalues --   -0.26403  -0.26339  -0.26120  -0.25776  -0.25608
 Alpha  occ. eigenvalues --   -0.25510  -0.25207  -0.25105  -0.20901  -0.20656
 Alpha  occ. eigenvalues --   -0.18259  -0.18173
 Alpha virt. eigenvalues --   -0.10492  -0.10428  -0.05553  -0.05210  -0.04419
 Alpha virt. eigenvalues --   -0.03913  -0.02206  -0.01851  -0.00207  -0.00041
 Alpha virt. eigenvalues --    0.00595   0.00962   0.01081   0.01680   0.01709

 Mulliken charges:
               1
     1  Mg  12.000013
     2  C    5.999871
     3  C    5.999962
     4  C    6.000128
     5  C    6.000073
     6  N    6.999973
     7  C    6.000159
     8  C    5.999924
     9  C    6.000057
    10  C    5.999888
    11  C    6.000010
    12  C    5.999984
    13  C    5.999998
    14  H    0.999979
    15  N    6.999993
    16  C    5.999906
    17  C    5.999878
    18  C    5.999935
    19  C    5.999849
    20  C    6.000026
    21  C    5.999926
    22  O    7.999866
    23  C    6.000039
    24  N    6.999988
    25  C    5.999883
    26  C    6.000045
    27  C    5.999967
    28  C    6.000080
    29  C    6.000001
    30  C    5.999954
    31  C    5.999973
    32  N    7.000019
    33  C    6.000092
    34  C    6.000174
    35  C    5.999970
    36  C    6.000140
    37  C    5.999969
    38  C    6.000104
    39  O    8.000160
    40  C    5.999999
    41  C    6.000030
    42  O    8.000002
    43  O    8.000014
    44  C    5.999991
    45  H    0.999948
    46  H    0.999954
    47  H    1.000043
    48  H    0.999995
    49  H    1.000013
    50  H    0.999969
    51  H    0.999991
    52  H    0.999937
    53  H    1.000065
    54  H    1.000003
    55  H    1.000052
    56  H    1.000000
    57  H    0.999882
    58  H    0.999902
    59  H    0.999954
    60  H    0.999985
    61  H    0.999944
    62  H    0.999909
    63  H    1.000024
    64  H    0.999984
    65  H    0.999996
    66  H    0.999933
    67  H    0.999981
    68  H    1.000044
    69  H    0.999997
    70  H    1.000053
    71  H    1.000051
    72  H    1.000015
    73  H    1.000076
    74  H    1.000119
    75  H    1.000073
    76  H    1.000073
    77  H    1.000036
    78  H    0.999980
    79  H    1.000027
    80  Mg  12.001676
    81  C    6.021808
    82  C    5.992655
    83  C    5.979052
    84  C    6.008507
    85  N    7.010517
    86  C    5.966070
    87  C    6.006510
    88  C    5.992164
    89  C    6.028704
    90  C    5.998192
    91  C    6.003159
    92  C    5.999628
    93  H    0.995352
    94  N    6.995131
    95  C    6.034379
    96  C    6.024083
    97  C    6.014452
    98  C    6.025426
    99  C    5.995244
   100  C    6.011762
   101  O    8.031101
   102  C    5.997393
   103  N    6.996442
   104  C    6.028898
   105  C    5.995031
   106  C    6.008716
   107  C    5.967334
   108  C    5.997506
   109  C    6.006648
   110  C    5.998287
   111  N    7.001654
   112  C    5.965651
   113  C    5.969344
   114  C    5.996581
   115  C    5.975298
   116  C    6.004162
   117  C    5.982026
   118  O    7.969937
   119  C    5.997518
   120  C    5.998774
   121  O    7.992212
   122  O    7.999281
   123  C    6.001854
   124  H    1.012332
   125  H    1.004588
   126  H    0.991212
   127  H    1.000503
   128  H    1.000259
   129  H    1.003394
   130  H    1.014042
   131  H    0.994876
   132  H    0.997916
   133  H    1.006598
   134  H    0.993720
   135  H    1.001406
   136  H    1.016751
   137  H    1.018131
   138  H    1.017214
   139  H    1.006890
   140  H    1.004148
   141  H    1.014027
   142  H    0.997117
   143  H    1.000505
   144  H    0.993728
   145  H    1.009021
   146  H    0.998754
   147  H    1.004507
   148  H    0.990939
   149  H    0.994985
   150  H    0.995518
   151  H    1.000397
   152  H    0.981486
   153  H    0.983774
   154  H    0.982434
   155  H    0.994020
   156  H    0.998670
   157  H    0.993749
   158  H    0.996272
 Sum of Mulliken charges = 624.00000

 Dipole moment (field-independent basis, Debye):
    X=             -8.8602    Y=             -1.8199    Z=              4.8850  Tot=             10.2800
 Quadrupole moment (field-independent basis, Debye-Ang):
   XX=            447.6010   YY=             -1.2281   ZZ=             -1.4521
   XY=             50.2932   XZ=           -126.2729   YZ=             -3.7958

 Normal termination of Gaussian 16 at Wed Oct 13 21:40:24 2021.
