 Gaussian 16, Revision A.03,
 Gaussian 16:  ES64L-G16RevA.03 25-Dec-2016

 --------------------------------------------------------
 #p PBE1PBE/Def2SVP td=(nstates=5) density=(transition=1)
 --------------------------------------------------------

 --------------------------------
 TDDFT excited states in gaussian
 --------------------------------
 Symbolic Z-matrix:
 Charge =  0 Multiplicity = 1

                         Standard orientation:
 ---------------------------------------------------------------------
 Center     Atomic      Atomic             Coordinates (Angstroms)
 Number     Number       Type             X           Y           Z
 ---------------------------------------------------------------------
      1         12           0       20.593614    0.643524   -0.302851
      2          6           0       20.909803   -2.722818    0.423316
      3          6           0       17.513688    0.650810    1.459766
      4          6           0       20.479451    4.064154   -0.471437
      5          6           0       23.796964    0.728038   -1.591424
      6          7           0       19.333510   -0.917066    0.683567
      7          6           0       19.734130   -2.211403    0.940397
      8          6           0       18.782362   -2.991414    1.922925
      9          6           0       17.500732   -2.031427    1.919631
     10          6           0       18.081286   -0.651256    1.278720
     11          6           0       16.183695   -2.506146    1.195437
     12          6           0       19.322980   -3.209036    3.292335
     13          6           0       19.534324   -4.611456    3.829676
     14          1           0       19.423812   -4.773377    5.354250
     15          7           0       19.129195    2.152047    0.322395
     16          6           0       17.916693    1.881674    0.984301
     17          6           0       17.174352    3.092273    1.137985
     18          6           0       18.115222    4.159872    0.708199
     19          6           0       19.337296    3.495734    0.158078
     20          6           0       15.834877    3.191698    1.875310
     21          6           0       17.747860    5.648505    0.836640
     22          8           0       16.716284    6.122057    1.304320
     23          6           0       18.852798    6.632202    0.679290
     24          7           0       22.072406    2.272725   -0.801553
     25          6           0       21.674013    3.543507   -0.950008
     26          6           0       22.939041    4.372197   -1.168458
     27          6           0       24.059081    3.329315   -1.634633
     28          6           0       23.266492    1.974643   -1.357931
     29          6           0       22.700365    5.402571   -2.328515
     30          6           0       25.481990    3.337612   -0.939077
     31          6           0       26.726556    3.714945   -1.728567
     32          7           0       22.080103   -0.750249   -0.627587
     33          6           0       23.344217   -0.587186   -1.202828
     34          6           0       24.056977   -1.827679   -1.173289
     35          6           0       23.155707   -2.734291   -0.534277
     36          6           0       21.940525   -1.987199   -0.277676
     37          6           0       25.439236   -2.121124   -1.665203
     38          6           0       22.926186   -4.056962   -0.120680
     39          8           0       23.675520   -5.008942   -0.209197
     40          6           0       21.515230   -4.097754    0.584334
     41          6           0       20.783366   -5.278796    0.100417
     42          8           0       20.631913   -6.296358    0.766944
     43          8           0       20.335457   -5.066092   -1.194817
     44          6           0       19.626722   -6.235479   -1.761603
     45          1           0       16.539843    0.767951    1.938823
     46          1           0       20.322094    5.141230   -0.563131
     47          1           0       24.822156    0.783872   -1.963000
     48          1           0       18.517435   -3.952095    1.482699
     49          1           0       17.296437   -1.788149    2.962929
     50          1           0       16.297806   -3.570866    0.992086
     51          1           0       15.953202   -1.970505    0.274439
     52          1           0       15.357566   -2.298592    1.874511
     53          1           0       18.596084   -2.774801    3.980401
     54          1           0       20.301916   -2.739757    3.384038
     55          1           0       20.560663   -4.899779    3.604403
     56          1           0       18.819324   -5.335644    3.439922
     57          1           0       15.396832    2.328254    2.375493
     58          1           0       15.187216    3.613343    1.107037
     59          1           0       15.972749    4.059703    2.519235
     60          1           0       19.079738    7.035392   -0.306710
     61          1           0       19.770986    6.302191    1.165452
     62          1           0       18.534435    7.525306    1.218266
     63          1           0       23.257243    4.904145   -0.271575
     64          1           0       24.166122    3.353409   -2.718533
     65          1           0       23.022218    6.374605   -1.954830
     66          1           0       21.675958    5.466126   -2.697630
     67          1           0       23.266617    5.172360   -3.231284
     68          1           0       25.587282    2.324466   -0.551699
     69          1           0       25.408351    4.095226   -0.157652
     70          1           0       27.551687    3.240314   -1.196947
     71          1           0       26.870627    4.793728   -1.664893
     72          1           0       26.828071    3.405595   -2.768270
     73          1           0       25.607881   -3.179475   -1.464610
     74          1           0       26.117466   -1.450208   -1.138841
     75          1           0       25.591680   -1.979567   -2.735319
     76          1           0       21.760049   -4.274628    1.632199
     77          1           0       20.333356   -6.891221   -2.270188
     78          1           0       18.828971   -5.827017   -2.381930
     79          1           0       19.103568   -6.804014   -0.993247
     80         12           0      -21.353146    0.205993   -0.307679
     81          6           0      -18.167901   -1.302981   -0.290319
     82          6           0      -22.644591   -2.864339    0.079458
     83          6           0      -24.190885    1.755419    0.168904
     84          6           0      -19.630901    3.322516   -0.004983
     85          7           0      -20.473527   -1.837294   -0.082947
     86          6           0      -19.189937   -2.257770   -0.179583
     87          6           0      -19.035094   -3.763045   -0.101046
     88          6           0      -20.545380   -4.203608   -0.261883
     89          6           0      -21.317048   -2.914650   -0.068641
     90          6           0      -20.894518   -4.898813   -1.642149
     91          6           0      -18.341386   -4.471338    1.143132
     92          6           0      -18.105029   -3.716969    2.478488
     93          1           0      -18.190822   -4.541788    3.816801
     94          7           0      -23.211519   -0.534499   -0.055579
     95          6           0      -23.545354   -1.794769    0.187916
     96          6           0      -24.999047   -1.856576    0.501163
     97          6           0      -25.489605   -0.456808    0.355713
     98          6           0      -24.264768    0.318997    0.158658
     99          6           0      -25.766886   -3.137016    0.690350
    100          6           0      -26.914412   -0.000464    0.530967
    101          8           0      -27.782291   -0.844862    0.738544
    102          6           0      -27.399458    1.496147    0.535504
    103          7           0      -21.866960    2.318677    0.158875
    104          6           0      -23.124317    2.595743    0.121323
    105          6           0      -23.264577    4.181962    0.179397
    106          6           0      -21.802387    4.590605    0.369624
    107          6           0      -21.011481    3.310633    0.179721
    108          6           0      -23.965463    4.914920   -0.976588
    109          6           0      -21.456875    5.083336    1.869140
    110          6           0      -21.080039    6.567054    2.034158
    111          7           0      -19.364643    0.927408   -0.108413
    112          6           0      -18.816331    2.182681   -0.121351
    113          6           0      -17.349120    2.111088   -0.345448
    114          6           0      -17.007500    0.730041   -0.293426
    115          6           0      -18.317011    0.081275   -0.258586
    116          6           0      -16.352419    3.290978   -0.384989
    117          6           0      -15.978500   -0.255393   -0.310856
    118          8           0      -14.738115   -0.216328   -0.241309
    119          6           0      -16.686491   -1.632028   -0.387331
    120          6           0      -16.201423   -2.308427   -1.672830
    121          8           0      -15.443187   -3.218273   -1.879920
    122          8           0      -16.976287   -1.816575   -2.728853
    123          6           0      -16.766207   -2.418177   -4.082290
    124          1           0      -23.036678   -3.874887    0.213233
    125          1           0      -25.169177    2.226707    0.290711
    126          1           0      -19.145344    4.285446   -0.174493
    127          1           0      -18.515710   -4.032247   -1.020581
    128          1           0      -20.789105   -4.936163    0.507712
    129          1           0      -20.026888   -4.913977   -2.300909
    130          1           0      -21.568825   -4.167338   -2.086172
    131          1           0      -21.326731   -5.882623   -1.458443
    132          1           0      -17.382578   -4.851676    0.790569
    133          1           0      -18.902121   -5.373354    1.390505
    134          1           0      -18.863743   -2.934980    2.510080
    135          1           0      -17.086357   -3.350984    2.603062
    136          1           0      -26.847255   -3.002110    0.642760
    137          1           0      -25.379080   -3.593483    1.601805
    138          1           0      -25.382856   -3.784141   -0.098915
    139          1           0      -27.142250    2.174428   -0.278930
    140          1           0      -26.952791    1.990579    1.398138
    141          1           0      -28.484789    1.574536    0.591940
    142          1           0      -23.879237    4.496232    1.022242
    143          1           0      -21.392910    5.387390   -0.252290
    144          1           0      -24.328309    4.222010   -1.735913
    145          1           0      -23.325403    5.681137   -1.415291
    146          1           0      -24.869345    5.442330   -0.671719
    147          1           0      -20.610540    4.539982    2.287127
    148          1           0      -22.342205    4.850661    2.461274
    149          1           0      -20.355810    6.783367    2.819917
    150          1           0      -22.003956    7.062753    2.331956
    151          1           0      -20.683188    6.833184    1.054396
    152          1           0      -16.746994    4.240962   -0.026003
    153          1           0      -16.105525    3.389847   -1.441761
    154          1           0      -15.439396    2.980214    0.122264
    155          1           0      -16.397211   -2.234345    0.473216
    156          1           0      -15.776391   -2.796536   -4.336708
    157          1           0      -16.931413   -1.576059   -4.754072
    158          1           0      -17.467686   -3.177349   -4.428844
 ---------------------------------------------------------------------

 SCF Done:  E(RPBE1PBE) =  -4067.34690945     A.U. after   16 cycles

 Excitation energies and oscillator strengths:

 Excited State   1:      Singlet-A      1.8364 eV  675.15 nm  f=0.0000  <S**2>=0.000
     312 -> 313        0.70711
 This state for optimization and/or second-order correction.
 Total Energy, E(TD-HF/TD-DFT) =  -4067.27942272
 Copying the excited state density for this state as the 1-particle RhoCI density.

 Excited State   2:      Singlet-A      1.8585 eV  667.14 nm  f=0.3675  <S**2>=0.000
     309 -> 315        0.17009
     311 -> 313        0.69182
     311 <- 313       -0.10672

 Excited State   3:      Singlet-A      1.9112 eV  648.73 nm  f=0.3915  <S**2>=0.000
     310 -> 316        0.17700
     312 -> 314        0.69107
     312 <- 314       -0.10568

 Excited State   4:      Singlet-A      2.1744 eV  570.20 nm  f=0.0000  <S**2>=0.000
     311 -> 314        0.70710

 Excited State   5:      Singlet-A      2.1844 eV  567.59 nm  f=0.1529  <S**2>=0.000
     309 -> 313        0.65882
     311 -> 315       -0.23360

 The electronic state is 1-A.
 Alpha  occ. eigenvalues --  -46.93841 -46.93466 -19.25803 -19.25221 -19.20587
 Alpha  occ. eigenvalues --  -19.20121 -19.19532 -19.19140 -19.18977 -19.18773
 Alpha  occ. eigenvalues --  -14.42934 -14.41838 -14.41528 -14.41311 -14.40019
 Alpha  occ. eigenvalues --  -14.39891 -14.39612 -14.39608 -10.36864 -10.36180
 Alpha  occ. eigenvalues --  -10.32925 -10.32673 -10.32223 -10.31516 -10.30657
 Alpha  occ. eigenvalues --  -10.29524 -10.29489 -10.29226 -10.29118 -10.29073
 Alpha  occ. eigenvalues --  -10.28751 -10.28749 -10.28737 -10.28686 -10.28558
 Alpha  occ. eigenvalues --  -10.28513 -10.28187 -10.27948 -10.27807 -10.27789
 Alpha  occ. eigenvalues --  -10.27640 -10.27636 -10.27212 -10.27164 -10.26987
 Alpha  occ. eigenvalues --  -10.26866 -10.26750 -10.26603 -10.26494 -10.26488
 Alpha  occ. eigenvalues --  -10.26473 -10.26270 -10.26259 -10.26200 -10.26076
 Alpha  occ. eigenvalues --  -10.25901 -10.25760 -10.25749 -10.25655 -10.25598
 Alpha  occ. eigenvalues --  -10.25597 -10.25476 -10.25232 -10.25152 -10.25117
 Alpha  occ. eigenvalues --  -10.25099 -10.24948 -10.24785 -10.24726 -10.24466
 Alpha  occ. eigenvalues --  -10.24391 -10.24354 -10.24151 -10.24102 -10.24044
 Alpha  occ. eigenvalues --  -10.24041 -10.24002 -10.23808 -10.23683 -10.23674
 Alpha  occ. eigenvalues --  -10.23650 -10.23377 -10.23218 -10.23022 -10.22939
 Alpha  occ. eigenvalues --  -10.22611  -3.15643  -3.15526  -1.88510  -1.88354
 Alpha  occ. eigenvalues --   -1.87991  -1.87898  -1.87866  -1.87752  -1.10764
 Alpha  occ. eigenvalues --   -1.10323  -1.04737  -1.04611  -1.04459  -1.03895
 Alpha  occ. eigenvalues --   -1.02354  -1.02072  -1.01408  -0.99653  -0.99437
 Alpha  occ. eigenvalues --   -0.98749  -0.98712  -0.98038  -0.97033  -0.96238
 Alpha  occ. eigenvalues --   -0.87856  -0.87024  -0.84180  -0.83754  -0.83611
 Alpha  occ. eigenvalues --   -0.83190  -0.82883  -0.82637  -0.82472  -0.81997
 Alpha  occ. eigenvalues --   -0.81693  -0.81115  -0.79928  -0.79901  -0.79200
 Alpha  occ. eigenvalues --   -0.78700  -0.78201  -0.78198  -0.77181  -0.77130
 Alpha  occ. eigenvalues --   -0.76353  -0.76034  -0.75244  -0.75124  -0.75097
 Alpha  occ. eigenvalues --   -0.74792  -0.72844  -0.72237  -0.71993  -0.71459
 Alpha  occ. eigenvalues --   -0.71343  -0.71162  -0.70953  -0.70496  -0.69845
 Alpha  occ. eigenvalues --   -0.69797  -0.68004  -0.67749  -0.66895  -0.66714
 Alpha  occ. eigenvalues --   -0.64020  -0.63760  -0.63592  -0.63535  -0.63073
 Alpha  occ. eigenvalues --   -0.62397  -0.62078  -0.61513  -0.61320  -0.60175
 Alpha  occ. eigenvalues --   -0.60056  -0.60006  -0.59875  -0.59746  -0.59422
 Alpha  occ. eigenvalues --   -0.59298  -0.57671  -0.57581  -0.55138  -0.54900
 Alpha  occ. eigenvalues --   -0.54796  -0.54369  -0.54054  -0.54001  -0.53664
 Alpha  occ. eigenvalues --   -0.53189  -0.52750  -0.52433  -0.51679  -0.51482
 Alpha  occ. eigenvalues --   -0.51126  -0.51030  -0.50489  -0.50421  -0.50151
 Alpha  occ. eigenvalues --   -0.49999  -0.49616  -0.49330  -0.49071  -0.48519
 Alpha  occ. eigenvalues --   -0.48490  -0.48283  -0.48272  -0.47802  -0.47541
 Alpha  occ. eigenvalues --   -0.47379  -0.47378  -0.47314  -0.47008  -0.46683
 Alpha  occ. eigenvalues --   -0.46625  -0.46310  -0.46119  -0.46105  -0.45935
 Alpha  occ. eigenvalues --   -0.45758  -0.45667  -0.45644  -0.45218  -0.44955
 Alpha  occ. eigenvalues --   -0.44788  -0.44666  -0.44427  -0.44294  -0.44159
 Alpha  occ. eigenvalues --   -0.44083  -0.43719  -0.43625  -0.43521  -0.43491
 Alpha  occ. eigenvalues --   -0.43335  -0.43230  -0.43153  -0.42945  -0.42916
 Alpha  occ. eigenvalues --   -0.42654  -0.42613  -0.42330  -0.42325  -0.42184
 Alpha  occ. eigenvalues --   -0.41912  -0.41897  -0.41748  -0.41701  -0.41436
 Alpha  occ. eigenvalues --   -0.41358  -0.41319  -0.41103  -0.40787  -0.40783
 Alpha  occ. eigenvalues --   -0.40740  -0.40595  -0.40493  -0.40344  -0.40240
 Alpha  occ. eigenvalues --   -0.40148  -0.40130  -0.39954  -0.39671  -0.39428
 Alpha  occ. eigenvalues --   -0.39297  -0.39027  -0.39011  -0.38816  -0.38660
 Alpha  occ. eigenvalues --   -0.38474  -0.38405  -0.38149  -0.37925  -0.37763
 Alpha  occ. eigenvalues --   -0.37698  -0.37523  -0.37271  -0.37057  -0.37018
 Alpha  occ. eigenvalues --   -0.36974  -0.36859  -0.36410  -0.36375  -0.36315
 Alpha  occ. eigenvalues --   -0.36151  -0.36019  -0.35820  -0.35604  -0.35294
 Alpha  occ. eigenvalues --   -0.34940  -0.34907  -0.34647  -0.34388  -0.34118
 Alpha  occ. eigenvalues --   -0.33828  -0.33360  -0.33275  -0.32856  -0.32705
 Alpha  occ. eigenvalues --   -0.32437  -0.32190  -0.31981  -0.31764  -0.31548
 Alpha  occ. eigenvalues --   -0.31324  -0.30915  -0.30066  -0.29763  -0.29425
 Alpha  occ. eigenvalues --   -0.29340  -0.29101  -0.28750  -0.27444  -0.27420
 Alpha  occ. eigenvalues --   -0.26591  -0.26160  -0.26090  -0.25904  -0.25798
 Alpha  occ. eigenvalues --   -0.25543  -0.25075  -0.25010  -0.21561  -0.21425
 Alpha  occ. eigenvalues --   -0.19748  -0.19194
 Alpha virt. eigenvalues --   -0.12128  -0.11438  -0.05847  -0.05539  -0.04788
 Alpha virt. eigenvalues --   -0.04124  -0.02663  -0.02214  -0.01459  -0.00382
 Alpha virt. eigenvalues --    0.00166   0.00386   0.00511   0.00637   0.01245

 Mulliken charges:
               1
     1  Mg  12.000000
     2  C    6.000000
     3  C    6.000000
     4  C    6.000000
     5  C    6.000000
     6  N    7.000000
     7  C    6.000000
     8  C    6.000000
     9  C    6.000000
    10  C    6.000000
    11  C    6.000000
    12  C    6.000000
    13  C    6.000000
    14  H    1.000000
    15  N    7.000000
    16  C    6.000000
    17  C    6.000000
    18  C    6.000000
    19  C    6.000000
    20  C    6.000000
    21  C    6.000000
    22  O    8.000000
    23  C    6.000000
    24  N    7.000000
    25  C    6.000000
    26  C    6.000000
    27  C    6.000000
    28  C    6.000000
    29  C    6.000000
    30  C    6.000000
    31  C    6.000000
    32  N    7.000000
    33  C    6.000000
    34  C    6.000000
    35  C    6.000000
    36  C    6.000000
    37  C    6.000000
    38  C    6.000000
    39  O    8.000000
    40  C    6.000000
    41  C    6.000000
    42  O    8.000000
    43  O    8.000000
    44  C    6.000000
    45  H    1.000000
    46  H    1.000000
    47  H    1.000000
    48  H    1.000000
    49  H    1.000000
    50  H    1.000000
    51  H    1.000000
    52  H    1.000000
    53  H    1.000000
    54  H    1.000000
    55  H    1.000000
    56  H    1.000000
    57  H    1.000000
    58  H    1.000000
    59  H    1.000000
    60  H    1.000000
    61  H    1.000000
    62  H    1.000000
    63  H    1.000000
    64  H    1.000000
    65  H    1.000000
    66  H    1.000000
    67  H    1.000000
    68  H    1.000000
    69  H    1.000000
    70  H    1.000000
    71  H    1.000000
    72  H    1.000000
    73  H    1.000000
    74  H    1.000000
    75  H    1.000000
    76  H    1.000000
    77  H    1.000000
    78  H    1.000000
    79  H    1.000000
    80  Mg  12.000000
    81  C    6.000000
    82  C    6.000000
    83  C    6.000000
    84  C    6.000000
    85  N    7.000000
    86  C    6.000000
    87  C    6.000000
    88  C    6.000000
    89  C    6.000000
    90  C    6.000000
    91  C    6.000000
    92  C    6.000000
    93  H    1.000000
    94  N    7.000000
    95  C    6.000000
    96  C    6.000000
    97  C    6.000000
    98  C    6.000000
    99  C    6.000000
   100  C    6.000000
   101  O    8.000000
   102  C    6.000000
   103  N    7.000000
   104  C    6.000000
   105  C    6.000000
   106  C    6.000000
   107  C    6.000000
   108  C    6.000000
   109  C    6.000000
   110  C    6.000000
   111  N    7.000000
   112  C    6.000000
   113  C    6.000000
   114  C    6.000000
   115  C    6.000000
   116  C    6.000000
   117  C    6.000000
   118  O    8.000000
   119  C    6.000000
   120  C    6.000000
   121  O    8.000000
   122  O    8.000000
   123  C    6.000000
   124  H    1.000000
   125  H    1.000000
   126  H    1.000000
   127  H    1.000000
   128  H    1.000000
   129  H    1.000000
   130  H    1.000000
   131  H    1.000000
   132  H    1.000000
   133  H    1.000000
   134  H    1.000000
   135  H    1.000000
   136  H    1.000000
   137  H    1.000000
   138  H    1.000000
   139  H    1.000000
   140  H    1.000000
   141  H    1.000000
   142  H    1.000000
   143  H    1.000000
   144  H    1.000000
   145  H    1.000000
   146  H    1.000000
   147  H    1.000000
   148  H    1.000000
   149  H    1.000000
   150  H    1.000000
   151  H    1.000000
   152  H    1.000000
   153  H    1.000000
   154  H    1.000000
   155  H    1.000000
   156  H    1.000000
   157  H    1.000000
   158  H    1.000000
 Sum of Mulliken charges = 624.00000

 Dipole moment (field-independent basis, Debye):
    X=             -0.0000    Y=              0.0000    Z=              0.0000  Tot=              0.0000
 Quadrupole moment (field-independent basis, Debye-Ang):
   XX=             -0.0000   YY=              0.0000   ZZ=             -0.0000
   XY=              0.0000   XZ=              0.0000   YZ=              0.0000

 Normal termination of Gaussian 16 at Fri Oct 15 08:36:42 2021.
