 Gaussian 16, Revision A.03,
 Gaussian 16:  ES64L-G16RevA.03 25-Dec-2016

 ---------------------------------------------------------
 #p PBE1PBE/Def2SVP td=(nstates=5, root=1) density=current
 ---------------------------------------------------------

 --------------------------------
 TDDFT excited states in gaussian
 --------------------------------
 Symbolic Z-matrix:
 Charge =  0 Multiplicity = 1

                         Standard orientation:
 ---------------------------------------------------------------------
 Center     Atomic      Atomic             Coordinates (Angstroms)
 Number     Number       Type             X           Y           Z
 ---------------------------------------------------------------------
      1         12           0       -0.719919    0.133279    0.143357
      2          6           0        2.795660    0.384084    0.147094
      3          6           0       -0.302757   -3.294620    0.001561
      4          6           0       -4.108533   -0.259931    0.011923
      5          6           0       -0.975178    3.474221   -0.062120
      6          7           0        1.071003   -1.309189    0.116206
      7          6           0        2.418321   -1.001794    0.262643
      8          6           0        3.222781   -2.259528    0.522866
      9          6           0        2.243839   -3.416295    0.104881
     10          6           0        0.948887   -2.635481    0.092025
     11          6           0        2.604360   -4.168596   -1.235762
     12          6           0        3.626477   -2.426253    1.995411
     13          6           0        5.011425   -3.037816    2.232643
     14          1           0        5.230076   -4.535896    1.881903
     15          7           0       -2.028157   -1.527234    0.114181
     16          6           0       -1.605388   -2.808862    0.018319
     17          6           0       -2.745980   -3.654159   -0.124593
     18          6           0       -3.932985   -2.854845    0.013784
     19          6           0       -3.387169   -1.509154   -0.002884
     20          6           0       -2.621375   -5.139452   -0.321991
     21          6           0       -5.416983   -3.222180    0.007846
     22          8           0       -6.301381   -2.391458    0.311641
     23          6           0       -5.922664   -4.588591   -0.440789
     24          7           0       -2.293250    1.411818    0.088730
     25          6           0       -3.631673    1.051234   -0.034578
     26          6           0       -4.457534    2.288364   -0.177007
     27          6           0       -3.520069    3.548526   -0.139400
     28          6           0       -2.176525    2.817500    0.014488
     29          6           0       -5.484573    2.254557   -1.348569
     30          6           0       -3.780805    4.538999    1.016079
     31          6           0       -4.671563    5.730760    0.615194
     32          7           0        0.561820    1.633664    0.013200
     33          6           0        0.361015    3.013202   -0.003205
     34          6           0        1.655381    3.789793    0.032956
     35          6           0        2.592646    2.744274    0.056637
     36          6           0        1.907797    1.487438    0.098929
     37          6           0        1.812729    5.299437    0.035724
     38          6           0        4.028779    2.511755    0.085397
     39          8           0        4.975596    3.298849    0.052679
     40          6           0        4.183688    0.942590    0.270135
     41          6           0        5.158956    0.499271   -0.838064
     42          8           0        5.183390    0.904081   -1.982055
     43          8           0        6.127890   -0.326632   -0.271422
     44          6           0        7.113325   -0.800902   -1.243241
     45          1           0       -0.136266   -4.373064    0.037800
     46          1           0       -5.199783   -0.268164   -0.021359
     47          1           0       -1.141993    4.535903   -0.253862
     48          1           0        4.123840   -2.355603   -0.082410
     49          1           0        2.175663   -4.235612    0.820593
     50          1           0        3.555600   -3.890034   -1.690157
     51          1           0        1.909744   -4.045164   -2.066305
     52          1           0        2.713987   -5.238631   -1.059309
     53          1           0        2.904876   -3.036898    2.537605
     54          1           0        3.682062   -1.457246    2.491836
     55          1           0        5.360977   -2.870284    3.251297
     56          1           0        5.779808   -2.503918    1.673885
     57          1           0       -1.888447   -5.194248   -1.127062
     58          1           0       -3.499922   -5.680287   -0.673477
     59          1           0       -2.225509   -5.683444    0.535297
     60          1           0       -5.490729   -4.865941   -1.402497
     61          1           0       -6.998972   -4.424153   -0.489890
     62          1           0       -5.640343   -5.364925    0.270327
     63          1           0       -5.176895    2.275922    0.642376
     64          1           0       -3.462649    4.111650   -1.071793
     65          1           0       -5.339987    1.318296   -1.888090
     66          1           0       -5.270557    3.080335   -2.026561
     67          1           0       -6.453215    2.292019   -0.849019
     68          1           0       -2.812340    4.800496    1.441880
     69          1           0       -4.384618    4.074555    1.796003
     70          1           0       -5.285862    5.459442   -0.243590
     71          1           0       -4.159689    6.627309    0.265007
     72          1           0       -5.349096    5.936073    1.444517
     73          1           0        1.506679    5.652269    1.020739
     74          1           0        1.199862    5.838652   -0.686323
     75          1           0        2.873963    5.483763   -0.130572
     76          1           0        4.573979    0.616925    1.234169
     77          1           0        6.854202   -1.737431   -1.737991
     78          1           0        8.028748   -0.890915   -0.658601
     79          1           0        7.352098   -0.178503   -2.105611
 ---------------------------------------------------------------------

 SCF Done:  E(RPBE1PBE) =  -2033.71939202     A.U. after   16 cycles

 Excitation energies and oscillator strengths:

 Excited State   1:      Singlet-A      1.8492 eV  670.48 nm  f=0.3661  <S**2>=0.000
     155 ->158        -0.18099
     156 ->157         0.69139
     156 <-157        -0.10447
 This state for optimization and/or second-order correction.
 Total Energy, E(TD-HF/TD-DFT) =  -2033.65143585
 Copying the excited state density for this state as the 1-particle RhoCI density.

 Excited State   2:      Singlet-A      2.2265 eV  556.85 nm  f=0.0981  <S**2>=0.000
     155 ->157         0.64898
     156 ->158         0.27353

 Excited State   3:      Singlet-A      3.0968 eV  400.36 nm  f=0.0001  <S**2>=0.000
     153 ->157         0.64586
     153 ->159         0.18199
     153 ->160        -0.11586
     154 ->157         0.14048

 Excited State   4:      Singlet-A      3.1293 eV  396.21 nm  f=0.0013  <S**2>=0.000
     152 ->157         0.16383
     153 ->157        -0.14072
     154 ->157         0.65235
     156 ->158        -0.11068

 Excited State   5:      Singlet-A      3.1935 eV  388.24 nm  f=0.0038  <S**2>=0.000
     151 ->157        -0.11295
     152 ->157         0.61748
     152 ->159        -0.17124
     152 ->160        -0.10876
     154 ->157        -0.17538

 The electronic state is 1-A.
 Alpha  occ. eigenvalues --  -46.91080 -19.26413 -19.20622 -19.19374 -19.19340
 Alpha  occ. eigenvalues --  -14.42039 -14.40972 -14.39601 -14.39074 -10.36714
 Alpha  occ. eigenvalues --  -10.32902 -10.32283 -10.29306 -10.28715 -10.28465
 Alpha  occ. eigenvalues --  -10.28374 -10.28232 -10.28201 -10.28168 -10.27084
 Alpha  occ. eigenvalues --  -10.27080 -10.26633 -10.26607 -10.26467 -10.26404
 Alpha  occ. eigenvalues --  -10.26185 -10.26161 -10.26141 -10.25766 -10.25122
 Alpha  occ. eigenvalues --  -10.25046 -10.24985 -10.24509 -10.24321 -10.24053
 Alpha  occ. eigenvalues --  -10.24029 -10.23943 -10.23789 -10.23746 -10.23614
 Alpha  occ. eigenvalues --  -10.23512 -10.23174 -10.23039  -3.13436  -1.86277
 Alpha  occ. eigenvalues --   -1.85787  -1.85704  -1.11055  -1.04010  -1.03548
 Alpha  occ. eigenvalues --   -1.03003  -0.99264  -0.98247  -0.97817  -0.96104
 Alpha  occ. eigenvalues --   -0.86944  -0.83684  -0.83325  -0.82592  -0.81828
 Alpha  occ. eigenvalues --   -0.81226  -0.80506  -0.78649  -0.77900  -0.76585
 Alpha  occ. eigenvalues --   -0.75850  -0.75263  -0.74397  -0.72706  -0.71799
 Alpha  occ. eigenvalues --   -0.71573  -0.70469  -0.69416  -0.67166  -0.66082
 Alpha  occ. eigenvalues --   -0.63717  -0.63268  -0.62651  -0.61679  -0.60186
 Alpha  occ. eigenvalues --   -0.59932  -0.59013  -0.58780  -0.57156  -0.54904
 Alpha  occ. eigenvalues --   -0.54632  -0.53520  -0.53169  -0.52288  -0.52042
 Alpha  occ. eigenvalues --   -0.50631  -0.50019  -0.49736  -0.49066  -0.48388
 Alpha  occ. eigenvalues --   -0.48097  -0.47703  -0.47494  -0.47160  -0.46701
 Alpha  occ. eigenvalues --   -0.46431  -0.46210  -0.45815  -0.45138  -0.44637
 Alpha  occ. eigenvalues --   -0.44580  -0.44408  -0.44007  -0.43700  -0.43522
 Alpha  occ. eigenvalues --   -0.43155  -0.42802  -0.42719  -0.42200  -0.42113
 Alpha  occ. eigenvalues --   -0.41503  -0.41389  -0.41252  -0.40993  -0.40640
 Alpha  occ. eigenvalues --   -0.40259  -0.39739  -0.39415  -0.39304  -0.39197
 Alpha  occ. eigenvalues --   -0.39033  -0.38408  -0.38312  -0.37969  -0.37935
 Alpha  occ. eigenvalues --   -0.37483  -0.37170  -0.36768  -0.36565  -0.36416
 Alpha  occ. eigenvalues --   -0.36080  -0.35896  -0.35459  -0.35186  -0.34671
 Alpha  occ. eigenvalues --   -0.33708  -0.33335  -0.32943  -0.32235  -0.31867
 Alpha  occ. eigenvalues --   -0.31679  -0.30358  -0.29867  -0.28447  -0.26710
 Alpha  occ. eigenvalues --   -0.26327  -0.26069  -0.25799  -0.25538  -0.20865
 Alpha  occ. eigenvalues --   -0.18707
 Alpha virt. eigenvalues --   -0.11069  -0.05254  -0.04236  -0.02641   0.00295
 Alpha virt. eigenvalues --    0.00510   0.01327   0.01645   0.02607   0.03458
 Alpha virt. eigenvalues --    0.03868   0.05472   0.06082   0.06183   0.06895

 Mulliken charges:
               1
     1  Mg   1.003914
     2  C   -0.073075
     3  C   -0.102508
     4  C   -0.065519
     5  C   -0.088457
     6  N   -0.356873
     7  C    0.076385
     8  C   -0.067472
     9  C   -0.124976
    10  C    0.049448
    11  C    0.002096
    12  C    0.011861
    13  C   -0.143392
    14  H    0.026940
    15  N   -0.462564
    16  C    0.233572
    17  C   -0.199133
    18  C   -0.041291
    19  C    0.135991
    20  C    0.050221
    21  C    0.044858
    22  O   -0.269278
    23  C   -0.032032
    24  N   -0.494121
    25  C    0.123621
    26  C   -0.123358
    27  C   -0.087956
    28  C    0.079614
    29  C    0.005441
    30  C   -0.012206
    31  C   -0.072631
    32  N   -0.520280
    33  C    0.152167
    34  C   -0.162956
    35  C   -0.079750
    36  C    0.204971
    37  C    0.069736
    38  C    0.176752
    39  O   -0.222327
    40  C   -0.147128
    41  C    0.287879
    42  O   -0.228511
    43  O   -0.371741
    44  C    0.111497
    45  H   -0.004838
    46  H    0.021301
    47  H   -0.003747
    48  H    0.051704
    49  H    0.052897
    50  H    0.039588
    51  H    0.049549
    52  H    0.040594
    53  H    0.049863
    54  H    0.048221
    55  H    0.054393
    56  H    0.059632
    57  H    0.050168
    58  H    0.030828
    59  H    0.059497
    60  H    0.064376
    61  H    0.062575
    62  H    0.065937
    63  H    0.058690
    64  H    0.058004
    65  H    0.053565
    66  H    0.041062
    67  H    0.049406
    68  H    0.047075
    69  H    0.038186
    70  H    0.033998
    71  H    0.047928
    72  H    0.047418
    73  H    0.056385
    74  H    0.052634
    75  H    0.071751
    76  H    0.079199
    77  H    0.046683
    78  H    0.058837
    79  H    0.069218
 Sum of Mulliken charges =  -0.00000

 Dipole moment (field-independent basis, Debye):
    X=             -1.0479    Y=             -3.0169    Z=              0.5938  Tot=              3.2484
 Quadrupole moment (field-independent basis, Debye-Ang):
   XX=           -274.9263   YY=           -227.4831   ZZ=           -257.6756
   XY=            -37.1134   XZ=              8.7707   YZ=              6.4089

 Normal termination of Gaussian 16 at Wed Oct 13 14:33:29 2021.
