 Gaussian 16, Revision A.03,
 Gaussian 16:  ES64L-G16RevA.03 25-Dec-2016

 --------------------------------------------------------
 #p PBE1PBE/Def2SVP td=(nstates=5) density=(transition=1)
 --------------------------------------------------------

 --------------------------------
 TDDFT excited states in gaussian
 --------------------------------
 Symbolic Z-matrix:
 Charge =  0 Multiplicity = 1

                         Standard orientation:
 ---------------------------------------------------------------------
 Center     Atomic      Atomic             Coordinates (Angstroms)
 Number     Number       Type             X           Y           Z
 ---------------------------------------------------------------------
      1         12           0      -13.335737   -0.609731    0.385403
      2          6           0      -13.515560    2.739392   -0.807542
      3          6           0      -11.914418    0.587398    3.278381
      4          6           0      -13.191692   -3.782380    1.297780
      5          6           0      -14.352777   -1.757105   -2.865517
      6          7           0      -12.691993    1.488546    1.158503
      7          6           0      -12.990250    2.663662    0.493329
      8          6           0      -12.540437    3.826548    1.442766
      9          6           0      -11.967256    3.120313    2.784289
     10          6           0      -12.188177    1.659101    2.380133
     11          6           0      -10.533916    3.512455    3.199315
     12          6           0      -13.578887    4.997449    1.690558
     13          6           0      -13.111751    6.372429    1.310475
     14          1           0      -11.665959    6.793713    1.313139
     15          7           0      -12.734917   -1.505349    2.188004
     16          6           0      -12.176591   -0.834809    3.230330
     17          6           0      -12.062945   -1.793395    4.299325
     18          6           0      -12.321385   -3.060226    3.732783
     19          6           0      -12.759056   -2.868392    2.311874
     20          6           0      -11.552137   -1.349110    5.680320
     21          6           0      -12.078099   -4.398751    4.361544
     22          8           0      -12.234007   -5.463862    3.718520
     23          6           0      -11.586044   -4.467124    5.759631
     24          7           0      -13.677844   -2.502526   -0.727451
     25          6           0      -13.623985   -3.622262   -0.094265
     26          6           0      -14.059586   -4.951407   -0.913285
     27          6           0      -14.407783   -4.278430   -2.249703
     28          6           0      -14.152969   -2.817359   -1.970915
     29          6           0      -12.853907   -5.959990   -0.960596
     30          6           0      -15.852959   -4.521808   -2.810516
     31          6           0      -17.010045   -3.802868   -2.077028
     32          7           0      -13.696173    0.260021   -1.429704
     33          6           0      -14.071511   -0.357144   -2.646193
     34          6           0      -14.356535    0.705935   -3.619512
     35          6           0      -14.159704    1.930943   -2.937991
     36          6           0      -13.797288    1.608122   -1.586637
     37          6           0      -14.825583    0.484512   -5.088720
     38          6           0      -14.236237    3.282797   -3.120117
     39          8           0      -14.479714    3.963208   -4.095795
     40          6           0      -13.886511    3.924111   -1.748226
     41          6           0      -12.817843    4.875631   -1.947437
     42          8           0      -11.612981    4.601291   -1.912513
     43          8           0      -13.344747    6.085366   -2.415157
     44          6           0      -12.322060    7.075210   -2.835164
     45          1           0      -11.242708    0.800572    4.112996
     46          1           0      -12.983303   -4.822424    1.557588
     47          1           0      -14.668415   -2.051212   -3.868629
     48          1           0      -11.799689    4.279950    0.785386
     49          1           0      -12.567360    3.443775    3.633625
     50          1           0      -10.518921    3.890740    4.222259
     51          1           0      -10.014954    4.225810    2.559301
     52          1           0       -9.982313    2.573962    3.143903
     53          1           0      -13.889022    5.005864    2.735657
     54          1           0      -14.422820    4.773206    1.038138
     55          1           0      -13.410419    7.032215    2.125856
     56          1           0      -13.562105    6.622764    0.350598
     57          1           0      -11.608517   -0.268180    5.810860
     58          1           0      -10.521493   -1.675847    5.812490
     59          1           0      -12.212928   -1.850720    6.386587
     60          1           0      -12.317099   -3.945144    6.377072
     61          1           0      -10.638091   -3.940020    5.874171
     62          1           0      -11.403436   -5.500206    6.052680
     63          1           0      -14.940379   -5.418673   -0.472176
     64          1           0      -13.631451   -4.501461   -2.981954
     65          1           0      -11.933192   -5.377658   -0.926012
     66          1           0      -12.880145   -6.473656   -1.922264
     67          1           0      -12.792818   -6.721888   -0.183071
     68          1           0      -16.017317   -5.589043   -2.955767
     69          1           0      -15.858525   -4.187727   -3.847570
     70          1           0      -16.890863   -3.647530   -1.005278
     71          1           0      -17.938032   -4.321359   -2.320727
     72          1           0      -17.095893   -2.835784   -2.572242
     73          1           0      -15.699461    1.079614   -5.354047
     74          1           0      -15.013806   -0.561449   -5.328237
     75          1           0      -14.127563    0.984131   -5.760943
     76          1           0      -14.819055    4.430951   -1.502266
     77          1           0      -11.819605    6.744857   -3.743931
     78          1           0      -11.521660    7.231453   -2.112853
     79          1           0      -12.821184    8.044318   -2.845133
     80         12           0       12.774518   -0.731085   -0.491482
     81          6           0       14.933952    1.979355    0.409489
     82          6           0       10.090857    1.098986    0.623287
     83          6           0       10.727076   -3.390230   -0.871935
     84          6           0       15.655616   -2.759298   -0.655751
     85          7           0       12.570555    1.299304    0.393218
     86          6           0       13.551455    2.278449    0.616117
     87          6           0       12.886515    3.540843    1.101820
     88          6           0       11.484880    3.007619    1.620631
     89          6           0       11.379944    1.650331    0.864986
     90          6           0       11.582306    2.830529    3.177874
     91          6           0       12.864314    4.702733    0.046901
     92          6           0       13.215480    5.958565    0.670486
     93          1           0       13.574624    7.149332   -0.353142
     94          7           0       10.659976   -0.954714   -0.306203
     95          6           0        9.744667   -0.079558    0.126934
     96          6           0        8.439579   -0.645060   -0.027218
     97          6           0        8.580776   -1.953100   -0.440701
     98          6           0       10.088745   -2.174882   -0.627190
     99          6           0        7.150365    0.097233    0.448210
    100          6           0        7.488686   -2.986967   -0.784012
    101          8           0        7.817420   -4.102665   -1.098833
    102          6           0        6.031568   -2.590245   -0.817413
    103          7           0       13.172496   -2.834781   -0.457703
    104          6           0       12.128548   -3.697719   -0.772526
    105          6           0       12.649875   -5.048467   -1.141478
    106          6           0       14.242998   -4.848809   -1.095902
    107          6           0       14.388903   -3.379015   -0.779342
    108          6           0       12.105406   -6.141366   -0.285093
    109          6           0       15.092041   -5.288501   -2.411514
    110          6           0       16.108197   -6.350694   -2.261462
    111          7           0       14.885154   -0.497088   -0.246762
    112          6           0       15.888940   -1.433731   -0.348489
    113          6           0       17.221039   -0.710757   -0.159653
    114          6           0       16.901961    0.649312    0.026449
    115          6           0       15.464696    0.718290    0.017594
    116          6           0       18.592203   -1.400275   -0.156675
    117          6           0       17.495701    1.906678    0.366999
    118          8           0       18.698406    2.224140    0.506728
    119          6           0       16.254335    2.790534    0.798379
    120          6           0       16.480213    4.176014    0.121821
    121          8           0       15.868574    4.483816   -0.917602
    122          8           0       17.317068    4.926939    0.879154
    123          6           0       17.679276    6.167354    0.110861
    124          1           0        9.218638    1.741904    0.761416
    125          1           0       10.084373   -4.261581   -1.018473
    126          1           0       16.606451   -3.280762   -0.782956
    127          1           0       13.437781    3.839516    1.993161
    128          1           0       10.678953    3.705405    1.396093
    129          1           0       12.170542    1.965302    3.482579
    130          1           0       10.574613    2.794006    3.589599
    131          1           0       12.046539    3.720923    3.602523
    132          1           0       11.818088    4.846471   -0.224062
    133          1           0       13.449193    4.460456   -0.840726
    134          1           0       14.161499    5.880421    1.206519
    135          1           0       12.378320    6.253368    1.303703
    136          1           0        6.531836    0.105363   -0.449217
    137          1           0        7.303002    1.131285    0.756935
    138          1           0        6.713368   -0.427459    1.297714
    139          1           0        5.401566   -3.462053   -0.994257
    140          1           0        6.109348   -1.915484   -1.669853
    141          1           0        5.793184   -2.099069    0.125952
    142          1           0       12.313648   -5.156500   -2.172851
    143          1           0       14.606812   -5.456664   -0.267873
    144          1           0       11.445182   -6.699238   -0.947950
    145          1           0       11.449588   -5.776889    0.505431
    146          1           0       12.848690   -6.788398    0.181281
    147          1           0       15.647157   -4.377228   -2.633899
    148          1           0       14.381627   -5.465380   -3.217955
    149          1           0       17.108707   -5.970881   -2.466763
    150          1           0       15.795667   -6.940344   -3.122608
    151          1           0       15.982042   -6.943255   -1.354313
    152          1           0       18.810467   -1.612811    0.889288
    153          1           0       19.378169   -0.769507   -0.571885
    154          1           0       18.542809   -2.288176   -0.787031
    155          1           0       16.352372    2.836789    1.882115
    156          1           0       18.379531    6.010953   -0.709514
    157          1           0       18.074386    6.981071    0.718148
    158          1           0       16.734018    6.565626   -0.258427
 ---------------------------------------------------------------------

 SCF Done:  E(RPBE1PBE) =  -4067.34411736     A.U. after   16 cycles

 Excitation energies and oscillator strengths:

 Excited State   1:      Singlet-A      1.7089 eV  725.52 nm  f=0.0000  <S**2>=0.000
     312 -> 313        0.70710
 This state for optimization and/or second-order correction.
 Total Energy, E(TD-HF/TD-DFT) =  -4067.28131677
 Copying the excited state density for this state as the 1-particle RhoCI density.

 Excited State   2:      Singlet-A      1.8313 eV  677.02 nm  f=0.3533  <S**2>=0.000
     309 -> 315        0.18208
     312 -> 314        0.68899

 Excited State   3:      Singlet-A      1.8677 eV  663.84 nm  f=0.3591  <S**2>=0.000
     310 -> 316        0.18701
     311 -> 313        0.68754

 Excited State   4:      Singlet-A      2.2069 eV  561.79 nm  f=0.1021  <S**2>=0.000
     310 -> 313        0.65386
     311 -> 316       -0.25876

 Excited State   5:      Singlet-A      2.2186 eV  558.84 nm  f=0.0000  <S**2>=0.000
     311 -> 314        0.70709

 The electronic state is 1-A.
 Alpha  occ. eigenvalues --  -46.93266 -46.92788 -19.26829 -19.25073 -19.20056
 Alpha  occ. eigenvalues --  -19.19668 -19.19440 -19.19156 -19.18758 -19.18197
 Alpha  occ. eigenvalues --  -14.42124 -14.41702 -14.41497 -14.41476 -14.39596
 Alpha  occ. eigenvalues --  -14.39362 -14.38903 -14.38899 -10.36772 -10.35749
 Alpha  occ. eigenvalues --  -10.32572 -10.32197 -10.31948 -10.30749 -10.29494
 Alpha  occ. eigenvalues --  -10.29236 -10.29084 -10.28884 -10.28867 -10.28865
 Alpha  occ. eigenvalues --  -10.28828 -10.28781 -10.28586 -10.28437 -10.28290
 Alpha  occ. eigenvalues --  -10.28234 -10.28150 -10.28135 -10.27206 -10.26821
 Alpha  occ. eigenvalues --  -10.26690 -10.26683 -10.26640 -10.26632 -10.26460
 Alpha  occ. eigenvalues --  -10.26285 -10.26231 -10.26197 -10.26184 -10.26063
 Alpha  occ. eigenvalues --  -10.26053 -10.26040 -10.25866 -10.25571 -10.25542
 Alpha  occ. eigenvalues --  -10.25531 -10.25378 -10.25370 -10.25278 -10.25242
 Alpha  occ. eigenvalues --  -10.25237 -10.25204 -10.25201 -10.25080 -10.24989
 Alpha  occ. eigenvalues --  -10.24948 -10.24771 -10.24623 -10.24286 -10.24144
 Alpha  occ. eigenvalues --  -10.24060 -10.24005 -10.23818 -10.23760 -10.23735
 Alpha  occ. eigenvalues --  -10.23663 -10.23577 -10.23567 -10.23491 -10.23450
 Alpha  occ. eigenvalues --  -10.23390 -10.22895 -10.22777 -10.22698 -10.22491
 Alpha  occ. eigenvalues --  -10.22079  -3.15189  -3.14710  -1.88044  -1.87598
 Alpha  occ. eigenvalues --   -1.87544  -1.87368  -1.87070  -1.86932  -1.10841
 Alpha  occ. eigenvalues --   -1.09233  -1.06241  -1.04381  -1.02930  -1.02715
 Alpha  occ. eigenvalues --   -1.01961  -1.01270  -1.00804  -0.98547  -0.98254
 Alpha  occ. eigenvalues --   -0.97662  -0.97560  -0.97347  -0.96666  -0.96233
 Alpha  occ. eigenvalues --   -0.86936  -0.85662  -0.84123  -0.83174  -0.82906
 Alpha  occ. eigenvalues --   -0.82476  -0.82450  -0.82115  -0.81570  -0.81486
 Alpha  occ. eigenvalues --   -0.81467  -0.81176  -0.79999  -0.79922  -0.78663
 Alpha  occ. eigenvalues --   -0.78626  -0.78129  -0.77758  -0.76909  -0.76845
 Alpha  occ. eigenvalues --   -0.76510  -0.76282  -0.75101  -0.75030  -0.74776
 Alpha  occ. eigenvalues --   -0.74463  -0.72507  -0.72349  -0.71949  -0.71844
 Alpha  occ. eigenvalues --   -0.70900  -0.70853  -0.70169  -0.69802  -0.69389
 Alpha  occ. eigenvalues --   -0.69217  -0.67142  -0.66578  -0.66060  -0.65944
 Alpha  occ. eigenvalues --   -0.64848  -0.63609  -0.63115  -0.62336  -0.62319
 Alpha  occ. eigenvalues --   -0.61846  -0.61291  -0.60697  -0.59856  -0.59503
 Alpha  occ. eigenvalues --   -0.59497  -0.59338  -0.59190  -0.58989  -0.58852
 Alpha  occ. eigenvalues --   -0.58796  -0.56674  -0.56162  -0.54663  -0.54381
 Alpha  occ. eigenvalues --   -0.54190  -0.53675  -0.53331  -0.52999  -0.52818
 Alpha  occ. eigenvalues --   -0.52780  -0.52524  -0.52197  -0.52016  -0.51538
 Alpha  occ. eigenvalues --   -0.50897  -0.50628  -0.50490  -0.50015  -0.49936
 Alpha  occ. eigenvalues --   -0.49644  -0.49505  -0.48897  -0.48561  -0.48238
 Alpha  occ. eigenvalues --   -0.48086  -0.48044  -0.47718  -0.47626  -0.47577
 Alpha  occ. eigenvalues --   -0.47377  -0.47323  -0.47270  -0.47142  -0.47021
 Alpha  occ. eigenvalues --   -0.46666  -0.46467  -0.46175  -0.45894  -0.45589
 Alpha  occ. eigenvalues --   -0.45572  -0.45195  -0.45034  -0.44898  -0.44876
 Alpha  occ. eigenvalues --   -0.44527  -0.44505  -0.44174  -0.43991  -0.43908
 Alpha  occ. eigenvalues --   -0.43832  -0.43818  -0.43594  -0.43418  -0.43411
 Alpha  occ. eigenvalues --   -0.43292  -0.43281  -0.42822  -0.42722  -0.42561
 Alpha  occ. eigenvalues --   -0.42559  -0.42473  -0.42260  -0.42128  -0.42083
 Alpha  occ. eigenvalues --   -0.41499  -0.41396  -0.41330  -0.41297  -0.41201
 Alpha  occ. eigenvalues --   -0.40981  -0.40959  -0.40906  -0.40670  -0.40498
 Alpha  occ. eigenvalues --   -0.40351  -0.40150  -0.39864  -0.39542  -0.39478
 Alpha  occ. eigenvalues --   -0.39258  -0.39181  -0.39076  -0.38762  -0.38721
 Alpha  occ. eigenvalues --   -0.38543  -0.38469  -0.38267  -0.38131  -0.38058
 Alpha  occ. eigenvalues --   -0.37801  -0.37770  -0.37713  -0.37600  -0.37458
 Alpha  occ. eigenvalues --   -0.37268  -0.37250  -0.36852  -0.36830  -0.36815
 Alpha  occ. eigenvalues --   -0.36755  -0.36571  -0.36386  -0.36263  -0.36132
 Alpha  occ. eigenvalues --   -0.36031  -0.36030  -0.35662  -0.35573  -0.35099
 Alpha  occ. eigenvalues --   -0.35089  -0.34734  -0.34683  -0.34126  -0.33729
 Alpha  occ. eigenvalues --   -0.33452  -0.32944  -0.32253  -0.32078  -0.32002
 Alpha  occ. eigenvalues --   -0.31959  -0.31772  -0.31564  -0.31150  -0.31145
 Alpha  occ. eigenvalues --   -0.30640  -0.29917  -0.29269  -0.29203  -0.28964
 Alpha  occ. eigenvalues --   -0.28741  -0.28528  -0.28353  -0.27090  -0.26926
 Alpha  occ. eigenvalues --   -0.25973  -0.25940  -0.25822  -0.25689  -0.25571
 Alpha  occ. eigenvalues --   -0.25465  -0.25251  -0.25063  -0.21042  -0.20780
 Alpha  occ. eigenvalues --   -0.18908  -0.17908
 Alpha virt. eigenvalues --   -0.11129  -0.10245  -0.05863  -0.05335  -0.04221
 Alpha virt. eigenvalues --   -0.04104  -0.02139  -0.01955  -0.00886  -0.00235
 Alpha virt. eigenvalues --    0.00296   0.00487   0.01040   0.01408   0.01687

 Mulliken charges:
               1
     1  Mg  12.000000
     2  C    6.000000
     3  C    6.000000
     4  C    6.000000
     5  C    6.000000
     6  N    7.000000
     7  C    6.000000
     8  C    6.000000
     9  C    6.000000
    10  C    6.000000
    11  C    6.000000
    12  C    6.000000
    13  C    6.000000
    14  H    1.000000
    15  N    7.000000
    16  C    6.000000
    17  C    6.000000
    18  C    6.000000
    19  C    6.000000
    20  C    6.000000
    21  C    6.000000
    22  O    8.000000
    23  C    6.000000
    24  N    7.000000
    25  C    6.000000
    26  C    6.000000
    27  C    6.000000
    28  C    6.000000
    29  C    6.000000
    30  C    6.000000
    31  C    6.000000
    32  N    7.000000
    33  C    6.000000
    34  C    6.000000
    35  C    6.000000
    36  C    6.000000
    37  C    6.000000
    38  C    6.000000
    39  O    8.000000
    40  C    6.000000
    41  C    6.000000
    42  O    8.000000
    43  O    8.000000
    44  C    6.000000
    45  H    1.000000
    46  H    1.000000
    47  H    1.000000
    48  H    1.000000
    49  H    1.000000
    50  H    1.000000
    51  H    1.000000
    52  H    1.000000
    53  H    1.000000
    54  H    1.000000
    55  H    1.000000
    56  H    1.000000
    57  H    1.000000
    58  H    1.000000
    59  H    1.000000
    60  H    1.000000
    61  H    1.000000
    62  H    1.000000
    63  H    1.000000
    64  H    1.000000
    65  H    1.000000
    66  H    1.000000
    67  H    1.000000
    68  H    1.000000
    69  H    1.000000
    70  H    1.000000
    71  H    1.000000
    72  H    1.000000
    73  H    1.000000
    74  H    1.000000
    75  H    1.000000
    76  H    1.000000
    77  H    1.000000
    78  H    1.000000
    79  H    1.000000
    80  Mg  12.000000
    81  C    6.000000
    82  C    6.000000
    83  C    6.000000
    84  C    6.000000
    85  N    7.000000
    86  C    6.000000
    87  C    6.000000
    88  C    6.000000
    89  C    6.000000
    90  C    6.000000
    91  C    6.000000
    92  C    6.000000
    93  H    1.000000
    94  N    7.000000
    95  C    6.000000
    96  C    6.000000
    97  C    6.000000
    98  C    6.000000
    99  C    6.000000
   100  C    6.000000
   101  O    8.000000
   102  C    6.000000
   103  N    7.000000
   104  C    6.000000
   105  C    6.000000
   106  C    6.000000
   107  C    6.000000
   108  C    6.000000
   109  C    6.000000
   110  C    6.000000
   111  N    7.000000
   112  C    6.000000
   113  C    6.000000
   114  C    6.000000
   115  C    6.000000
   116  C    6.000000
   117  C    6.000000
   118  O    8.000000
   119  C    6.000000
   120  C    6.000000
   121  O    8.000000
   122  O    8.000000
   123  C    6.000000
   124  H    1.000000
   125  H    1.000000
   126  H    1.000000
   127  H    1.000000
   128  H    1.000000
   129  H    1.000000
   130  H    1.000000
   131  H    1.000000
   132  H    1.000000
   133  H    1.000000
   134  H    1.000000
   135  H    1.000000
   136  H    1.000000
   137  H    1.000000
   138  H    1.000000
   139  H    1.000000
   140  H    1.000000
   141  H    1.000000
   142  H    1.000000
   143  H    1.000000
   144  H    1.000000
   145  H    1.000000
   146  H    1.000000
   147  H    1.000000
   148  H    1.000000
   149  H    1.000000
   150  H    1.000000
   151  H    1.000000
   152  H    1.000000
   153  H    1.000000
   154  H    1.000000
   155  H    1.000000
   156  H    1.000000
   157  H    1.000000
   158  H    1.000000
 Sum of Mulliken charges = 624.00000

 Dipole moment (field-independent basis, Debye):
    X=             -0.0000    Y=             -0.0000    Z=              0.0000  Tot=              0.0000
 Quadrupole moment (field-independent basis, Debye-Ang):
   XX=             -0.0000   YY=              0.0000   ZZ=             -0.0000
   XY=              0.0000   XZ=             -0.0000   YZ=              0.0000

 Normal termination of Gaussian 16 at Thu Oct 14 11:48:35 2021.
