 Gaussian 16, Revision A.03,
 Gaussian 16:  ES64L-G16RevA.03 25-Dec-2016

 --------------------------------------------------------
 #p PBE1PBE/Def2SVP td=(nstates=5) density=(transition=1)
 --------------------------------------------------------

 --------------------------------
 TDDFT excited states in gaussian
 --------------------------------
 Symbolic Z-matrix:
 Charge =  0 Multiplicity = 1

                         Standard orientation:
 ---------------------------------------------------------------------
 Center     Atomic      Atomic             Coordinates (Angstroms)
 Number     Number       Type             X           Y           Z
 ---------------------------------------------------------------------
      1         12           0        4.939379   -0.550461   -0.159944
      2          6           0        3.384023    2.318072   -1.355661
      3          6           0        7.878536    1.094342   -0.085857
      4          6           0        6.547360   -3.499371    0.236869
      5          6           0        2.047597   -2.394116   -1.050048
      6          7           0        5.439356    1.472530   -0.592312
      7          6           0        4.675112    2.570829   -0.921243
      8          6           0        5.570093    3.832110   -1.068448
      9          6           0        6.985748    3.187581   -1.185394
     10          6           0        6.788639    1.856807   -0.474383
     11          6           0        7.483792    2.958461   -2.655787
     12          6           0        5.214762    4.798051    0.076671
     13          6           0        5.123637    6.219141   -0.331437
     14          1           0        4.364585    7.074713    0.578483
     15          7           0        6.892346   -1.057632    0.263023
     16          6           0        7.947848   -0.204156    0.307542
     17          6           0        9.050078   -0.876368    0.948398
     18          6           0        8.647451   -2.256897    1.049212
     19          6           0        7.326244   -2.333511    0.418963
     20          6           0       10.345942   -0.219380    1.263869
     21          6           0        9.426352   -3.525545    1.527098
     22          8           0        8.920254   -4.649132    1.557141
     23          6           0       10.804629   -3.417680    2.117255
     24          7           0        4.431984   -2.657831   -0.721202
     25          6           0        5.283478   -3.713392   -0.294896
     26          6           0        4.657431   -5.064012   -0.407564
     27          6           0        3.174190   -4.611513   -0.605503
     28          6           0        3.201929   -3.091207   -0.739036
     29          6           0        5.242753   -5.950179   -1.558802
     30          6           0        2.230187   -5.026268    0.581671
     31          6           0        2.719291   -4.631552    1.998482
     32          7           0        3.049133   -0.153377   -0.921904
     33          6           0        1.957262   -0.995317   -1.183951
     34          6           0        0.915891   -0.166910   -1.665109
     35          6           0        1.433897    1.121316   -1.713866
     36          6           0        2.713828    1.065169   -1.269853
     37          6           0       -0.472095   -0.618452   -1.991082
     38          6           0        1.140856    2.415658   -2.118717
     39          8           0        0.095986    2.870470   -2.618957
     40          6           0        2.379027    3.339782   -1.914395
     41          6           0        1.861537    4.421542   -0.915614
     42          8           0        1.576546    4.223609    0.278914
     43          8           0        1.773798    5.629855   -1.598449
     44          6           0        1.064942    6.770649   -0.936131
     45          1           0        8.778288    1.703344   -0.196178
     46          1           0        6.853058   -4.525112    0.456605
     47          1           0        1.070572   -2.873319   -1.141455
     48          1           0        5.291506    4.391345   -1.960981
     49          1           0        7.693801    3.774823   -0.601416
     50          1           0        6.837292    3.338678   -3.447236
     51          1           0        7.514528    1.894583   -2.887487
     52          1           0        8.433258    3.477121   -2.786887
     53          1           0        6.062214    4.763076    0.759859
     54          1           0        4.288910    4.444451    0.531203
     55          1           0        4.578748    6.217898   -1.275612
     56          1           0        6.129848    6.585214   -0.534524
     57          1           0       10.249018    0.865998    1.281151
     58          1           0       11.114949   -0.664981    0.631967
     59          1           0       10.635237   -0.470343    2.284431
     60          1           0       11.249734   -4.397512    1.942813
     61          1           0       10.754200   -3.260448    3.194921
     62          1           0       11.410795   -2.667537    1.608418
     63          1           0        4.712211   -5.654565    0.508030
     64          1           0        2.798523   -5.043830   -1.533468
     65          1           0        5.733998   -5.303879   -2.286680
     66          1           0        4.532561   -6.556898   -2.120824
     67          1           0        5.991369   -6.685208   -1.261756
     68          1           0        2.058458   -6.096183    0.462576
     69          1           0        1.280730   -4.559236    0.320136
     70          1           0        2.016199   -3.981347    2.519437
     71          1           0        3.684346   -4.140794    1.869244
     72          1           0        2.869953   -5.494363    2.646606
     73          1           0       -0.644073   -0.318335   -3.024704
     74          1           0       -1.149112   -0.148490   -1.277736
     75          1           0       -0.628952   -1.697118   -1.979719
     76          1           0        2.605478    3.818501   -2.866731
     77          1           0        0.044800    6.429852   -0.760759
     78          1           0        1.009117    7.715490   -1.476654
     79          1           0        1.687268    6.807981   -0.041986
     80         12           0       -4.951703   -0.654867    0.055489
     81          6           0       -3.024403    2.161937    0.848314
     82          6           0       -7.828601    1.404023    0.198400
     83          6           0       -6.875844   -3.420565   -0.366502
     84          6           0       -2.190770   -2.633535    0.674477
     85          7           0       -5.302823    1.518645    0.309413
     86          6           0       -4.297187    2.480169    0.444193
     87          6           0       -4.893677    3.897363    0.121039
     88          6           0       -6.396387    3.610937    0.020267
     89          6           0       -6.541003    2.064214    0.237490
     90          6           0       -7.174722    4.419405    1.093025
     91          6           0       -4.221752    4.432341   -1.137656
     92          6           0       -4.111565    5.939175   -1.303483
     93          1           0       -4.949607    6.841046   -0.369295
     94          7           0       -7.050617   -1.012640   -0.085943
     95          6           0       -8.061552   -0.039493    0.028363
     96          6           0       -9.374356   -0.652308   -0.073633
     97          6           0       -9.172820   -2.068780   -0.311579
     98          6           0       -7.656091   -2.219182   -0.241370
     99          6           0      -10.692603    0.130524   -0.125021
    100          6           0      -10.167773   -3.184296   -0.568348
    101          8           0       -9.776970   -4.326972   -0.766510
    102          6           0      -11.588948   -2.831062   -0.785717
    103          7           0       -4.532342   -2.745219    0.082105
    104          6           0       -5.485798   -3.672434   -0.212180
    105          6           0       -4.830409   -5.071649   -0.348889
    106          6           0       -3.295568   -4.824946   -0.078050
    107          6           0       -3.273732   -3.290027    0.141027
    108          6           0       -5.483544   -6.066615    0.627110
    109          6           0       -2.355314   -5.202164   -1.253526
    110          6           0       -1.696443   -6.545740   -0.956868
    111          7           0       -2.993632   -0.404166    0.748852
    112          6           0       -1.988679   -1.268636    1.029463
    113          6           0       -0.910643   -0.493993    1.690925
    114          6           0       -1.208667    0.829817    1.550703
    115          6           0       -2.518809    0.823398    1.007484
    116          6           0        0.354245   -1.166871    2.196917
    117          6           0       -0.754620    2.214550    1.735905
    118          8           0        0.289219    2.627761    2.226314
    119          6           0       -1.880809    3.080422    1.205116
    120          6           0       -2.153679    4.063611    2.265307
    121          8           0       -2.779870    3.943117    3.326957
    122          8           0       -1.500223    5.230180    1.924478
    123          6           0       -1.578337    6.320413    2.872328
    124          1           0       -8.682156    2.084203    0.170036
    125          1           0       -7.555708   -4.240380   -0.607775
    126          1           0       -1.394019   -3.333244    0.935628
    127          1           0       -4.621918    4.434850    1.030336
    128          1           0       -6.719593    4.052737   -0.922260
    129          1           0       -7.617200    3.819973    1.888816
    130          1           0       -8.088701    4.760049    0.607329
    131          1           0       -6.552481    5.175769    1.570994
    132          1           0       -4.762383    3.950129   -1.952650
    133          1           0       -3.228140    3.993110   -1.218442
    134          1           0       -4.322474    6.190001   -2.342174
    135          1           0       -3.043388    6.089326   -1.142890
    136          1           0      -10.583183    1.195335    0.081535
    137          1           0      -11.392114   -0.273387    0.608073
    138          1           0      -11.172891   -0.062875   -1.083471
    139          1           0      -11.664234   -2.246633   -1.703048
    140          1           0      -12.036738   -2.428447    0.122814
    141          1           0      -12.194487   -3.709194   -1.010224
    142          1           0       -5.045844   -5.437176   -1.352660
    143          1           0       -3.091041   -5.330173    0.866791
    144          1           0       -4.820467   -6.561826    1.335883
    145          1           0       -5.821426   -6.812762   -0.091738
    146          1           0       -6.237358   -5.631381    1.282585
    147          1           0       -1.474743   -4.559504   -1.252647
    148          1           0       -2.855412   -5.241823   -2.221405
    149          1           0       -1.818863   -7.101149   -1.886599
    150          1           0       -2.240422   -7.163576   -0.242808
    151          1           0       -0.644831   -6.499656   -0.672498
    152          1           0        0.313480   -2.255008    2.252314
    153          1           0        0.659537   -0.802572    3.177062
    154          1           0        1.132681   -1.034202    1.444733
    155          1           0       -1.529926    3.552488    0.288011
    156          1           0       -1.291895    5.928308    3.848525
    157          1           0       -2.573828    6.757620    2.952502
    158          1           0       -0.695807    6.924996    2.666003
 ---------------------------------------------------------------------

 SCF Done:  E(RPBE1PBE) =  -4067.37996882     A.U. after   17 cycles

 Excitation energies and oscillator strengths:

 Excited State   1:      Singlet-A      1.4344 eV  864.36 nm  f=0.0042  <S**2>=0.000
     312 -> 313        0.70576
 This state for optimization and/or second-order correction.
 Total Energy, E(TD-HF/TD-DFT) =  -4067.32725554
 Copying the excited state density for this state as the 1-particle RhoCI density.

 Excited State   2:      Singlet-A      1.7720 eV  699.68 nm  f=0.8384  <S**2>=0.000
     309 -> 315        0.10352
     311 -> 313        0.53225
     312 -> 314        0.44149

 Excited State   3:      Singlet-A      1.8288 eV  677.96 nm  f=0.0424  <S**2>=0.000
     311 -> 314        0.68043
     312 -> 314       -0.18227

 Excited State   4:      Singlet-A      1.8560 eV  668.03 nm  f=0.0160  <S**2>=0.000
     309 -> 315       -0.10808
     310 -> 316       -0.12430
     311 -> 313       -0.44916
     311 -> 314        0.16198
     312 -> 314        0.50280

 Excited State   5:      Singlet-A      2.0410 eV  607.47 nm  f=0.0003  <S**2>=0.000
     310 -> 313        0.70536

 The electronic state is 1-A.
 Alpha  occ. eigenvalues --  -46.92095 -46.91627 -19.25172 -19.24465 -19.19772
 Alpha  occ. eigenvalues --  -19.19355 -19.18947 -19.18901 -19.18549 -19.18021
 Alpha  occ. eigenvalues --  -14.41462 -14.41278 -14.40904 -14.40898 -14.39296
 Alpha  occ. eigenvalues --  -14.38967 -14.38525 -14.38108 -10.36639 -10.35675
 Alpha  occ. eigenvalues --  -10.32421 -10.32080 -10.31547 -10.30834 -10.29111
 Alpha  occ. eigenvalues --  -10.29048 -10.28567 -10.28486 -10.28301 -10.28225
 Alpha  occ. eigenvalues --  -10.28141 -10.28118 -10.28003 -10.27965 -10.27870
 Alpha  occ. eigenvalues --  -10.27729 -10.27727 -10.26977 -10.26902 -10.26895
 Alpha  occ. eigenvalues --  -10.26592 -10.26036 -10.25998 -10.25995 -10.25963
 Alpha  occ. eigenvalues --  -10.25835 -10.25694 -10.25580 -10.25467 -10.25414
 Alpha  occ. eigenvalues --  -10.25411 -10.25378 -10.25211 -10.25200 -10.25168
 Alpha  occ. eigenvalues --  -10.25152 -10.25039 -10.24997 -10.24985 -10.24980
 Alpha  occ. eigenvalues --  -10.24938 -10.24927 -10.24615 -10.24551 -10.24416
 Alpha  occ. eigenvalues --  -10.24342 -10.24257 -10.24126 -10.24082 -10.23944
 Alpha  occ. eigenvalues --  -10.23836 -10.23564 -10.23546 -10.23475 -10.23413
 Alpha  occ. eigenvalues --  -10.23344 -10.23185 -10.23184 -10.23059 -10.22631
 Alpha  occ. eigenvalues --  -10.22604 -10.22581 -10.22558 -10.22539 -10.22137
 Alpha  occ. eigenvalues --  -10.21295  -3.14081  -3.13804  -1.86934  -1.86623
 Alpha  occ. eigenvalues --   -1.86414  -1.86335  -1.86182  -1.86030  -1.09877
 Alpha  occ. eigenvalues --   -1.08857  -1.04681  -1.04186  -1.03677  -1.02743
 Alpha  occ. eigenvalues --   -1.01076  -1.01006  -0.99396  -0.98733  -0.98552
 Alpha  occ. eigenvalues --   -0.98138  -0.97061  -0.96762  -0.96741  -0.95778
 Alpha  occ. eigenvalues --   -0.87080  -0.86812  -0.83418  -0.83155  -0.82979
 Alpha  occ. eigenvalues --   -0.82959  -0.82898  -0.82132  -0.81870  -0.81346
 Alpha  occ. eigenvalues --   -0.81019  -0.80759  -0.80647  -0.79482  -0.78788
 Alpha  occ. eigenvalues --   -0.78114  -0.77871  -0.77786  -0.76551  -0.76468
 Alpha  occ. eigenvalues --   -0.76100  -0.75752  -0.75139  -0.74773  -0.74624
 Alpha  occ. eigenvalues --   -0.73950  -0.72472  -0.71883  -0.71388  -0.71259
 Alpha  occ. eigenvalues --   -0.71075  -0.70615  -0.70246  -0.69871  -0.69802
 Alpha  occ. eigenvalues --   -0.68551  -0.67552  -0.66569  -0.66440  -0.65039
 Alpha  occ. eigenvalues --   -0.64225  -0.63153  -0.62930  -0.62755  -0.61904
 Alpha  occ. eigenvalues --   -0.61880  -0.60972  -0.60845  -0.59793  -0.59611
 Alpha  occ. eigenvalues --   -0.59025  -0.58914  -0.58784  -0.58702  -0.58581
 Alpha  occ. eigenvalues --   -0.57975  -0.56135  -0.56024  -0.54421  -0.54207
 Alpha  occ. eigenvalues --   -0.54191  -0.53752  -0.53684  -0.53077  -0.53010
 Alpha  occ. eigenvalues --   -0.52603  -0.52522  -0.52126  -0.51817  -0.51159
 Alpha  occ. eigenvalues --   -0.50545  -0.50131  -0.50065  -0.49872  -0.49837
 Alpha  occ. eigenvalues --   -0.49349  -0.49203  -0.49053  -0.48833  -0.48156
 Alpha  occ. eigenvalues --   -0.47914  -0.47723  -0.47561  -0.47451  -0.47436
 Alpha  occ. eigenvalues --   -0.47301  -0.47289  -0.47056  -0.46966  -0.46939
 Alpha  occ. eigenvalues --   -0.46487  -0.46371  -0.46131  -0.45922  -0.45821
 Alpha  occ. eigenvalues --   -0.45510  -0.45125  -0.44910  -0.44858  -0.44490
 Alpha  occ. eigenvalues --   -0.44010  -0.43989  -0.43866  -0.43842  -0.43786
 Alpha  occ. eigenvalues --   -0.43513  -0.43394  -0.43314  -0.43308  -0.43149
 Alpha  occ. eigenvalues --   -0.42911  -0.42719  -0.42704  -0.42646  -0.42549
 Alpha  occ. eigenvalues --   -0.42320  -0.42065  -0.41910  -0.41876  -0.41552
 Alpha  occ. eigenvalues --   -0.41353  -0.41241  -0.40994  -0.40824  -0.40646
 Alpha  occ. eigenvalues --   -0.40598  -0.40472  -0.40326  -0.40202  -0.40136
 Alpha  occ. eigenvalues --   -0.39571  -0.39305  -0.39221  -0.39099  -0.39068
 Alpha  occ. eigenvalues --   -0.38922  -0.38861  -0.38661  -0.38510  -0.38435
 Alpha  occ. eigenvalues --   -0.38263  -0.38119  -0.38009  -0.37826  -0.37762
 Alpha  occ. eigenvalues --   -0.37738  -0.37553  -0.37492  -0.37417  -0.37141
 Alpha  occ. eigenvalues --   -0.37006  -0.36921  -0.36750  -0.36719  -0.36671
 Alpha  occ. eigenvalues --   -0.36495  -0.36384  -0.36157  -0.35941  -0.35823
 Alpha  occ. eigenvalues --   -0.35689  -0.35311  -0.35174  -0.35095  -0.34868
 Alpha  occ. eigenvalues --   -0.34725  -0.34218  -0.33858  -0.33482  -0.33288
 Alpha  occ. eigenvalues --   -0.33222  -0.32915  -0.32847  -0.32464  -0.32350
 Alpha  occ. eigenvalues --   -0.32170  -0.31832  -0.31557  -0.31129  -0.30700
 Alpha  occ. eigenvalues --   -0.30578  -0.30542  -0.29250  -0.28961  -0.28907
 Alpha  occ. eigenvalues --   -0.28423  -0.28345  -0.27794  -0.26912  -0.26444
 Alpha  occ. eigenvalues --   -0.25829  -0.25675  -0.25604  -0.25231  -0.25218
 Alpha  occ. eigenvalues --   -0.25022  -0.24963  -0.24875  -0.21096  -0.20301
 Alpha  occ. eigenvalues --   -0.18791  -0.18176
 Alpha virt. eigenvalues --   -0.11388  -0.10677  -0.05099  -0.04690  -0.03660
 Alpha virt. eigenvalues --   -0.03311  -0.02130  -0.01795  -0.00333   0.00061
 Alpha virt. eigenvalues --    0.00598   0.00777   0.01245   0.01570   0.01903

 Mulliken charges:
               1
     1  Mg  11.999229
     2  C    5.999494
     3  C    5.999697
     4  C    6.000367
     5  C    5.999730
     6  N    6.999471
     7  C    6.000402
     8  C    5.999943
     9  C    6.000204
    10  C    5.999545
    11  C    6.000218
    12  C    6.000011
    13  C    6.000138
    14  H    0.999553
    15  N    7.000260
    16  C    5.999140
    17  C    5.999280
    18  C    5.999628
    19  C    5.998984
    20  C    6.000184
    21  C    5.999647
    22  O    7.999085
    23  C    6.000214
    24  N    7.000268
    25  C    5.999030
    26  C    6.000435
    27  C    5.999947
    28  C    6.000385
    29  C    6.000102
    30  C    6.000132
    31  C    6.000001
    32  N    6.999769
    33  C    6.001361
    34  C    5.999505
    35  C    5.999164
    36  C    6.000756
    37  C    6.000859
    38  C    5.999629
    39  O    7.998871
    40  C    6.000214
    41  C    5.999808
    42  O    8.000095
    43  O    7.999924
    44  C    6.000034
    45  H    0.999305
    46  H    0.999536
    47  H    0.999907
    48  H    0.999753
    49  H    0.999677
    50  H    0.999470
    51  H    0.999964
    52  H    0.999618
    53  H    1.000037
    54  H    0.999912
    55  H    0.999905
    56  H    0.999924
    57  H    0.999524
    58  H    0.999303
    59  H    0.999319
    60  H    0.999422
    61  H    0.999540
    62  H    0.999802
    63  H    0.999672
    64  H    0.999660
    65  H    0.999968
    66  H    0.999414
    67  H    0.999825
    68  H    0.999696
    69  H    0.999368
    70  H    1.000026
    71  H    1.000497
    72  H    0.999725
    73  H    0.998413
    74  H    0.998681
    75  H    0.999152
    76  H    0.999677
    77  H    0.999710
    78  H    0.999762
    79  H    1.000025
    80  Mg  12.000863
    81  C    6.001554
    82  C    6.000889
    83  C    5.998946
    84  C    5.998873
    85  N    7.000652
    86  C    5.999452
    87  C    5.999874
    88  C    5.999477
    89  C    6.000994
    90  C    5.999797
    91  C    6.000458
    92  C    5.999780
    93  H    0.999829
    94  N    6.999659
    95  C    6.001299
    96  C    6.001048
    97  C    6.000498
    98  C    6.001907
    99  C    5.999804
   100  C    6.000694
   101  O    8.001281
   102  C    5.999541
   103  N    6.999079
   104  C    6.002170
   105  C    5.999584
   106  C    5.999982
   107  C    6.001622
   108  C    5.999681
   109  C    5.999624
   110  C    5.999950
   111  N    6.999445
   112  C    6.002739
   113  C    5.994902
   114  C    6.001874
   115  C    5.998557
   116  C    6.001111
   117  C    5.999439
   118  O    7.999149
   119  C    6.000018
   120  C    5.999865
   121  O    7.999580
   122  O    8.000172
   123  C    5.999973
   124  H    1.001123
   125  H    1.000465
   126  H    1.000494
   127  H    1.000513
   128  H    1.000610
   129  H    1.000026
   130  H    1.000197
   131  H    1.000850
   132  H    0.999684
   133  H    1.000373
   134  H    1.000098
   135  H    1.000505
   136  H    1.000776
   137  H    1.000976
   138  H    1.000969
   139  H    1.000441
   140  H    1.000448
   141  H    1.000893
   142  H    1.000550
   143  H    1.000576
   144  H    1.000761
   145  H    1.000423
   146  H    1.000028
   147  H    1.000933
   148  H    1.000111
   149  H    1.000163
   150  H    0.999898
   151  H    1.000635
   152  H    0.999236
   153  H    0.999691
   154  H    1.000030
   155  H    0.999974
   156  H    1.000082
   157  H    0.999701
   158  H    1.000179
 Sum of Mulliken charges = 624.00000

 Dipole moment (field-independent basis, Debye):
    X=             -1.2437    Y=             -0.1101    Z=             -0.0306  Tot=              1.2489
 Quadrupole moment (field-independent basis, Debye-Ang):
   XX=              2.6307   YY=              0.1551   ZZ=             -0.3107
   XY=              1.3381   XZ=             -0.1556   YZ=              0.2667

 Normal termination of Gaussian 16 at Thu Oct 14 16:38:49 2021.
