 Gaussian 16, Revision A.03,
 Gaussian 16:  ES64L-G16RevA.03 25-Dec-2016

 --------------------------------------------------------
 #p PBE1PBE/Def2SVP td=(nstates=5) density=(transition=1)
 --------------------------------------------------------

 --------------------------------
 TDDFT excited states in gaussian
 --------------------------------
 Symbolic Z-matrix:
 Charge =  0 Multiplicity = 1

                         Standard orientation:
 ---------------------------------------------------------------------
 Center     Atomic      Atomic             Coordinates (Angstroms)
 Number     Number       Type             X           Y           Z
 ---------------------------------------------------------------------
      1         12           0      -30.172104   -0.550092    0.440698
      2          6           0      -29.542218    2.269982   -1.384778
      3          6           0      -29.552073   -2.491518   -2.195348
      4          6           0      -31.031718   -3.095419    2.285939
      5          6           0      -31.382875    1.633568    2.983966
      6          7           0      -29.766231   -0.148118   -1.653045
      7          6           0      -29.297651    1.053519   -2.073184
      8          6           0      -28.536659    0.938235   -3.365576
      9          6           0      -28.812202   -0.573721   -3.738213
     10          6           0      -29.493342   -1.110792   -2.498140
     11          6           0      -29.599974   -0.781689   -5.053936
     12          6           0      -26.959876    1.409514   -3.270503
     13          6           0      -26.406241    2.344259   -4.356775
     14          1           0      -27.132038    2.329363   -5.738765
     15          7           0      -30.111497   -2.449973    0.161562
     16          6           0      -29.842381   -3.130890   -0.982828
     17          6           0      -30.045071   -4.553905   -0.859651
     18          6           0      -30.270066   -4.758475    0.468156
     19          6           0      -30.600627   -3.398835    0.997255
     20          6           0      -29.988013   -5.375433   -2.134566
     21          6           0      -30.402378   -6.090982    1.232052
     22          8           0      -30.665053   -6.173929    2.409270
     23          6           0      -30.211088   -7.305493    0.372429
     24          7           0      -31.245534   -0.664418    2.308890
     25          6           0      -31.337527   -1.878582    2.880648
     26          6           0      -31.890950   -1.771774    4.305101
     27          6           0      -31.702307   -0.253198    4.639930
     28          6           0      -31.451903    0.301016    3.222399
     29          6           0      -33.364055   -2.294833    4.584563
     30          6           0      -30.483822    0.112573    5.568710
     31          6           0      -29.059032   -0.225198    5.216396
     32          7           0      -30.371761    1.526980    0.861642
     33          6           0      -30.956133    2.287686    1.879475
     34          6           0      -30.867353    3.726289    1.598556
     35          6           0      -30.302967    3.769105    0.314862
     36          6           0      -30.035265    2.411207   -0.046599
     37          6           0      -31.233780    4.879402    2.497215
     38          6           0      -29.896685    4.594669   -0.728504
     39          8           0      -29.946792    5.801784   -0.905878
     40          6           0      -29.175278    3.697019   -1.766942
     41          6           0      -29.762730    4.154429   -3.047087
     42          8           0      -30.864028    3.818518   -3.489276
     43          8           0      -28.976507    5.098953   -3.640748
     44          6           0      -29.514695    5.890993   -4.751215
     45          1           0      -29.156799   -3.097879   -3.013265
     46          1           0      -31.287971   -3.897543    2.980136
     47          1           0      -31.745354    2.178326    3.859072
     48          1           0      -29.027337    1.510934   -4.152639
     49          1           0      -27.859854   -1.100500   -3.794474
     50          1           0      -30.631958   -1.033940   -4.810362
     51          1           0      -29.160512   -1.623141   -5.589619
     52          1           0      -29.543772    0.160122   -5.599901
     53          1           0      -26.394296    0.477682   -3.278101
     54          1           0      -26.779849    1.953459   -2.343780
     55          1           0      -25.394361    2.045866   -4.629639
     56          1           0      -26.308510    3.354311   -3.959032
     57          1           0      -30.735658   -5.118891   -2.885271
     58          1           0      -30.250687   -6.433076   -2.122804
     59          1           0      -28.946344   -5.233227   -2.422393
     60          1           0      -29.246204   -7.271173   -0.132905
     61          1           0      -31.105742   -7.279463   -0.249332
     62          1           0      -30.147011   -8.282621    0.849861
     63          1           0      -31.221774   -2.439282    4.849168
     64          1           0      -32.656039    0.149163    4.982122
     65          1           0      -33.789253   -2.689824    3.662224
     66          1           0      -34.028647   -1.465909    4.825177
     67          1           0      -33.477524   -3.023152    5.388990
     68          1           0      -30.798122   -0.394011    6.481587
     69          1           0      -30.426138    1.181867    5.769627
     70          1           0      -29.044800   -0.877043    4.341923
     71          1           0      -28.586738   -0.780842    6.026377
     72          1           0      -28.419944    0.607981    4.924707
     73          1           0      -32.141114    5.387051    2.172913
     74          1           0      -30.408321    5.590211    2.539135
     75          1           0      -31.474802    4.386205    3.439232
     76          1           0      -28.090938    3.785879   -1.698029
     77          1           0      -29.021794    6.859550   -4.843106
     78          1           0      -30.603308    5.916264   -4.744379
     79          1           0      -29.371678    5.407375   -5.717355
     80         12           0       30.506382    0.571961   -0.233623
     81          6           0       28.270688   -1.995524   -0.815967
     82          6           0       27.851042    2.534627    0.739742
     83          6           0       32.751065    2.907575    0.908964
     84          6           0       33.118769   -1.489872   -1.114229
     85          7           0       28.362624    0.244328    0.130500
     86          6           0       27.676237   -0.888449   -0.260364
     87          6           0       26.174788   -0.755042   -0.020229
     88          6           0       26.033144    0.803601    0.149169
     89          6           0       27.480119    1.203969    0.397279
     90          6           0       25.284596    1.602360   -1.011817
     91          6           0       25.578388   -1.610810    1.142488
     92          6           0       24.287243   -2.336990    0.829162
     93          1           0       23.103434   -1.753740    1.584953
     94          7           0       30.291575    2.418980    0.693946
     95          6           0       29.148162    3.052989    0.977367
     96          6           0       29.411825    4.375760    1.516792
     97          6           0       30.776382    4.590705    1.615505
     98          6           0       31.359426    3.272321    1.115243
     99          6           0       28.242735    5.355995    2.007139
    100          6           0       31.496078    5.907942    2.062062
    101          8           0       30.790986    6.877132    2.462221
    102          6           0       32.971770    6.029394    2.076277
    103          7           0       32.713821    0.613657    0.118608
    104          6           0       33.374775    1.708287    0.417445
    105          6           0       34.851353    1.609801    0.095806
    106          6           0       35.086916    0.173691   -0.483569
    107          6           0       33.552908   -0.281104   -0.588669
    108          6           0       35.580650    2.802409   -0.601345
    109          6           0       35.945334   -0.863265    0.297268
    110          6           0       36.413283   -2.015198   -0.567869
    111          7           0       30.678725   -1.394699   -0.844091
    112          6           0       31.828969   -2.102946   -1.262405
    113          6           0       31.401102   -3.379751   -1.765550
    114          6           0       29.989562   -3.398354   -1.651856
    115          6           0       29.654074   -2.187582   -1.052309
    116          6           0       32.254838   -4.389613   -2.517974
    117          6           0       28.888154   -4.179197   -1.928077
    118          8           0       28.708471   -5.300889   -2.317420
    119          6           0       27.675048   -3.353795   -1.249940
    120          6           0       27.425773   -4.085677    0.067922
    121          8           0       28.076519   -3.954517    1.086700
    122          8           0       26.343116   -4.924744   -0.140849
    123          6           0       25.997574   -5.807428    0.968704
    124          1           0       27.049109    3.264376    0.868196
    125          1           0       33.407334    3.697822    1.278633
    126          1           0       33.824200   -2.198717   -1.552789
    127          1           0       25.672447   -1.010949   -0.952659
    128          1           0       25.594712    0.969286    1.133929
    129          1           0       25.696496    2.603758   -0.887235
    130          1           0       24.219067    1.753258   -0.836904
    131          1           0       25.406823    1.224907   -2.026954
    132          1           0       25.412802   -0.875152    1.929826
    133          1           0       26.266146   -2.265219    1.677663
    134          1           0       24.434936   -3.385274    1.089753
    135          1           0       24.024114   -2.284154   -0.227466
    136          1           0       27.233797    4.947134    1.938175
    137          1           0       28.265660    6.289849    1.444460
    138          1           0       28.282004    5.567611    3.074780
    139          1           0       33.359188    5.872804    1.070051
    140          1           0       33.416665    5.430890    2.871347
    141          1           0       33.143803    7.098608    2.193520
    142          1           0       35.513721    1.507735    0.955676
    143          1           0       35.313151    0.185800   -1.550026
    144          1           0       34.892723    3.646995   -0.542742
    145          1           0       35.949136    2.570526   -1.601282
    146          1           0       36.480489    3.139267   -0.086441
    147          1           0       35.341728   -1.169405    1.151583
    148          1           0       36.763103   -0.273911    0.711890
    149          1           0       37.376482   -2.346148   -0.178708
    150          1           0       36.556374   -1.778755   -1.622917
    151          1           0       35.751929   -2.867339   -0.410926
    152          1           0       31.682381   -5.192221   -2.983051
    153          1           0       32.989978   -4.784743   -1.818072
    154          1           0       32.824221   -3.910505   -3.314521
    155          1           0       26.832414   -3.251132   -1.934394
    156          1           0       26.806697   -6.519602    1.131498
    157          1           0       25.043165   -6.307357    0.807127
    158          1           0       25.934662   -5.225760    1.887949
 ---------------------------------------------------------------------

 SCF Done:  E(RPBE1PBE) =  -4067.36638768     A.U. after   17 cycles

 Excitation energies and oscillator strengths:

 Excited State   1:      Singlet-A      1.8858 eV  657.46 nm  f=0.3490  <S**2>=0.000
     309 -> 315        0.14501
     311 -> 313        0.69230
 This state for optimization and/or second-order correction.
 Total Energy, E(TD-HF/TD-DFT) =  -4067.29708597
 Copying the excited state density for this state as the 1-particle RhoCI density.

 Excited State   2:      Singlet-A      1.8928 eV  655.03 nm  f=0.0000  <S**2>=0.000
     312 -> 313        0.70711

 Excited State   3:      Singlet-A      1.8950 eV  654.27 nm  f=0.3738  <S**2>=0.000
     310 -> 316        0.18685
     312 -> 314        0.68799

 Excited State   4:      Singlet-A      2.2569 eV  549.35 nm  f=0.0000  <S**2>=0.000
     311 -> 314        0.70711

 Excited State   5:      Singlet-A      2.2581 eV  549.07 nm  f=0.0666  <S**2>=0.000
     310 -> 314        0.63626
     312 -> 316       -0.29841

 The electronic state is 1-A.
 Alpha  occ. eigenvalues --  -46.92803 -46.91358 -19.25331 -19.24614 -19.20283
 Alpha  occ. eigenvalues --  -19.20084 -19.19926 -19.18639 -19.18483 -19.18089
 Alpha  occ. eigenvalues --  -14.41729 -14.41595 -14.41174 -14.40562 -14.39986
 Alpha  occ. eigenvalues --  -14.39535 -14.38489 -14.38427 -10.36310 -10.35319
 Alpha  occ. eigenvalues --  -10.33838 -10.32897 -10.30952 -10.30823 -10.30231
 Alpha  occ. eigenvalues --  -10.29693 -10.29021 -10.28549 -10.28485 -10.28314
 Alpha  occ. eigenvalues --  -10.28290 -10.28129 -10.28076 -10.27924 -10.27856
 Alpha  occ. eigenvalues --  -10.27828 -10.27515 -10.26928 -10.26874 -10.26849
 Alpha  occ. eigenvalues --  -10.26727 -10.26541 -10.26373 -10.26291 -10.26134
 Alpha  occ. eigenvalues --  -10.26059 -10.26025 -10.25936 -10.25843 -10.25736
 Alpha  occ. eigenvalues --  -10.25695 -10.25537 -10.25487 -10.25417 -10.25415
 Alpha  occ. eigenvalues --  -10.25408 -10.25334 -10.25274 -10.25273 -10.25235
 Alpha  occ. eigenvalues --  -10.25146 -10.25128 -10.25033 -10.25009 -10.24569
 Alpha  occ. eigenvalues --  -10.24563 -10.24545 -10.24536 -10.24515 -10.24462
 Alpha  occ. eigenvalues --  -10.24295 -10.24081 -10.23974 -10.23845 -10.23652
 Alpha  occ. eigenvalues --  -10.23639 -10.23519 -10.23480 -10.23464 -10.23349
 Alpha  occ. eigenvalues --  -10.23132 -10.23127 -10.22727 -10.22647 -10.22017
 Alpha  occ. eigenvalues --  -10.21450  -3.14824  -3.13785  -1.87647  -1.87202
 Alpha  occ. eigenvalues --   -1.87051  -1.86592  -1.86175  -1.86042  -1.10378
 Alpha  occ. eigenvalues --   -1.09658  -1.06076  -1.05045  -1.03916  -1.03492
 Alpha  occ. eigenvalues --   -1.02900  -1.00781  -1.00140  -0.99275  -0.99174
 Alpha  occ. eigenvalues --   -0.98839  -0.98386  -0.97908  -0.97782  -0.97220
 Alpha  occ. eigenvalues --   -0.86818  -0.86243  -0.83792  -0.83482  -0.82771
 Alpha  occ. eigenvalues --   -0.82691  -0.82274  -0.82246  -0.82185  -0.81817
 Alpha  occ. eigenvalues --   -0.81387  -0.81015  -0.80585  -0.80369  -0.78659
 Alpha  occ. eigenvalues --   -0.78635  -0.77942  -0.77896  -0.77242  -0.76873
 Alpha  occ. eigenvalues --   -0.76719  -0.76362  -0.75402  -0.75201  -0.74826
 Alpha  occ. eigenvalues --   -0.74610  -0.73212  -0.71992  -0.71855  -0.71357
 Alpha  occ. eigenvalues --   -0.71317  -0.70939  -0.70030  -0.69761  -0.69545
 Alpha  occ. eigenvalues --   -0.69491  -0.67153  -0.66951  -0.66124  -0.66114
 Alpha  occ. eigenvalues --   -0.64095  -0.63997  -0.63492  -0.63432  -0.62633
 Alpha  occ. eigenvalues --   -0.62492  -0.61661  -0.61621  -0.60035  -0.59920
 Alpha  occ. eigenvalues --   -0.59837  -0.59478  -0.59255  -0.59227  -0.58720
 Alpha  occ. eigenvalues --   -0.58339  -0.56407  -0.56354  -0.55544  -0.54366
 Alpha  occ. eigenvalues --   -0.54158  -0.53920  -0.53811  -0.53578  -0.52999
 Alpha  occ. eigenvalues --   -0.52577  -0.52537  -0.52378  -0.52127  -0.52077
 Alpha  occ. eigenvalues --   -0.50843  -0.50839  -0.50139  -0.49872  -0.49704
 Alpha  occ. eigenvalues --   -0.49628  -0.49176  -0.48729  -0.48729  -0.48351
 Alpha  occ. eigenvalues --   -0.48216  -0.48104  -0.48036  -0.47816  -0.47773
 Alpha  occ. eigenvalues --   -0.47305  -0.47223  -0.47042  -0.46888  -0.46832
 Alpha  occ. eigenvalues --   -0.46616  -0.46211  -0.46151  -0.45826  -0.45717
 Alpha  occ. eigenvalues --   -0.45485  -0.45245  -0.45235  -0.44981  -0.44845
 Alpha  occ. eigenvalues --   -0.44759  -0.44551  -0.44276  -0.44002  -0.43988
 Alpha  occ. eigenvalues --   -0.43931  -0.43755  -0.43731  -0.43411  -0.43389
 Alpha  occ. eigenvalues --   -0.43264  -0.43154  -0.42877  -0.42725  -0.42662
 Alpha  occ. eigenvalues --   -0.42391  -0.42267  -0.42028  -0.41855  -0.41614
 Alpha  occ. eigenvalues --   -0.41494  -0.41346  -0.41272  -0.41244  -0.41049
 Alpha  occ. eigenvalues --   -0.40829  -0.40609  -0.40526  -0.40255  -0.40094
 Alpha  occ. eigenvalues --   -0.40050  -0.40034  -0.39939  -0.39670  -0.39584
 Alpha  occ. eigenvalues --   -0.39452  -0.39277  -0.38888  -0.38877  -0.38813
 Alpha  occ. eigenvalues --   -0.38715  -0.38619  -0.38521  -0.38257  -0.38113
 Alpha  occ. eigenvalues --   -0.37937  -0.37866  -0.37750  -0.37685  -0.37512
 Alpha  occ. eigenvalues --   -0.37391  -0.37212  -0.37190  -0.37081  -0.37063
 Alpha  occ. eigenvalues --   -0.36870  -0.36764  -0.36467  -0.36423  -0.36090
 Alpha  occ. eigenvalues --   -0.35922  -0.35857  -0.35637  -0.35416  -0.35373
 Alpha  occ. eigenvalues --   -0.35106  -0.34907  -0.34487  -0.34198  -0.34156
 Alpha  occ. eigenvalues --   -0.33963  -0.33468  -0.33186  -0.33042  -0.32449
 Alpha  occ. eigenvalues --   -0.32072  -0.31557  -0.31505  -0.31427  -0.31379
 Alpha  occ. eigenvalues --   -0.30490  -0.30116  -0.29656  -0.29580  -0.29271
 Alpha  occ. eigenvalues --   -0.28730  -0.28709  -0.27867  -0.27682  -0.27227
 Alpha  occ. eigenvalues --   -0.26777  -0.26401  -0.26355  -0.26135  -0.25526
 Alpha  occ. eigenvalues --   -0.25315  -0.25121  -0.24943  -0.20876  -0.20673
 Alpha  occ. eigenvalues --   -0.18955  -0.18275
 Alpha virt. eigenvalues --   -0.11102  -0.10444  -0.05481  -0.05226  -0.03930
 Alpha virt. eigenvalues --   -0.03923  -0.02524  -0.01867  -0.00941  -0.00056
 Alpha virt. eigenvalues --    0.00879   0.00945   0.01253   0.01663   0.02050

 Mulliken charges:
               1
     1  Mg  11.999993
     2  C    5.999746
     3  C    6.000100
     4  C    6.000251
     5  C    5.999954
     6  N    6.999880
     7  C    6.000450
     8  C    5.999815
     9  C    6.000145
    10  C    5.999533
    11  C    6.000050
    12  C    5.999960
    13  C    5.999977
    14  H    1.000057
    15  N    7.000024
    16  C    5.999546
    17  C    5.999699
    18  C    5.999733
    19  C    5.999648
    20  C    6.000050
    21  C    5.999744
    22  O    7.999629
    23  C    6.000092
    24  N    7.000029
    25  C    5.999605
    26  C    6.000095
    27  C    5.999910
    28  C    6.000400
    29  C    5.999993
    30  C    5.999870
    31  C    5.999928
    32  N    7.000034
    33  C    6.000406
    34  C    6.000466
    35  C    6.000030
    36  C    6.000292
    37  C    5.999953
    38  C    6.000277
    39  O    8.000484
    40  C    6.000001
    41  C    6.000069
    42  O    8.000101
    43  O    8.000007
    44  C    5.999945
    45  H    0.999824
    46  H    0.999928
    47  H    1.000187
    48  H    1.000012
    49  H    0.999982
    50  H    0.999987
    51  H    0.999989
    52  H    0.999808
    53  H    1.000133
    54  H    0.999922
    55  H    1.000044
    56  H    0.999940
    57  H    0.999722
    58  H    0.999763
    59  H    0.999808
    60  H    0.999908
    61  H    0.999921
    62  H    0.999771
    63  H    1.000049
    64  H    1.000022
    65  H    1.000058
    66  H    0.999857
    67  H    0.999989
    68  H    1.000166
    69  H    0.999954
    70  H    1.000181
    71  H    1.000091
    72  H    0.999944
    73  H    1.000297
    74  H    1.000264
    75  H    1.000229
    76  H    1.000102
    77  H    1.000057
    78  H    1.000021
    79  H    1.000100
    80  Mg  12.001060
    81  C    5.990343
    82  C    6.012969
    83  C    6.012503
    84  C    5.990588
    85  N    6.997393
    86  C    6.024150
    87  C    5.991392
    88  C    6.008506
    89  C    5.966898
    90  C    6.000751
    91  C    5.994904
    92  C    5.997629
    93  H    1.008935
    94  N    7.005035
    95  C    5.968878
    96  C    5.976789
    97  C    5.991535
    98  C    5.964474
    99  C    6.001811
   100  C    5.988398
   101  O    7.980765
   102  C    6.003769
   103  N    6.995826
   104  C    5.968667
   105  C    6.015375
   106  C    5.995761
   107  C    6.031713
   108  C    6.000573
   109  C    5.995216
   110  C    5.997920
   111  N    7.001295
   112  C    6.037425
   113  C    6.026043
   114  C    6.004796
   115  C    6.020960
   116  C    6.000722
   117  C    6.015905
   118  O    8.030182
   119  C    6.001816
   120  C    6.001856
   121  O    8.006587
   122  O    8.001613
   123  C    5.997682
   124  H    0.992573
   125  H    0.993018
   126  H    1.005172
   127  H    0.998507
   128  H    1.000237
   129  H    1.006053
   130  H    0.993477
   131  H    0.989623
   132  H    1.010194
   133  H    0.997235
   134  H    0.996638
   135  H    1.000036
   136  H    0.983034
   137  H    0.985328
   138  H    0.984119
   139  H    0.991493
   140  H    0.990954
   141  H    0.988730
   142  H    0.992372
   143  H    0.997890
   144  H    1.006280
   145  H    0.991484
   146  H    0.996970
   147  H    1.002505
   148  H    1.010108
   149  H    1.004362
   150  H    1.000832
   151  H    0.993697
   152  H    1.011858
   153  H    1.016880
   154  H    1.018304
   155  H    1.010946
   156  H    1.000589
   157  H    1.005197
   158  H    1.005893
 Sum of Mulliken charges = 624.00000

 Dipole moment (field-independent basis, Debye):
    X=              0.5257    Y=             -9.2225    Z=             -3.5030  Tot=              9.8794
 Quadrupole moment (field-independent basis, Debye-Ang):
   XX=             34.1847   YY=             -8.8527   ZZ=              0.9187
   XY=           -287.8900   XZ=           -109.8837   YZ=             -1.6654

 Normal termination of Gaussian 16 at Wed Oct 13 21:34:49 2021.
