 Gaussian 16, Revision A.03,
 Gaussian 16:  ES64L-G16RevA.03 25-Dec-2016

 --------------------------------------------------------
 #p PBE1PBE/Def2SVP td=(nstates=5) density=(transition=1)
 --------------------------------------------------------

 --------------------------------
 TDDFT excited states in gaussian
 --------------------------------
 Symbolic Z-matrix:
 Charge =  0 Multiplicity = 1

                         Standard orientation:
 ---------------------------------------------------------------------
 Center     Atomic      Atomic             Coordinates (Angstroms)
 Number     Number       Type             X           Y           Z
 ---------------------------------------------------------------------
      1         12           0      -21.045903    0.067678    0.078899
      2          6           0      -17.950744    1.316059   -0.975999
      3          6           0      -21.308620   -1.310787   -3.082032
      4          6           0      -23.836692   -1.455489    1.095493
      5          6           0      -20.192459    0.807987    3.387065
      6          7           0      -19.557545   -0.123412   -1.827982
      7          6           0      -18.426473    0.580640   -2.025112
      8          6           0      -17.807737    0.361503   -3.384807
      9          6           0      -19.092797   -0.238189   -4.072935
     10          6           0      -20.058141   -0.647147   -2.965145
     11          6           0      -19.779665    0.844787   -4.947104
     12          6           0      -16.523306   -0.471291   -3.286473
     13          6           0      -16.453621   -1.662100   -2.307903
     14          1           0      -15.924567   -2.969506   -2.885551
     15          7           0      -22.378418   -1.179866   -0.844568
     16          6           0      -22.357637   -1.515870   -2.172269
     17          6           0      -23.694985   -1.977591   -2.566524
     18          6           0      -24.437289   -2.190217   -1.336632
     19          6           0      -23.544282   -1.580355   -0.304626
     20          6           0      -24.025207   -2.498023   -4.017663
     21          6           0      -25.799384   -2.873300   -1.191146
     22          8           0      -26.435320   -3.180240   -2.160749
     23          6           0      -26.372792   -3.122511    0.173981
     24          7           0      -21.766908   -0.447588    2.063894
     25          6           0      -23.045425   -1.003799    2.254595
     26          6           0      -23.460213   -1.092944    3.784070
     27          6           0      -22.264165   -0.283589    4.479057
     28          6           0      -21.350711    0.096517    3.225242
     29          6           0      -24.923582   -0.619147    4.259337
     30          6           0      -21.464324   -1.014261    5.651812
     31          6           0      -20.983624    0.050375    6.757020
     32          7           0      -19.436420    0.947012    1.080793
     33          6           0      -19.279042    1.259037    2.415883
     34          6           0      -18.044719    2.015501    2.587584
     35          6           0      -17.472754    2.152604    1.296456
     36          6           0      -18.330416    1.406311    0.410114
     37          6           0      -17.571559    2.686520    3.850412
     38          6           0      -16.324628    2.621933    0.454222
     39          8           0      -15.278436    3.139451    0.776340
     40          6           0      -16.662239    2.130255   -1.017231
     41          6           0      -16.782687    3.366507   -1.865309
     42          8           0      -15.800952    4.029433   -2.284267
     43          8           0      -18.109474    3.558135   -2.222632
     44          6           0      -18.340070    4.557747   -3.211377
     45          1           0      -21.436708   -1.669099   -4.105669
     46          1           0      -24.807022   -1.735058    1.511679
     47          1           0      -20.038278    1.205667    4.392445
     48          1           0      -17.619913    1.303636   -3.899447
     49          1           0      -18.968251   -1.108986   -4.715171
     50          1           0      -20.848595    0.637799   -4.890214
     51          1           0      -19.352197    0.855996   -5.948728
     52          1           0      -19.780142    1.880874   -4.607086
     53          1           0      -15.761261    0.211391   -2.911795
     54          1           0      -16.262157   -0.808496   -4.289638
     55          1           0      -17.460020   -1.888173   -1.956418
     56          1           0      -15.771443   -1.396026   -1.500989
     57          1           0      -23.665141   -3.502560   -4.241491
     58          1           0      -23.621172   -1.803169   -4.753969
     59          1           0      -25.076602   -2.486426   -4.302641
     60          1           0      -27.265239   -3.747885    0.133831
     61          1           0      -26.626305   -2.205944    0.707026
     62          1           0      -25.602729   -3.748491    0.625596
     63          1           0      -23.349263   -2.166251    3.933709
     64          1           0      -22.618073    0.663566    4.885157
     65          1           0      -25.574845   -1.490621    4.203366
     66          1           0      -25.304421    0.189102    3.635613
     67          1           0      -24.846992   -0.236022    5.277114
     68          1           0      -20.519920   -1.419226    5.288385
     69          1           0      -22.050232   -1.828248    6.079420
     70          1           0      -19.896444    0.069431    6.834104
     71          1           0      -21.393775   -0.226294    7.727832
     72          1           0      -21.176544    1.109592    6.590425
     73          1           0      -17.460129    1.925440    4.621967
     74          1           0      -18.316986    3.410157    4.180943
     75          1           0      -16.596805    3.158820    3.729503
     76          1           0      -15.747130    1.635517   -1.341909
     77          1           0      -19.395195    4.555430   -3.483925
     78          1           0      -17.645848    4.456008   -4.045706
     79          1           0      -18.226107    5.564565   -2.809683
     80         12           0       20.151771   -0.917990    0.050770
     81          6           0       21.489888    2.216047   -0.212265
     82          6           0       17.260938    0.321649    1.150174
     83          6           0       19.141628   -3.991446    0.445767
     84          6           0       23.447754   -2.135235   -0.547026
     85          7           0       19.488821    1.074035    0.600687
     86          6           0       20.117955    2.187659    0.148971
     87          6           0       19.200365    3.379331    0.124062
     88          6           0       17.923939    2.785989    0.844807
     89          6           0       18.251960    1.313059    0.959071
     90          6           0       17.557285    3.475573    2.180846
     91          6           0       18.977370    4.034572   -1.372040
     92          6           0       19.089259    5.558622   -1.530147
     93          1           0       18.829650    6.422107   -0.255825
     94          7           0       18.455349   -1.689238    0.518178
     95          6           0       17.333436   -1.064986    0.962386
     96          6           0       16.295900   -1.980728    1.370018
     97          6           0       16.744398   -3.207393    0.983123
     98          6           0       18.206436   -3.003125    0.741140
     99          6           0       15.094031   -1.392614    2.086399
    100          6           0       16.005262   -4.559979    1.011557
    101          8           0       16.509743   -5.614416    0.702716
    102          6           0       14.589231   -4.468221    1.498401
    103          7           0       21.236339   -2.781908    0.121396
    104          6           0       20.502042   -3.907439    0.180987
    105          6           0       21.379518   -5.144836   -0.032636
    106          6           0       22.682163   -4.544533   -0.662336
    107          6           0       22.475145   -3.053294   -0.326777
    108          6           0       21.665219   -6.092076    1.209475
    109          6           0       22.848789   -4.713331   -2.219535
    110          6           0       21.846748   -4.180978   -3.209866
    111          7           0       22.106919   -0.206903   -0.399829
    112          6           0       23.373965   -0.784624   -0.530126
    113          6           0       24.408841    0.229417   -0.769142
    114          6           0       23.705387    1.438468   -0.661504
    115          6           0       22.336785    1.083509   -0.444397
    116          6           0       25.861779    0.020869   -1.111197
    117          6           0       23.805030    2.825714   -0.690736
    118          8           0       24.747606    3.592562   -0.811541
    119          6           0       22.361007    3.388593   -0.640539
    120          6           0       22.472905    4.464837    0.370536
    121          8           0       22.474762    4.300598    1.592930
    122          8           0       22.691738    5.675527   -0.220268
    123          6           0       23.125379    6.810604    0.600503
    124          1           0       16.277343    0.765908    1.317741
    125          1           0       18.861769   -5.044614    0.504860
    126          1           0       24.389825   -2.647473   -0.756970
    127          1           0       19.561901    4.156626    0.797354
    128          1           0       17.077546    2.840100    0.160468
    129          1           0       17.870133    2.834924    3.005252
    130          1           0       16.473753    3.585200    2.226302
    131          1           0       18.092648    4.425000    2.195652
    132          1           0       17.976219    3.717145   -1.663906
    133          1           0       19.716260    3.646175   -2.072247
    134          1           0       18.320589    5.923486   -2.210892
    135          1           0       20.036186    5.811123   -2.007149
    136          1           0       15.315677   -0.890366    3.028187
    137          1           0       14.337421   -2.044258    2.523030
    138          1           0       14.669299   -0.772563    1.296918
    139          1           0       14.021521   -3.756998    0.898894
    140          1           0       14.732743   -4.235192    2.553282
    141          1           0       13.948373   -5.345666    1.419559
    142          1           0       20.770807   -5.726186   -0.726086
    143          1           0       23.539753   -4.891209   -0.085320
    144          1           0       21.151199   -5.702533    2.087862
    145          1           0       22.714466   -6.043662    1.498314
    146          1           0       21.430864   -7.149672    1.079109
    147          1           0       22.921981   -5.799834   -2.273480
    148          1           0       23.783153   -4.285953   -2.582021
    149          1           0       20.959999   -3.832148   -2.679015
    150          1           0       21.515828   -4.972909   -3.881586
    151          1           0       22.153736   -3.312929   -3.792919
    152          1           0       26.523724    0.271057   -0.283326
    153          1           0       26.123330    0.616888   -1.985692
    154          1           0       25.927370   -1.059249   -1.244511
    155          1           0       22.015733    3.711314   -1.622921
    156          1           0       23.682556    7.548255    0.021779
    157          1           0       23.596105    6.487407    1.527717
    158          1           0       22.287783    7.360527    1.029203
 ---------------------------------------------------------------------

 SCF Done:  E(RPBE1PBE) =  -4067.36298818     A.U. after   16 cycles

 Excitation energies and oscillator strengths:

 Excited State   1:      Singlet-A      1.8297 eV  677.62 nm  f=0.0000  <S**2>=0.000
     312 -> 313        0.70710
 This state for optimization and/or second-order correction.
 Total Energy, E(TD-HF/TD-DFT) =  -4067.29574835
 Copying the excited state density for this state as the 1-particle RhoCI density.

 Excited State   2:      Singlet-A      1.8949 eV  654.30 nm  f=0.4940  <S**2>=0.000
     310 -> 316        0.18004
     311 -> 313        0.18388
     312 -> 314        0.66299

 Excited State   3:      Singlet-A      1.8970 eV  653.58 nm  f=0.2199  <S**2>=0.000
     309 -> 315        0.18094
     311 -> 313        0.66228
     312 -> 314       -0.18399

 Excited State   4:      Singlet-A      2.2341 eV  554.96 nm  f=0.1041  <S**2>=0.000
     309 -> 313        0.64924
     311 -> 315       -0.26863

 Excited State   5:      Singlet-A      2.2581 eV  549.05 nm  f=0.0658  <S**2>=0.000
     310 -> 314        0.63632
     312 -> 316       -0.29841

 The electronic state is 1-A.
 Alpha  occ. eigenvalues --  -46.93825 -46.91322 -19.26733 -19.24580 -19.20321
 Alpha  occ. eigenvalues --  -19.19921 -19.19888 -19.19143 -19.18605 -19.18054
 Alpha  occ. eigenvalues --  -14.41896 -14.41233 -14.41138 -14.40527 -14.40094
 Alpha  occ. eigenvalues --  -14.39499 -14.39260 -14.38454 -10.37063 -10.35284
 Alpha  occ. eigenvalues --  -10.33119 -10.32859 -10.32355 -10.30788 -10.30521
 Alpha  occ. eigenvalues --  -10.29337 -10.29224 -10.28773 -10.28479 -10.28395
 Alpha  occ. eigenvalues --  -10.28277 -10.28254 -10.28096 -10.28040 -10.27890
 Alpha  occ. eigenvalues --  -10.27793 -10.27741 -10.27541 -10.27478 -10.27227
 Alpha  occ. eigenvalues --  -10.27085 -10.26903 -10.26893 -10.26692 -10.26501
 Alpha  occ. eigenvalues --  -10.26277 -10.26263 -10.26254 -10.26183 -10.26059
 Alpha  occ. eigenvalues --  -10.26053 -10.25901 -10.25736 -10.25701 -10.25657
 Alpha  occ. eigenvalues --  -10.25615 -10.25536 -10.25496 -10.25455 -10.25378
 Alpha  occ. eigenvalues --  -10.25376 -10.25316 -10.25239 -10.25237 -10.25197
 Alpha  occ. eigenvalues --  -10.25093 -10.24998 -10.24967 -10.24525 -10.24044
 Alpha  occ. eigenvalues --  -10.23974 -10.23943 -10.23920 -10.23852 -10.23833
 Alpha  occ. eigenvalues --  -10.23637 -10.23611 -10.23560 -10.23488 -10.23487
 Alpha  occ. eigenvalues --  -10.23449 -10.23424 -10.23096 -10.22692 -10.22615
 Alpha  occ. eigenvalues --  -10.21982  -3.15771  -3.13749  -1.88572  -1.88164
 Alpha  occ. eigenvalues --   -1.87983  -1.86557  -1.86140  -1.86006  -1.11267
 Alpha  occ. eigenvalues --   -1.09624  -1.06176  -1.06038  -1.05566  -1.03882
 Alpha  occ. eigenvalues --   -1.01902  -1.00747  -1.00104  -0.99375  -0.99239
 Alpha  occ. eigenvalues --   -0.98804  -0.98472  -0.97747  -0.97720  -0.96668
 Alpha  occ. eigenvalues --   -0.86925  -0.86783  -0.83755  -0.83313  -0.82656
 Alpha  occ. eigenvalues --   -0.82629  -0.82236  -0.82211  -0.82039  -0.81782
 Alpha  occ. eigenvalues --   -0.81735  -0.80981  -0.80526  -0.79847  -0.79140
 Alpha  occ. eigenvalues --   -0.78598  -0.77862  -0.77700  -0.76906  -0.76837
 Alpha  occ. eigenvalues --   -0.76680  -0.76106  -0.75366  -0.75183  -0.74790
 Alpha  occ. eigenvalues --   -0.74773  -0.73174  -0.71878  -0.71821  -0.71638
 Alpha  occ. eigenvalues --   -0.71281  -0.70962  -0.70749  -0.69993  -0.69692
 Alpha  occ. eigenvalues --   -0.69511  -0.67345  -0.67118  -0.66506  -0.66079
 Alpha  occ. eigenvalues --   -0.64283  -0.63964  -0.63811  -0.63396  -0.62793
 Alpha  occ. eigenvalues --   -0.62596  -0.61623  -0.61579  -0.60377  -0.59800
 Alpha  occ. eigenvalues --   -0.59465  -0.59444  -0.59358  -0.59218  -0.59203
 Alpha  occ. eigenvalues --   -0.58337  -0.58305  -0.56320  -0.55506  -0.54601
 Alpha  occ. eigenvalues --   -0.53915  -0.53884  -0.53774  -0.53500  -0.52857
 Alpha  occ. eigenvalues --   -0.52541  -0.52344  -0.52339  -0.52092  -0.51948
 Alpha  occ. eigenvalues --   -0.50807  -0.50803  -0.50658  -0.50103  -0.49837
 Alpha  occ. eigenvalues --   -0.49669  -0.49592  -0.49143  -0.48874  -0.48690
 Alpha  occ. eigenvalues --   -0.48387  -0.48178  -0.47831  -0.47782  -0.47533
 Alpha  occ. eigenvalues --   -0.47346  -0.47270  -0.47003  -0.46854  -0.46793
 Alpha  occ. eigenvalues --   -0.46577  -0.46208  -0.46115  -0.46057  -0.45789
 Alpha  occ. eigenvalues --   -0.45782  -0.45376  -0.45211  -0.45198  -0.44944
 Alpha  occ. eigenvalues --   -0.44809  -0.44661  -0.44579  -0.44362  -0.44158
 Alpha  occ. eigenvalues --   -0.43965  -0.43894  -0.43696  -0.43636  -0.43396
 Alpha  occ. eigenvalues --   -0.43375  -0.43119  -0.43096  -0.42690  -0.42627
 Alpha  occ. eigenvalues --   -0.42354  -0.42258  -0.42000  -0.41937  -0.41819
 Alpha  occ. eigenvalues --   -0.41623  -0.41458  -0.41379  -0.41309  -0.41209
 Alpha  occ. eigenvalues --   -0.41114  -0.40824  -0.40526  -0.40492  -0.40299
 Alpha  occ. eigenvalues --   -0.40221  -0.40152  -0.40016  -0.39987  -0.39655
 Alpha  occ. eigenvalues --   -0.39634  -0.39241  -0.39065  -0.38842  -0.38840
 Alpha  occ. eigenvalues --   -0.38709  -0.38680  -0.38582  -0.38474  -0.38201
 Alpha  occ. eigenvalues --   -0.38076  -0.38022  -0.37902  -0.37832  -0.37714
 Alpha  occ. eigenvalues --   -0.37673  -0.37648  -0.37229  -0.37174  -0.37076
 Alpha  occ. eigenvalues --   -0.37029  -0.36889  -0.36728  -0.36660  -0.36387
 Alpha  occ. eigenvalues --   -0.36181  -0.36056  -0.35887  -0.35600  -0.35381
 Alpha  occ. eigenvalues --   -0.35310  -0.34871  -0.34450  -0.34222  -0.34121
 Alpha  occ. eigenvalues --   -0.33929  -0.33435  -0.33180  -0.33151  -0.32288
 Alpha  occ. eigenvalues --   -0.32248  -0.32033  -0.31764  -0.31469  -0.31410
 Alpha  occ. eigenvalues --   -0.31343  -0.30082  -0.29830  -0.29545  -0.29488
 Alpha  occ. eigenvalues --   -0.28738  -0.28694  -0.27833  -0.27645  -0.26960
 Alpha  occ. eigenvalues --   -0.26320  -0.26217  -0.26106  -0.26097  -0.25795
 Alpha  occ. eigenvalues --   -0.25491  -0.25483  -0.25087  -0.21016  -0.20637
 Alpha  occ. eigenvalues --   -0.19067  -0.18239
 Alpha virt. eigenvalues --   -0.11196  -0.10408  -0.05573  -0.05191  -0.04166
 Alpha virt. eigenvalues --   -0.03893  -0.02435  -0.02015  -0.01831  -0.00165
 Alpha virt. eigenvalues --   -0.00021   0.00983   0.01108   0.01699   0.01937

 Mulliken charges:
               1
     1  Mg  12.000000
     2  C    6.000000
     3  C    6.000000
     4  C    6.000000
     5  C    6.000000
     6  N    7.000000
     7  C    6.000000
     8  C    6.000000
     9  C    6.000000
    10  C    6.000000
    11  C    6.000000
    12  C    6.000000
    13  C    6.000000
    14  H    1.000000
    15  N    7.000000
    16  C    6.000000
    17  C    6.000000
    18  C    6.000000
    19  C    6.000000
    20  C    6.000000
    21  C    6.000000
    22  O    8.000000
    23  C    6.000000
    24  N    7.000000
    25  C    6.000000
    26  C    6.000000
    27  C    6.000000
    28  C    6.000000
    29  C    6.000000
    30  C    6.000000
    31  C    6.000000
    32  N    7.000000
    33  C    6.000000
    34  C    6.000000
    35  C    6.000000
    36  C    6.000000
    37  C    6.000000
    38  C    6.000000
    39  O    8.000000
    40  C    6.000000
    41  C    6.000000
    42  O    8.000000
    43  O    8.000000
    44  C    6.000000
    45  H    1.000000
    46  H    1.000000
    47  H    1.000000
    48  H    1.000000
    49  H    1.000000
    50  H    1.000000
    51  H    1.000000
    52  H    1.000000
    53  H    1.000000
    54  H    1.000000
    55  H    1.000000
    56  H    1.000000
    57  H    1.000000
    58  H    1.000000
    59  H    1.000000
    60  H    1.000000
    61  H    1.000000
    62  H    1.000000
    63  H    1.000000
    64  H    1.000000
    65  H    1.000000
    66  H    1.000000
    67  H    1.000000
    68  H    1.000000
    69  H    1.000000
    70  H    1.000000
    71  H    1.000000
    72  H    1.000000
    73  H    1.000000
    74  H    1.000000
    75  H    1.000000
    76  H    1.000000
    77  H    1.000000
    78  H    1.000000
    79  H    1.000000
    80  Mg  12.000000
    81  C    6.000000
    82  C    6.000000
    83  C    6.000000
    84  C    6.000000
    85  N    7.000000
    86  C    6.000000
    87  C    6.000000
    88  C    6.000000
    89  C    6.000000
    90  C    6.000000
    91  C    6.000000
    92  C    6.000000
    93  H    1.000000
    94  N    7.000000
    95  C    6.000000
    96  C    6.000000
    97  C    6.000000
    98  C    6.000000
    99  C    6.000000
   100  C    6.000000
   101  O    8.000000
   102  C    6.000000
   103  N    7.000000
   104  C    6.000000
   105  C    6.000000
   106  C    6.000000
   107  C    6.000000
   108  C    6.000000
   109  C    6.000000
   110  C    6.000000
   111  N    7.000000
   112  C    6.000000
   113  C    6.000000
   114  C    6.000000
   115  C    6.000000
   116  C    6.000000
   117  C    6.000000
   118  O    8.000000
   119  C    6.000000
   120  C    6.000000
   121  O    8.000000
   122  O    8.000000
   123  C    6.000000
   124  H    1.000000
   125  H    1.000000
   126  H    1.000000
   127  H    1.000000
   128  H    1.000000
   129  H    1.000000
   130  H    1.000000
   131  H    1.000000
   132  H    1.000000
   133  H    1.000000
   134  H    1.000000
   135  H    1.000000
   136  H    1.000000
   137  H    1.000000
   138  H    1.000000
   139  H    1.000000
   140  H    1.000000
   141  H    1.000000
   142  H    1.000000
   143  H    1.000000
   144  H    1.000000
   145  H    1.000000
   146  H    1.000000
   147  H    1.000000
   148  H    1.000000
   149  H    1.000000
   150  H    1.000000
   151  H    1.000000
   152  H    1.000000
   153  H    1.000000
   154  H    1.000000
   155  H    1.000000
   156  H    1.000000
   157  H    1.000000
   158  H    1.000000
 Sum of Mulliken charges = 624.00000

 Dipole moment (field-independent basis, Debye):
    X=              0.0000    Y=              0.0000    Z=              0.0000  Tot=              0.0000
 Quadrupole moment (field-independent basis, Debye-Ang):
   XX=             -0.0000   YY=             -0.0000   ZZ=              0.0000
   XY=             -0.0000   XZ=             -0.0000   YZ=             -0.0000

 Normal termination of Gaussian 16 at Thu Oct 14 21:31:08 2021.
