 Gaussian 16, Revision A.03,
 Gaussian 16:  ES64L-G16RevA.03 25-Dec-2016

 --------------------------------------------------------
 #p PBE1PBE/Def2SVP td=(nstates=5) density=(transition=1)
 --------------------------------------------------------

 --------------------------------
 TDDFT excited states in gaussian
 --------------------------------
 Symbolic Z-matrix:
 Charge =  0 Multiplicity = 1

                         Standard orientation:
 ---------------------------------------------------------------------
 Center     Atomic      Atomic             Coordinates (Angstroms)
 Number     Number       Type             X           Y           Z
 ---------------------------------------------------------------------
      1         12           0       19.771976    0.440864    0.435478
      2          6           0       17.285208   -1.455809   -1.207232
      3          6           0       20.416850    2.065714   -2.360670
      4          6           0       22.676335    1.509803    1.882855
      5          6           0       19.645733   -2.139652    3.081266
      6          7           0       18.947392    0.242099   -1.569750
      7          6           0       17.817024   -0.393559   -1.940553
      8          6           0       17.374080    0.128284   -3.321514
      9          6           0       18.325583    1.230126   -3.661993
     10          6           0       19.344959    1.181085   -2.483805
     11          6           0       18.874469    1.135905   -5.144263
     12          6           0       15.871266    0.515438   -3.526507
     13          6           0       15.420978    1.722950   -4.455574
     14          1           0       14.241992    1.507681   -5.415818
     15          7           0       21.190503    1.822493   -0.093611
     16          6           0       21.276541    2.402486   -1.339110
     17          6           0       22.362117    3.340924   -1.308254
     18          6           0       23.108062    3.197380   -0.073976
     19          6           0       22.365407    2.112890    0.605334
     20          6           0       22.630876    4.131158   -2.524414
     21          6           0       24.318922    3.991500    0.475234
     22          8           0       24.817505    3.682604    1.506979
     23          6           0       24.713644    5.291977   -0.145338
     24          7           0       21.001776   -0.289602    2.216127
     25          6           0       22.058598    0.463960    2.594394
     26          6           0       22.696619   -0.046184    3.925996
     27          6           0       21.721084   -1.187089    4.348099
     28          6           0       20.724141   -1.252672    3.164626
     29          6           0       24.121333   -0.522542    3.825450
     30          6           0       20.960386   -1.043364    5.712531
     31          6           0       19.780765   -0.134781    5.796513
     32          7           0       18.740804   -1.416024    0.960549
     33          6           0       18.773695   -2.251888    2.039776
     34          6           0       17.718830   -3.228527    1.919374
     35          6           0       17.086296   -2.989959    0.670901
     36          6           0       17.781951   -1.900905    0.107656
     37          6           0       17.448511   -4.392605    2.805953
     38          6           0       16.077331   -3.428513   -0.250546
     39          8           0       15.226727   -4.310085   -0.210881
     40          6           0       16.124008   -2.425912   -1.489486
     41          6           0       16.167615   -3.140157   -2.829811
     42          8           0       17.085514   -3.828929   -3.193945
     43          8           0       15.024616   -2.829456   -3.549176
     44          6           0       14.958005   -3.502273   -4.846958
     45          1           0       20.563969    2.786975   -3.167744
     46          1           0       23.586610    1.940311    2.304733
     47          1           0       19.535358   -2.840254    3.911470
     48          1           0       17.526991   -0.789601   -3.889165
     49          1           0       17.759215    2.161837   -3.661085
     50          1           0       18.338075    0.352310   -5.679140
     51          1           0       19.959735    1.051868   -5.088049
     52          1           0       18.604200    2.019501   -5.722760
     53          1           0       15.471606    0.737721   -2.536776
     54          1           0       15.276247   -0.332784   -3.866005
     55          1           0       16.318686    1.975424   -5.020268
     56          1           0       15.187844    2.583553   -3.828473
     57          1           0       23.715467    4.222544   -2.578322
     58          1           0       22.222693    5.126577   -2.353457
     59          1           0       22.274038    3.819955   -3.506349
     60          1           0       25.456422    4.980342   -0.878522
     61          1           0       25.027292    5.980069    0.640276
     62          1           0       23.938681    5.774321   -0.741462
     63          1           0       22.604553    0.687245    4.727313
     64          1           0       22.071552   -2.218663    4.360172
     65          1           0       24.564641   -0.254989    2.865407
     66          1           0       24.198683   -1.608364    3.887168
     67          1           0       24.650821   -0.030481    4.640927
     68          1           0       21.655909   -0.718792    6.486558
     69          1           0       20.729942   -2.048179    6.067292
     70          1           0       19.837867    0.615892    5.008032
     71          1           0       19.611797    0.490053    6.673799
     72          1           0       18.915194   -0.796065    5.745523
     73          1           0       18.271953   -5.100413    2.896626
     74          1           0       16.762501   -5.026788    2.243878
     75          1           0       17.068099   -4.081410    3.779251
     76          1           0       15.219941   -1.821645   -1.411830
     77          1           0       15.083947   -2.545612   -5.353002
     78          1           0       13.938592   -3.886318   -4.876097
     79          1           0       15.748425   -4.239297   -4.990478
     80         12           0      -19.613666   -0.598847   -0.614696
     81          6           0      -19.054221    2.872121   -0.126987
     82          6           0      -16.165280   -1.041710   -0.332521
     83          6           0      -20.267530   -3.740842    0.117748
     84          6           0      -23.185590    0.200803   -0.537934
     85          7           0      -17.809646    0.802249   -0.007857
     86          6           0      -17.833409    2.151637   -0.140910
     87          6           0      -16.409985    2.678859   -0.168456
     88          6           0      -15.604877    1.540721   -0.795881
     89          6           0      -16.552588    0.329505   -0.308232
     90          6           0      -15.462623    1.499512   -2.318513
     91          6           0      -15.986015    3.146729    1.291745
     92          6           0      -15.293730    4.452725    1.285163
     93          1           0      -14.067965    4.615248    2.204976
     94          7           0      -18.386765   -2.235672   -0.106857
     95          6           0      -16.969937   -2.222683   -0.127406
     96          6           0      -16.547183   -3.570568    0.158349
     97          6           0      -17.676031   -4.430517    0.213290
     98          6           0      -18.861849   -3.508481    0.101247
     99          6           0      -15.066034   -3.908499    0.295950
    100          6           0      -17.655877   -5.883320    0.482571
    101          8           0      -16.577656   -6.434287    0.666972
    102          6           0      -18.834963   -6.784127    0.652423
    103          7           0      -21.558971   -1.603970   -0.157108
    104          6           0      -21.469206   -2.947637   -0.099944
    105          6           0      -22.869106   -3.587670   -0.121849
    106          6           0      -23.846700   -2.335594   -0.491702
    107          6           0      -22.831654   -1.164354   -0.442680
    108          6           0      -22.990125   -4.886141   -1.039944
    109          6           0      -25.092587   -2.159215    0.431740
    110          6           0      -25.002797   -1.100630    1.583343
    111          7           0      -20.852262    1.080193   -0.398930
    112          6           0      -22.266476    1.236354   -0.457864
    113          6           0      -22.586344    2.727668   -0.544129
    114          6           0      -21.350865    3.329565   -0.366525
    115          6           0      -20.348871    2.296004   -0.304089
    116          6           0      -23.908007    3.502474   -0.708777
    117          6           0      -20.680036    4.589323   -0.306543
    118          8           0      -21.115319    5.732986   -0.450264
    119          6           0      -19.259297    4.271578   -0.003591
    120          6           0      -19.108810    4.723915    1.466899
    121          8           0      -19.479854    4.122264    2.472540
    122          8           0      -18.520920    6.019191    1.448966
    123          6           0      -18.387425    6.706858    2.668652
    124          1           0      -15.091819   -1.242199   -0.346795
    125          1           0      -20.372924   -4.825039    0.191458
    126          1           0      -24.214400    0.543429   -0.661359
    127          1           0      -16.272524    3.513780   -0.855396
    128          1           0      -14.571126    1.366463   -0.499608
    129          1           0      -15.662260    2.453828   -2.805027
    130          1           0      -15.954413    0.624663   -2.744521
    131          1           0      -14.391782    1.334414   -2.442981
    132          1           0      -15.284569    2.418488    1.699001
    133          1           0      -16.785594    3.088472    2.030319
    134          1           0      -16.103415    5.129395    1.555990
    135          1           0      -14.959266    4.655977    0.267962
    136          1           0      -14.668973   -4.437571   -0.570160
    137          1           0      -14.916932   -4.446274    1.231114
    138          1           0      -14.476682   -2.995492    0.381928
    139          1           0      -19.334514   -6.875080   -0.312398
    140          1           0      -19.565056   -6.476633    1.402099
    141          1           0      -18.530829   -7.821653    0.785354
    142          1           0      -23.037611   -3.835974    0.925815
    143          1           0      -24.132409   -2.418825   -1.539751
    144          1           0      -22.020035   -5.365119   -1.171913
    145          1           0      -23.518393   -4.815682   -1.991510
    146          1           0      -23.740192   -5.475640   -0.510374
    147          1           0      -25.416214   -3.099797    0.876728
    148          1           0      -25.847085   -1.808484   -0.271990
    149          1           0      -25.652793   -1.639098    2.273420
    150          1           0      -25.412872   -0.107012    1.401296
    151          1           0      -23.972529   -1.089714    1.939644
    152          1           0      -23.882533    4.134721   -1.595624
    153          1           0      -23.761179    4.180193    0.131658
    154          1           0      -24.723623    2.796161   -0.555422
    155          1           0      -18.609077    4.882664   -0.629703
    156          1           0      -17.941374    7.698687    2.585210
    157          1           0      -17.744705    6.106198    3.311014
    158          1           0      -19.403487    6.789774    3.055494
 ---------------------------------------------------------------------

 SCF Done:  E(RPBE1PBE) =  -4067.31737717     A.U. after   16 cycles

 Excitation energies and oscillator strengths:

 Excited State   1:      Singlet-A      1.8406 eV  673.62 nm  f=0.3407  <S**2>=0.000
     309 -> 315        0.18891
     311 -> 314        0.68664
 This state for optimization and/or second-order correction.
 Total Energy, E(TD-HF/TD-DFT) =  -4067.24973774
 Copying the excited state density for this state as the 1-particle RhoCI density.

 Excited State   2:      Singlet-A      1.8611 eV  666.19 nm  f=0.3774  <S**2>=0.000
     310 -> 316       -0.17924
     312 -> 313        0.69090
     312 <- 313       -0.10759

 Excited State   3:      Singlet-A      1.9788 eV  626.56 nm  f=0.0000  <S**2>=0.000
     312 -> 314        0.70711

 Excited State   4:      Singlet-A      1.9949 eV  621.52 nm  f=0.0000  <S**2>=0.000
     311 -> 313        0.70710

 Excited State   5:      Singlet-A      2.1921 eV  565.59 nm  f=0.1066  <S**2>=0.000
     310 -> 313        0.65352
     312 -> 316        0.25413

 The electronic state is 1-A.
 Alpha  occ. eigenvalues --  -46.94680 -46.93388 -19.25454 -19.25361 -19.21582
 Alpha  occ. eigenvalues --  -19.20258 -19.19689 -19.19079 -19.18906 -19.17823
 Alpha  occ. eigenvalues --  -14.41873 -14.41749 -14.41504 -14.41242 -14.39859
 Alpha  occ. eigenvalues --  -14.39450 -14.39130 -14.38510 -10.37644 -10.36136
 Alpha  occ. eigenvalues --  -10.32769 -10.31972 -10.31623 -10.31286 -10.29626
 Alpha  occ. eigenvalues --  -10.29282 -10.29228 -10.29203 -10.28991 -10.28875
 Alpha  occ. eigenvalues --  -10.28697 -10.28600 -10.28545 -10.28519 -10.28399
 Alpha  occ. eigenvalues --  -10.28239 -10.28191 -10.27874 -10.27149 -10.27063
 Alpha  occ. eigenvalues --  -10.27024 -10.26999 -10.26788 -10.26639 -10.26364
 Alpha  occ. eigenvalues --  -10.26353 -10.26258 -10.26225 -10.26190 -10.26066
 Alpha  occ. eigenvalues --  -10.25894 -10.25817 -10.25671 -10.25584 -10.25492
 Alpha  occ. eigenvalues --  -10.25457 -10.25449 -10.25340 -10.25306 -10.25291
 Alpha  occ. eigenvalues --  -10.25231 -10.25193 -10.25165 -10.25074 -10.24883
 Alpha  occ. eigenvalues --  -10.24734 -10.24541 -10.24410 -10.24398 -10.24332
 Alpha  occ. eigenvalues --  -10.24292 -10.24004 -10.23973 -10.23852 -10.23829
 Alpha  occ. eigenvalues --  -10.23815 -10.23784 -10.23770 -10.23104 -10.23090
 Alpha  occ. eigenvalues --  -10.22847 -10.22762 -10.22674 -10.22641 -10.22559
 Alpha  occ. eigenvalues --  -10.22367  -3.16468  -3.15281  -1.89245  -1.88892
 Alpha  occ. eigenvalues --   -1.88643  -1.88091  -1.87662  -1.87493  -1.11079
 Alpha  occ. eigenvalues --   -1.10544  -1.07583  -1.04265  -1.04122  -1.03994
 Alpha  occ. eigenvalues --   -1.03443  -1.03397  -0.98823  -0.98795  -0.98055
 Alpha  occ. eigenvalues --   -0.97779  -0.97470  -0.97123  -0.96474  -0.95970
 Alpha  occ. eigenvalues --   -0.88745  -0.85980  -0.83552  -0.83432  -0.83144
 Alpha  occ. eigenvalues --   -0.83006  -0.82545  -0.82081  -0.81689  -0.81545
 Alpha  occ. eigenvalues --   -0.81416  -0.81167  -0.80447  -0.79899  -0.79057
 Alpha  occ. eigenvalues --   -0.78263  -0.77951  -0.77937  -0.76969  -0.76660
 Alpha  occ. eigenvalues --   -0.76236  -0.75861  -0.75161  -0.75135  -0.74761
 Alpha  occ. eigenvalues --   -0.74615  -0.72580  -0.72351  -0.71576  -0.71436
 Alpha  occ. eigenvalues --   -0.71397  -0.71187  -0.70330  -0.70198  -0.69568
 Alpha  occ. eigenvalues --   -0.69020  -0.67171  -0.66797  -0.66312  -0.65871
 Alpha  occ. eigenvalues --   -0.64262  -0.64097  -0.63637  -0.63160  -0.62699
 Alpha  occ. eigenvalues --   -0.61687  -0.61322  -0.61240  -0.59830  -0.59483
 Alpha  occ. eigenvalues --   -0.59438  -0.59203  -0.59092  -0.58772  -0.58639
 Alpha  occ. eigenvalues --   -0.58510  -0.56759  -0.56268  -0.54528  -0.54474
 Alpha  occ. eigenvalues --   -0.54317  -0.54089  -0.53905  -0.53382  -0.53286
 Alpha  occ. eigenvalues --   -0.52933  -0.52907  -0.52551  -0.51939  -0.51578
 Alpha  occ. eigenvalues --   -0.50644  -0.50609  -0.50566  -0.50417  -0.50226
 Alpha  occ. eigenvalues --   -0.49911  -0.49604  -0.49423  -0.49169  -0.49143
 Alpha  occ. eigenvalues --   -0.48626  -0.48282  -0.48158  -0.47946  -0.47744
 Alpha  occ. eigenvalues --   -0.47639  -0.47411  -0.47309  -0.46952  -0.46732
 Alpha  occ. eigenvalues --   -0.46467  -0.46374  -0.46196  -0.45976  -0.45806
 Alpha  occ. eigenvalues --   -0.45724  -0.45492  -0.45367  -0.45171  -0.45159
 Alpha  occ. eigenvalues --   -0.44844  -0.44776  -0.44649  -0.44498  -0.44136
 Alpha  occ. eigenvalues --   -0.44015  -0.43864  -0.43792  -0.43629  -0.43599
 Alpha  occ. eigenvalues --   -0.43382  -0.43231  -0.43144  -0.42925  -0.42916
 Alpha  occ. eigenvalues --   -0.42509  -0.42316  -0.42201  -0.41903  -0.41842
 Alpha  occ. eigenvalues --   -0.41837  -0.41618  -0.41468  -0.40793  -0.40769
 Alpha  occ. eigenvalues --   -0.40625  -0.40593  -0.40531  -0.40497  -0.40280
 Alpha  occ. eigenvalues --   -0.40178  -0.40176  -0.40071  -0.39898  -0.39359
 Alpha  occ. eigenvalues --   -0.39321  -0.39292  -0.39221  -0.39047  -0.38913
 Alpha  occ. eigenvalues --   -0.38864  -0.38546  -0.38503  -0.38387  -0.38316
 Alpha  occ. eigenvalues --   -0.38127  -0.38102  -0.37816  -0.37816  -0.37693
 Alpha  occ. eigenvalues --   -0.37478  -0.37252  -0.37201  -0.36995  -0.36899
 Alpha  occ. eigenvalues --   -0.36725  -0.36424  -0.36410  -0.36143  -0.35855
 Alpha  occ. eigenvalues --   -0.35765  -0.35755  -0.35488  -0.35351  -0.34999
 Alpha  occ. eigenvalues --   -0.34945  -0.34085  -0.34065  -0.33896  -0.33506
 Alpha  occ. eigenvalues --   -0.33279  -0.33056  -0.32894  -0.32843  -0.32620
 Alpha  occ. eigenvalues --   -0.32379  -0.31969  -0.31587  -0.31306  -0.30878
 Alpha  occ. eigenvalues --   -0.30791  -0.30780  -0.30030  -0.29535  -0.29435
 Alpha  occ. eigenvalues --   -0.28960  -0.28806  -0.28672  -0.26749  -0.26532
 Alpha  occ. eigenvalues --   -0.26449  -0.26245  -0.25864  -0.25593  -0.25389
 Alpha  occ. eigenvalues --   -0.25229  -0.25019  -0.24840  -0.20991  -0.20759
 Alpha  occ. eigenvalues --   -0.18747  -0.18684
 Alpha virt. eigenvalues --   -0.11082  -0.11077  -0.05996  -0.05087  -0.04372
 Alpha virt. eigenvalues --   -0.03775  -0.03139  -0.02183  -0.01949  -0.01651
 Alpha virt. eigenvalues --    0.00106   0.00323   0.00793   0.00968   0.01679

 Mulliken charges:
               1
     1  Mg  11.999974
     2  C    5.999270
     3  C    6.000205
     4  C    6.000451
     5  C    5.999930
     6  N    6.999538
     7  C    6.001078
     8  C    5.999845
     9  C    6.000351
    10  C    5.999060
    11  C    6.000000
    12  C    5.999917
    13  C    6.000074
    14  H    1.000005
    15  N    7.000158
    16  C    5.998898
    17  C    5.999299
    18  C    5.999457
    19  C    5.999158
    20  C    6.000171
    21  C    5.999528
    22  O    7.999193
    23  C    6.000127
    24  N    7.000038
    25  C    5.999154
    26  C    6.000353
    27  C    5.999905
    28  C    6.000794
    29  C    6.000021
    30  C    5.999851
    31  C    5.999766
    32  N    7.000009
    33  C    6.000912
    34  C    6.001207
    35  C    5.999967
    36  C    6.000973
    37  C    5.999951
    38  C    6.000583
    39  O    8.001024
    40  C    6.000064
    41  C    6.000134
    42  O    8.000093
    43  O    8.000075
    44  C    5.999951
    45  H    0.999672
    46  H    0.999786
    47  H    1.000386
    48  H    0.999934
    49  H    0.999842
    50  H    0.999674
    51  H    1.000074
    52  H    0.999893
    53  H    0.999957
    54  H    0.999933
    55  H    1.000163
    56  H    1.000043
    57  H    0.999427
    58  H    0.999332
    59  H    0.999398
    60  H    0.999696
    61  H    0.999526
    62  H    0.999865
    63  H    0.999936
    64  H    0.999958
    65  H    1.000213
    66  H    0.999731
    67  H    0.999925
    68  H    1.000310
    69  H    0.999976
    70  H    1.000286
    71  H    1.000217
    72  H    0.999846
    73  H    1.000689
    74  H    1.000476
    75  H    1.000664
    76  H    1.000270
    77  H    1.000151
    78  H    1.000177
    79  H    1.000060
    80  Mg  11.998004
    81  C    5.981991
    82  C    6.012268
    83  C    6.013425
    84  C    5.985075
    85  N    6.996625
    86  C    6.024898
    87  C    5.996664
    88  C    6.001631
    89  C    5.972125
    90  C    6.001194
    91  C    5.995360
    92  C    5.999099
    93  H    1.006286
    94  N    7.009578
    95  C    5.958447
    96  C    5.982030
    97  C    5.987820
    98  C    5.968972
    99  C    6.004309
   100  C    5.990540
   101  O    7.978039
   102  C    6.002632
   103  N    6.996504
   104  C    5.970381
   105  C    6.010881
   106  C    5.987966
   107  C    6.035000
   108  C    6.003041
   109  C    6.000963
   110  C    5.992210
   111  N    6.997410
   112  C    6.042466
   113  C    6.027869
   114  C    6.000720
   115  C    6.026197
   116  C    6.001738
   117  C    6.019261
   118  O    8.030799
   119  C    5.997209
   120  C    6.002682
   121  O    8.005730
   122  O    8.001547
   123  C    5.997899
   124  H    0.991079
   125  H    0.996518
   126  H    1.009279
   127  H    0.998401
   128  H    0.999633
   129  H    0.986674
   130  H    1.002205
   131  H    0.998355
   132  H    1.011795
   133  H    0.997320
   134  H    0.994370
   135  H    1.002777
   136  H    0.981808
   137  H    0.985371
   138  H    0.983520
   139  H    0.989325
   140  H    0.989050
   141  H    0.988792
   142  H    0.999384
   143  H    1.004319
   144  H    1.008237
   145  H    0.994156
   146  H    0.995506
   147  H    1.009416
   148  H    1.000091
   149  H    1.008187
   150  H    0.996129
   151  H    1.001739
   152  H    1.015830
   153  H    1.011831
   154  H    1.014700
   155  H    1.009158
   156  H    1.004350
   157  H    1.005787
   158  H    0.999422
 Sum of Mulliken charges = 624.00000

 Dipole moment (field-independent basis, Debye):
    X=             -6.1911    Y=              7.6957    Z=             -0.2461  Tot=              9.8800
 Quadrupole moment (field-independent basis, Debye-Ang):
   XX=            226.2901   YY=             -6.7498   ZZ=              0.6914
   XY=           -156.3348   XZ=             10.9496   YZ=              1.0262

 Normal termination of Gaussian 16 at Thu Oct 14 08:46:47 2021.
