 Gaussian 16, Revision A.03,
 Gaussian 16:  ES64L-G16RevA.03 25-Dec-2016

 --------------------------------------------------------
 #p PBE1PBE/Def2SVP td=(nstates=5) density=(transition=1)
 --------------------------------------------------------

 --------------------------------
 TDDFT excited states in gaussian
 --------------------------------
 Symbolic Z-matrix:
 Charge =  0 Multiplicity = 1

                         Standard orientation:
 ---------------------------------------------------------------------
 Center     Atomic      Atomic             Coordinates (Angstroms)
 Number     Number       Type             X           Y           Z
 ---------------------------------------------------------------------
      1         12           0       22.157489   -0.687753    0.448135
      2          6           0       21.690265    2.364505   -1.403249
      3          6           0       22.416773    1.245677    3.249646
      4          6           0       22.893698   -3.504144    2.114689
      5          6           0       22.347602   -2.341490   -2.515000
      6          7           0       22.003458    1.648458    0.867715
      7          6           0       21.767786    2.612481   -0.069063
      8          6           0       21.546010    3.883896    0.658713
      9          6           0       21.910575    3.578735    2.138017
     10          6           0       22.192153    2.051389    2.158103
     11          6           0       23.167561    4.379606    2.604973
     12          6           0       20.179678    4.503016    0.501930
     13          6           0       19.941386    5.914172    1.014567
     14          1           0       19.295266    6.856902    0.088436
     15          7           0       22.478661   -1.081453    2.399591
     16          6           0       22.650183   -0.112201    3.426196
     17          6           0       22.783175   -0.860605    4.690244
     18          6           0       23.004284   -2.186559    4.327120
     19          6           0       22.854729   -2.295871    2.864643
     20          6           0       22.850163   -0.144714    6.023102
     21          6           0       23.267329   -3.420598    5.216995
     22          8           0       23.673870   -4.516701    4.788039
     23          6           0       22.984569   -3.275728    6.656580
     24          7           0       22.637140   -2.675263   -0.107789
     25          6           0       22.891316   -3.679697    0.705609
     26          6           0       23.183363   -5.014450   -0.033451
     27          6           0       22.754557   -4.649251   -1.456285
     28          6           0       22.524677   -3.158957   -1.351887
     29          6           0       24.695693   -5.408681    0.065588
     30          6           0       21.553290   -5.376958   -2.016447
     31          6           0       21.654084   -5.853803   -3.476267
     32          7           0       21.951761   -0.126249   -1.521144
     33          6           0       22.048440   -0.943701   -2.625992
     34          6           0       21.782351   -0.187305   -3.886675
     35          6           0       21.672232    1.087633   -3.369292
     36          6           0       21.826684    1.106711   -1.977863
     37          6           0       21.547998   -0.720464   -5.263562
     38          6           0       21.447431    2.464987   -3.782613
     39          8           0       21.222796    2.878969   -4.914365
     40          6           0       21.444324    3.370132   -2.529396
     41          6           0       22.351876    4.454415   -2.805446
     42          8           0       23.605675    4.411304   -2.789573
     43          8           0       21.665025    5.623599   -2.930788
     44          6           0       22.405047    6.866590   -2.937390
     45          1           0       22.416450    1.841044    4.164785
     46          1           0       23.292204   -4.383395    2.624842
     47          1           0       22.656117   -2.909290   -3.395054
     48          1           0       22.298910    4.541103    0.225579
     49          1           0       21.101368    3.826091    2.825330
     50          1           0       23.195244    4.978644    3.515734
     51          1           0       23.360581    5.069033    1.783217
     52          1           0       24.099845    3.814243    2.610760
     53          1           0       19.427222    3.943664    1.058097
     54          1           0       19.763083    4.325173   -0.489108
     55          1           0       20.882186    6.385668    1.294644
     56          1           0       19.151160    5.816306    1.758471
     57          1           0       23.648396   -0.492261    6.678617
     58          1           0       21.923944   -0.185960    6.595912
     59          1           0       23.083983    0.918424    5.961664
     60          1           0       21.977927   -2.873228    6.770453
     61          1           0       23.728647   -2.541820    6.964177
     62          1           0       22.967921   -4.284355    7.067846
     63          1           0       22.529588   -5.759670    0.420966
     64          1           0       23.516920   -4.751801   -2.228018
     65          1           0       25.191343   -5.344259   -0.902610
     66          1           0       24.814721   -6.445355    0.380655
     67          1           0       25.135372   -4.687255    0.754470
     68          1           0       20.641317   -4.789145   -1.917099
     69          1           0       21.319153   -6.118754   -1.253579
     70          1           0       21.010489   -6.728623   -3.563619
     71          1           0       22.682697   -5.985585   -3.813374
     72          1           0       21.261974   -4.985234   -4.004941
     73          1           0       20.497718   -0.774218   -5.550741
     74          1           0       22.121883   -1.645428   -5.312427
     75          1           0       22.134155   -0.138326   -5.975727
     76          1           0       20.462080    3.842418   -2.542218
     77          1           0       23.469573    6.763339   -2.725415
     78          1           0       21.926864    7.601890   -2.290838
     79          1           0       22.367114    7.359235   -3.909319
     80         12           0      -21.840632   -0.725426   -0.155539
     81          6           0      -23.402905    1.970640    1.380827
     82          6           0      -19.614421    1.580811   -1.480274
     83          6           0      -20.609375   -3.254238   -2.067438
     84          6           0      -24.267787   -2.825725    1.130369
     85          7           0      -21.583638    1.528446   -0.098677
     86          6           0      -22.322410    2.447168    0.631241
     87          6           0      -21.885744    3.946634    0.397156
     88          6           0      -20.867144    3.746796   -0.791202
     89          6           0      -20.686029    2.184855   -0.840016
     90          6           0      -21.186167    4.256357   -2.199774
     91          6           0      -21.316656    4.561124    1.689120
     92          6           0      -22.171043    5.577472    2.399907
     93          1           0      -21.438945    6.760881    3.057281
     94          7           0      -20.216280   -0.911874   -1.430429
     95          6           0      -19.420737    0.143331   -1.751880
     96          6           0      -18.415104   -0.394315   -2.688914
     97          6           0      -18.722069   -1.736979   -2.959496
     98          6           0      -19.847180   -2.047876   -2.166207
     99          6           0      -17.249813    0.412916   -3.096175
    100          6           0      -18.072880   -2.706666   -3.903000
    101          8           0      -18.384043   -3.928364   -3.968127
    102          6           0      -17.062125   -2.345866   -4.846749
    103          7           0      -22.296233   -2.716190   -0.365631
    104          6           0      -21.636305   -3.574748   -1.190203
    105          6           0      -22.178863   -4.949484   -1.170626
    106          6           0      -23.323307   -4.852371   -0.098879
    107          6           0      -23.329280   -3.396776    0.182238
    108          6           0      -22.670827   -5.691425   -2.448134
    109          6           0      -23.169636   -5.833391    1.166199
    110          6           0      -22.312912   -5.479155    2.417870
    111          7           0      -23.523357   -0.542886    0.973799
    112          6           0      -24.391957   -1.481200    1.452167
    113          6           0      -25.258705   -0.904390    2.384502
    114          6           0      -24.933204    0.504113    2.301155
    115          6           0      -23.855440    0.651449    1.450916
    116          6           0      -26.285745   -1.604121    3.272759
    117          6           0      -25.247608    1.761533    2.916405
    118          8           0      -25.976329    2.108606    3.823517
    119          6           0      -24.387878    2.820540    2.141168
    120          6           0      -25.256301    3.619876    1.254284
    121          8           0      -25.250009    3.612044    0.003624
    122          8           0      -26.146620    4.403972    1.900495
    123          6           0      -26.920964    5.438333    1.133170
    124          1           0      -18.957139    2.318201   -1.944407
    125          1           0      -20.284368   -4.097315   -2.680969
    126          1           0      -24.958467   -3.444914    1.707449
    127          1           0      -22.650476    4.519746   -0.128131
    128          1           0      -19.933019    4.192544   -0.449551
    129          1           0      -21.363458    3.416608   -2.872124
    130          1           0      -20.257197    4.672984   -2.586255
    131          1           0      -22.013356    4.963717   -2.268283
    132          1           0      -20.419263    5.095384    1.374913
    133          1           0      -20.996563    3.746793    2.339124
    134          1           0      -22.715356    5.052582    3.185405
    135          1           0      -22.964105    6.026612    1.801890
    136          1           0      -16.387679   -0.133612   -2.716082
    137          1           0      -17.174497    1.452827   -2.775737
    138          1           0      -17.186476    0.437803   -4.184019
    139          1           0      -17.412226   -1.418080   -5.298471
    140          1           0      -16.800828   -3.194199   -5.478010
    141          1           0      -16.150441   -2.025221   -4.342581
    142          1           0      -21.308034   -5.470964   -0.774439
    143          1           0      -24.280031   -5.064263   -0.574794
    144          1           0      -22.046653   -6.552412   -2.687483
    145          1           0      -22.623091   -5.042745   -3.323454
    146          1           0      -23.715335   -5.998391   -2.395748
    147          1           0      -22.687420   -6.702551    0.718336
    148          1           0      -24.217776   -6.040982    1.382153
    149          1           0      -21.945607   -4.454019    2.458091
    150          1           0      -21.531270   -6.192408    2.680959
    151          1           0      -23.005451   -5.625657    3.245702
    152          1           0      -27.289531   -1.203076    3.128628
    153          1           0      -26.024504   -1.386170    4.308175
    154          1           0      -26.286108   -2.691710    3.195664
    155          1           0      -24.046212    3.555390    2.870316
    156          1           0      -27.266051    6.007477    1.996471
    157          1           0      -27.733887    5.047908    0.521824
    158          1           0      -26.244936    5.997851    0.485878
 ---------------------------------------------------------------------

 SCF Done:  E(RPBE1PBE) =  -4067.39294359     A.U. after   16 cycles

 Excitation energies and oscillator strengths:

 Excited State   1:      Singlet-A      1.8654 eV  664.65 nm  f=0.3666  <S**2>=0.000
     310 -> 316        0.17013
     311 -> 313        0.69170
     311 <- 313       -0.10906
 This state for optimization and/or second-order correction.
 Total Energy, E(TD-HF/TD-DFT) =  -4067.32439097
 Copying the excited state density for this state as the 1-particle RhoCI density.

 Excited State   2:      Singlet-A      1.9171 eV  646.72 nm  f=0.3718  <S**2>=0.000
     309 -> 315        0.19065
     312 -> 314        0.68790

 Excited State   3:      Singlet-A      1.9708 eV  629.10 nm  f=0.0000  <S**2>=0.000
     312 -> 313        0.70711

 Excited State   4:      Singlet-A      2.0938 eV  592.14 nm  f=0.0000  <S**2>=0.000
     311 -> 314        0.70711

 Excited State   5:      Singlet-A      2.2250 eV  557.22 nm  f=0.1297  <S**2>=0.000
     310 -> 313        0.65909
     311 -> 316       -0.23850

 The electronic state is 1-A.
 Alpha  occ. eigenvalues --  -46.91925 -46.90943 -19.25844 -19.24679 -19.19238
 Alpha  occ. eigenvalues --  -19.19112 -19.18881 -19.18514 -19.18509 -19.18178
 Alpha  occ. eigenvalues --  -14.41475 -14.41432 -14.41411 -14.40642 -14.39448
 Alpha  occ. eigenvalues --  -14.39285 -14.39194 -14.38065 -10.36146 -10.35534
 Alpha  occ. eigenvalues --  -10.32355 -10.31670 -10.31597 -10.31360 -10.29226
 Alpha  occ. eigenvalues --  -10.28747 -10.28588 -10.28481 -10.28461 -10.28428
 Alpha  occ. eigenvalues --  -10.28284 -10.28261 -10.28240 -10.28173 -10.28150
 Alpha  occ. eigenvalues --  -10.28065 -10.27843 -10.27797 -10.27688 -10.26661
 Alpha  occ. eigenvalues --  -10.26390 -10.26292 -10.26150 -10.26107 -10.25986
 Alpha  occ. eigenvalues --  -10.25975 -10.25965 -10.25934 -10.25849 -10.25799
 Alpha  occ. eigenvalues --  -10.25642 -10.25611 -10.25462 -10.25408 -10.25318
 Alpha  occ. eigenvalues --  -10.25257 -10.25116 -10.25039 -10.24988 -10.24969
 Alpha  occ. eigenvalues --  -10.24962 -10.24946 -10.24924 -10.24840 -10.24718
 Alpha  occ. eigenvalues --  -10.24523 -10.24487 -10.24359 -10.24322 -10.24274
 Alpha  occ. eigenvalues --  -10.23899 -10.23778 -10.23702 -10.23617 -10.23510
 Alpha  occ. eigenvalues --  -10.23505 -10.23504 -10.23468 -10.23434 -10.23422
 Alpha  occ. eigenvalues --  -10.23347 -10.23200 -10.23165 -10.22910 -10.22421
 Alpha  occ. eigenvalues --  -10.22375  -3.14109  -3.13235  -1.86959  -1.86474
 Alpha  occ. eigenvalues --   -1.86345  -1.86088  -1.85614  -1.85463  -1.10915
 Alpha  occ. eigenvalues --   -1.09878  -1.04331  -1.04254  -1.03743  -1.02613
 Alpha  occ. eigenvalues --   -1.00766  -1.00458  -0.99881  -0.99535  -0.99340
 Alpha  occ. eigenvalues --   -0.98769  -0.97871  -0.97705  -0.96880  -0.96836
 Alpha  occ. eigenvalues --   -0.87579  -0.87491  -0.84452  -0.83609  -0.83278
 Alpha  occ. eigenvalues --   -0.82805  -0.82738  -0.82618  -0.81890  -0.81843
 Alpha  occ. eigenvalues --   -0.81418  -0.81334  -0.81001  -0.80465  -0.79008
 Alpha  occ. eigenvalues --   -0.78634  -0.78365  -0.77943  -0.77241  -0.76983
 Alpha  occ. eigenvalues --   -0.76773  -0.76717  -0.75618  -0.75308  -0.75301
 Alpha  occ. eigenvalues --   -0.74881  -0.72964  -0.72891  -0.72062  -0.71834
 Alpha  occ. eigenvalues --   -0.71789  -0.71145  -0.70900  -0.70518  -0.69655
 Alpha  occ. eigenvalues --   -0.69631  -0.67564  -0.67493  -0.66437  -0.65784
 Alpha  occ. eigenvalues --   -0.64499  -0.63954  -0.63679  -0.63132  -0.62525
 Alpha  occ. eigenvalues --   -0.62444  -0.61511  -0.60963  -0.60880  -0.59878
 Alpha  occ. eigenvalues --   -0.59684  -0.59682  -0.59507  -0.59220  -0.59147
 Alpha  occ. eigenvalues --   -0.58916  -0.57169  -0.56080  -0.54951  -0.54529
 Alpha  occ. eigenvalues --   -0.54501  -0.54183  -0.54091  -0.53725  -0.53431
 Alpha  occ. eigenvalues --   -0.53271  -0.52883  -0.52259  -0.52256  -0.51844
 Alpha  occ. eigenvalues --   -0.51088  -0.50779  -0.50282  -0.50122  -0.50120
 Alpha  occ. eigenvalues --   -0.49472  -0.48996  -0.48929  -0.48600  -0.48469
 Alpha  occ. eigenvalues --   -0.48406  -0.47969  -0.47838  -0.47772  -0.47495
 Alpha  occ. eigenvalues --   -0.47268  -0.47106  -0.47024  -0.46675  -0.46596
 Alpha  occ. eigenvalues --   -0.46518  -0.46515  -0.46259  -0.45822  -0.45669
 Alpha  occ. eigenvalues --   -0.45449  -0.45413  -0.45062  -0.44967  -0.44896
 Alpha  occ. eigenvalues --   -0.44801  -0.44619  -0.44353  -0.44268  -0.44209
 Alpha  occ. eigenvalues --   -0.44006  -0.43663  -0.43609  -0.43449  -0.43308
 Alpha  occ. eigenvalues --   -0.43057  -0.43048  -0.43019  -0.42816  -0.42610
 Alpha  occ. eigenvalues --   -0.42599  -0.42424  -0.42421  -0.42045  -0.41929
 Alpha  occ. eigenvalues --   -0.41900  -0.41733  -0.41438  -0.41308  -0.41188
 Alpha  occ. eigenvalues --   -0.40996  -0.40991  -0.40875  -0.40784  -0.40435
 Alpha  occ. eigenvalues --   -0.40416  -0.40183  -0.40080  -0.39981  -0.39926
 Alpha  occ. eigenvalues --   -0.39904  -0.39592  -0.39357  -0.39050  -0.38793
 Alpha  occ. eigenvalues --   -0.38792  -0.38590  -0.38582  -0.38549  -0.38538
 Alpha  occ. eigenvalues --   -0.38187  -0.38150  -0.38055  -0.37771  -0.37672
 Alpha  occ. eigenvalues --   -0.37375  -0.37356  -0.37235  -0.36948  -0.36619
 Alpha  occ. eigenvalues --   -0.36493  -0.36455  -0.36401  -0.36258  -0.36104
 Alpha  occ. eigenvalues --   -0.36010  -0.36003  -0.35767  -0.35643  -0.35180
 Alpha  occ. eigenvalues --   -0.35069  -0.34925  -0.34812  -0.34608  -0.33828
 Alpha  occ. eigenvalues --   -0.33766  -0.33230  -0.32941  -0.32842  -0.32151
 Alpha  occ. eigenvalues --   -0.31921  -0.31597  -0.31480  -0.31094  -0.31018
 Alpha  occ. eigenvalues --   -0.30619  -0.30525  -0.29538  -0.29099  -0.28788
 Alpha  occ. eigenvalues --   -0.28606  -0.28213  -0.27571  -0.27195  -0.26669
 Alpha  occ. eigenvalues --   -0.26224  -0.25903  -0.25765  -0.25642  -0.25430
 Alpha  occ. eigenvalues --   -0.25213  -0.25025  -0.24896  -0.21035  -0.20618
 Alpha  occ. eigenvalues --   -0.18713  -0.18632
 Alpha virt. eigenvalues --   -0.11091  -0.10721  -0.05266  -0.04886  -0.03533
 Alpha virt. eigenvalues --   -0.03520  -0.02037  -0.01943  -0.00157   0.00354
 Alpha virt. eigenvalues --    0.00606   0.00833   0.01420   0.01431   0.01920

 Mulliken charges:
               1
     1  Mg  11.999985
     2  C    6.000047
     3  C    6.000044
     4  C    5.999939
     5  C    5.999903
     6  N    7.000078
     7  C    5.999864
     8  C    6.000042
     9  C    5.999934
    10  C    6.000082
    11  C    5.999945
    12  C    6.000042
    13  C    5.999999
    14  H    0.999980
    15  N    6.999939
    16  C    6.000209
    17  C    6.000130
    18  C    6.000064
    19  C    6.000151
    20  C    5.999975
    21  C    6.000106
    22  O    8.000191
    23  C    5.999988
    24  N    6.999940
    25  C    6.000144
    26  C    5.999966
    27  C    6.000050
    28  C    5.999903
    29  C    5.999998
    30  C    6.000076
    31  C    6.000001
    32  N    7.000024
    33  C    5.999881
    34  C    5.999808
    35  C    6.000015
    36  C    5.999860
    37  C    5.999978
    38  C    5.999845
    39  O    7.999785
    40  C    5.999993
    41  C    5.999992
    42  O    8.000005
    43  O    7.999969
    44  C    6.000006
    45  H    1.000084
    46  H    1.000031
    47  H    0.999933
    48  H    1.000043
    49  H    1.000010
    50  H    1.000049
    51  H    1.000093
    52  H    1.000029
    53  H    0.999923
    54  H    1.000007
    55  H    1.000024
    56  H    0.999961
    57  H    1.000137
    58  H    1.000103
    59  H    1.000109
    60  H    1.000019
    61  H    1.000062
    62  H    1.000109
    63  H    0.999965
    64  H    1.000013
    65  H    1.000073
    66  H    1.000020
    67  H    0.999982
    68  H    0.999935
    69  H    0.999904
    70  H    0.999927
    71  H    1.000012
    72  H    1.000011
    73  H    0.999820
    74  H    0.999935
    75  H    0.999916
    76  H    0.999921
    77  H    1.000014
    78  H    0.999966
    79  H    0.999982
    80  Mg  12.000124
    81  C    6.017718
    82  C    5.986198
    83  C    5.982749
    84  C    5.996399
    85  N    7.004855
    86  C    5.973974
    87  C    6.011584
    88  C    5.994445
    89  C    6.025585
    90  C    5.998283
    91  C    6.003780
    92  C    6.001915
    93  H    0.993570
    94  N    6.995718
    95  C    6.039743
    96  C    6.029812
    97  C    6.005818
    98  C    6.032700
    99  C    5.994406
   100  C    6.011550
   101  O    8.024672
   102  C    5.995856
   103  N    6.991535
   104  C    6.038003
   105  C    5.985669
   106  C    6.012743
   107  C    5.967218
   108  C    6.001052
   109  C    6.003846
   110  C    6.001447
   111  N    7.003267
   112  C    5.975622
   113  C    5.971749
   114  C    5.995403
   115  C    5.973611
   116  C    6.001835
   117  C    5.985921
   118  O    7.972403
   119  C    5.995406
   120  C    5.998995
   121  O    7.989587
   122  O    8.001471
   123  C    6.001915
   124  H    1.009740
   125  H    1.007939
   126  H    0.987179
   127  H    0.996351
   128  H    1.000650
   129  H    0.996285
   130  H    0.999119
   131  H    1.011716
   132  H    0.991330
   133  H    0.999583
   134  H    1.005169
   135  H    1.000379
   136  H    1.020298
   137  H    1.019636
   138  H    1.021141
   139  H    1.003440
   140  H    1.013183
   141  H    1.006471
   142  H    0.999810
   143  H    0.999493
   144  H    0.999798
   145  H    0.997188
   146  H    1.009915
   147  H    0.988075
   148  H    1.001480
   149  H    1.000778
   150  H    0.991703
   151  H    1.001621
   152  H    0.982593
   153  H    0.983323
   154  H    0.984320
   155  H    0.991706
   156  H    0.997098
   157  H    0.997282
   158  H    0.994054
 Sum of Mulliken charges = 624.00000

 Dipole moment (field-independent basis, Debye):
    X=              7.9539    Y=             -0.8078    Z=             -6.3023  Tot=             10.1801
 Quadrupole moment (field-independent basis, Debye-Ang):
   XX=           -345.3919   YY=             -2.9534   ZZ=              3.6555
   XY=             13.0338   XZ=            137.8431   YZ=              4.7996

 Normal termination of Gaussian 16 at Fri Oct 15 04:15:59 2021.
