 Gaussian 16, Revision A.03,
 Gaussian 16:  ES64L-G16RevA.03 25-Dec-2016

 --------------------------------------------------------
 #p PBE1PBE/Def2SVP td=(nstates=5) density=(transition=1)
 --------------------------------------------------------

 --------------------------------
 TDDFT excited states in gaussian
 --------------------------------
 Symbolic Z-matrix:
 Charge =  0 Multiplicity = 1

                         Standard orientation:
 ---------------------------------------------------------------------
 Center     Atomic      Atomic             Coordinates (Angstroms)
 Number     Number       Type             X           Y           Z
 ---------------------------------------------------------------------
      1         12           0      -24.761789   -0.595867   -0.557482
      2          6           0      -26.093975    1.674460    1.868029
      3          6           0      -24.583026    2.044294   -2.711701
      4          6           0      -24.015479   -2.656510   -2.849511
      5          6           0      -26.087905   -3.188113    1.357547
      6          7           0      -25.298385    1.540085   -0.332945
      7          6           0      -25.743010    2.294856    0.666956
      8          6           0      -25.729737    3.818919    0.343802
      9          6           0      -25.791036    3.739397   -1.247398
     10          6           0      -25.154251    2.375383   -1.447140
     11          6           0      -27.211725    3.704097   -1.801382
     12          6           0      -24.417019    4.518838    0.832284
     13          6           0      -24.460815    6.049550    0.851132
     14          1           0      -23.754672    6.757362    1.908352
     15          7           0      -23.910354   -0.303227   -2.315968
     16          6           0      -23.923694    0.840503   -3.041909
     17          6           0      -23.153443    0.552228   -4.270848
     18          6           0      -22.852834   -0.906347   -4.287806
     19          6           0      -23.613154   -1.357376   -3.150324
     20          6           0      -22.739765    1.608236   -5.249351
     21          6           0      -22.021951   -1.760088   -5.192732
     22          8           0      -22.081927   -3.036939   -5.167633
     23          6           0      -21.190567   -1.052329   -6.183145
     24          7           0      -25.198708   -2.616350   -0.847974
     25          6           0      -24.703731   -3.285822   -1.894773
     26          6           0      -24.911220   -4.763841   -1.745288
     27          6           0      -25.438893   -4.987661   -0.254913
     28          6           0      -25.524667   -3.506779    0.189950
     29          6           0      -25.892588   -5.405456   -2.735873
     30          6           0      -24.643677   -5.979097    0.631149
     31          6           0      -23.271796   -5.415869    0.927483
     32          7           0      -25.737678   -0.776656    1.372803
     33          6           0      -26.227361   -1.950601    1.963344
     34          6           0      -26.898811   -1.556658    3.215555
     35          6           0      -26.766659   -0.170101    3.258457
     36          6           0      -26.080568    0.276571    2.093100
     37          6           0      -27.576065   -2.432509    4.109225
     38          6           0      -27.067069    1.040431    4.005600
     39          8           0      -27.547491    1.278148    5.114734
     40          6           0      -26.750923    2.294292    3.076239
     41          6           0      -25.947158    3.271808    3.889708
     42          8           0      -24.789339    2.993619    4.263116
     43          8           0      -26.568978    4.460850    3.897432
     44          6           0      -25.808790    5.484522    4.663177
     45          1           0      -24.700840    2.742092   -3.543049
     46          1           0      -23.680516   -3.413606   -3.561581
     47          1           0      -26.450942   -3.950987    2.048691
     48          1           0      -26.589970    4.371295    0.722358
     49          1           0      -25.184332    4.513292   -1.717205
     50          1           0      -27.948193    3.609032   -1.003574
     51          1           0      -27.246761    2.834144   -2.457468
     52          1           0      -27.400402    4.568110   -2.439080
     53          1           0      -23.631066    4.364812    0.092950
     54          1           0      -24.129632    4.154210    1.819088
     55          1           0      -25.482137    6.420223    0.759412
     56          1           0      -23.958017    6.416660   -0.043644
     57          1           0      -23.246189    2.553207   -5.056712
     58          1           0      -23.107082    1.297630   -6.227262
     59          1           0      -21.657391    1.732632   -5.285728
     60          1           0      -21.831333   -0.444537   -6.822330
     61          1           0      -20.598698   -1.819069   -6.681794
     62          1           0      -20.532310   -0.358088   -5.660004
     63          1           0      -23.975581   -5.305482   -1.878071
     64          1           0      -26.458669   -5.372832   -0.235595
     65          1           0      -25.458025   -6.218098   -3.318516
     66          1           0      -26.276835   -4.620063   -3.386106
     67          1           0      -26.810869   -5.785028   -2.288546
     68          1           0      -24.496602   -6.922533    0.106511
     69          1           0      -25.135730   -6.199639    1.578512
     70          1           0      -22.697189   -5.698056    0.045991
     71          1           0      -22.858335   -5.874502    1.826325
     72          1           0      -23.289330   -4.326665    0.970080
     73          1           0      -27.279588   -2.131973    5.114087
     74          1           0      -27.318363   -3.473377    3.914838
     75          1           0      -28.614051   -2.206765    3.865338
     76          1           0      -27.711405    2.708180    2.770800
     77          1           0      -26.480506    5.879522    5.425415
     78          1           0      -25.407394    6.184787    3.930431
     79          1           0      -24.990463    5.114426    5.281811
     80         12           0       24.985808   -0.832173    0.286559
     81          6           0       25.319610    2.359031   -1.486064
     82          6           0       23.878164    1.048525    3.027367
     83          6           0       24.998399   -3.578205    2.043469
     84          6           0       25.917816   -2.478233   -2.574172
     85          7           0       24.840876    1.421171    0.781573
     86          6           0       24.899383    2.561432   -0.124674
     87          6           0       24.603309    3.914589    0.556886
     88          6           0       24.345924    3.388292    2.085697
     89          6           0       24.360967    1.848848    2.011868
     90          6           0       25.329097    3.943990    3.097567
     91          6           0       23.426864    4.644404   -0.159266
     92          6           0       22.852285    5.815278    0.579922
     93          1           0       22.538669    7.093517   -0.165343
     94          7           0       24.525328   -1.247585    2.298194
     95          6           0       24.078657   -0.350801    3.275358
     96          6           0       23.812844   -1.070775    4.519410
     97          6           0       24.133308   -2.465027    4.254270
     98          6           0       24.581884   -2.518223    2.813765
     99          6           0       23.205351   -0.429128    5.820459
    100          6           0       24.121885   -3.661797    5.135519
    101          8           0       24.388086   -4.800806    4.775596
    102          6           0       23.655610   -3.547788    6.527625
    103          7           0       25.297641   -2.711199   -0.198256
    104          6           0       25.373541   -3.681580    0.714376
    105          6           0       25.713322   -5.058028    0.096103
    106          6           0       25.558150   -4.758260   -1.380413
    107          6           0       25.660468   -3.184255   -1.421244
    108          6           0       27.107406   -5.554640    0.461394
    109          6           0       24.377470   -5.226174   -2.191260
    110          6           0       23.049988   -4.648384   -1.749135
    111          7           0       25.609396   -0.234640   -1.608657
    112          6           0       25.864358   -1.063391   -2.716186
    113          6           0       26.181050   -0.236188   -3.854298
    114          6           0       25.891388    1.067763   -3.376418
    115          6           0       25.562002    1.035269   -2.007955
    116          6           0       26.511210   -0.657426   -5.256474
    117          6           0       25.806678    2.478380   -3.866412
    118          8           0       25.904655    2.951812   -5.018715
    119          6           0       25.468933    3.321875   -2.639069
    120          6           0       26.522277    4.415360   -2.449147
    121          8           0       27.758331    4.324036   -2.188942
    122          8           0       25.860854    5.607710   -2.462725
    123          6           0       26.691919    6.806405   -2.209115
    124          1           0       23.347204    1.607339    3.799581
    125          1           0       25.071259   -4.497885    2.627625
    126          1           0       26.245559   -2.932232   -3.511804
    127          1           0       25.491060    4.520979    0.377436
    128          1           0       23.313848    3.604265    2.361952
    129          1           0       24.769360    4.479172    3.865157
    130          1           0       25.959274    4.648511    2.555932
    131          1           0       26.121270    3.282271    3.447171
    132          1           0       22.719111    3.859453   -0.428047
    133          1           0       23.783604    5.011037   -1.121850
    134          1           0       23.452336    6.233574    1.387720
    135          1           0       21.868920    5.546504    0.964664
    136          1           0       22.253546   -0.942155    5.961197
    137          1           0       23.015430    0.640222    5.729414
    138          1           0       23.914078   -0.641428    6.621020
    139          1           0       24.038552   -2.671280    7.050708
    140          1           0       24.040504   -4.451586    6.998657
    141          1           0       22.587363   -3.358512    6.426631
    142          1           0       24.983816   -5.768966    0.484198
    143          1           0       26.372609   -5.178124   -1.971399
    144          1           0       27.051136   -6.624566    0.658526
    145          1           0       27.482105   -5.057550    1.355523
    146          1           0       27.767659   -5.493932   -0.404503
    147          1           0       24.393781   -6.316300   -2.205953
    148          1           0       24.431552   -4.849185   -3.212427
    149          1           0       22.274690   -5.410718   -1.681939
    150          1           0       22.647179   -3.926112   -2.459537
    151          1           0       23.072206   -4.168118   -0.770816
    152          1           0       25.856890   -0.139256   -5.957093
    153          1           0       26.472313   -1.707311   -5.546766
    154          1           0       27.538426   -0.344683   -5.445039
    155          1           0       24.538568    3.853714   -2.840270
    156          1           0       26.571090    7.125465   -1.174093
    157          1           0       26.282223    7.456850   -2.981897
    158          1           0       27.734720    6.658350   -2.492652
 ---------------------------------------------------------------------

 SCF Done:  E(RPBE1PBE) =  -4067.39183311     A.U. after   17 cycles

 Excitation energies and oscillator strengths:

 Excited State   1:      Singlet-A      1.8175 eV  682.18 nm  f=0.3802  <S**2>=0.000
     309 -> 316       -0.16219
     311 -> 313        0.69594
     311 <- 313       -0.11404
 This state for optimization and/or second-order correction.
 Total Energy, E(TD-HF/TD-DFT) =  -4067.32504248
 Copying the excited state density for this state as the 1-particle RhoCI density.

 Excited State   2:      Singlet-A      1.8414 eV  673.30 nm  f=0.3820  <S**2>=0.000
     310 -> 315       -0.16196
     312 -> 314        0.69324
     312 <- 314       -0.11107

 Excited State   3:      Singlet-A      1.8479 eV  670.94 nm  f=0.0000  <S**2>=0.000
     312 -> 313        0.70711

 Excited State   4:      Singlet-A      2.0757 eV  597.31 nm  f=0.0000  <S**2>=0.000
     311 -> 314        0.70711

 Excited State   5:      Singlet-A      2.1799 eV  568.77 nm  f=0.1276  <S**2>=0.000
     309 -> 313        0.66146
     311 -> 316        0.23367

 The electronic state is 1-A.
 Alpha  occ. eigenvalues --  -46.91194 -46.91176 -19.26928 -19.26526 -19.20022
 Alpha  occ. eigenvalues --  -19.19309 -19.19014 -19.18914 -19.18785 -19.18419
 Alpha  occ. eigenvalues --  -14.42099 -14.41949 -14.41671 -14.40962 -14.39532
 Alpha  occ. eigenvalues --  -14.39055 -14.38686 -14.38259 -10.37107 -10.36111
 Alpha  occ. eigenvalues --  -10.32496 -10.32001 -10.31624 -10.31576 -10.29926
 Alpha  occ. eigenvalues --  -10.29221 -10.29149 -10.29060 -10.28911 -10.28807
 Alpha  occ. eigenvalues --  -10.28662 -10.28639 -10.28586 -10.28222 -10.28156
 Alpha  occ. eigenvalues --  -10.28140 -10.28005 -10.27867 -10.27548 -10.27327
 Alpha  occ. eigenvalues --  -10.27262 -10.27040 -10.26847 -10.26815 -10.26583
 Alpha  occ. eigenvalues --  -10.26571 -10.26569 -10.26473 -10.26338 -10.26065
 Alpha  occ. eigenvalues --  -10.26023 -10.25903 -10.25829 -10.25720 -10.25489
 Alpha  occ. eigenvalues --  -10.25457 -10.25379 -10.25353 -10.25276 -10.25257
 Alpha  occ. eigenvalues --  -10.25214 -10.25137 -10.25106 -10.24855 -10.24855
 Alpha  occ. eigenvalues --  -10.24780 -10.24718 -10.24482 -10.24286 -10.23798
 Alpha  occ. eigenvalues --  -10.23704 -10.23690 -10.23618 -10.23617 -10.23560
 Alpha  occ. eigenvalues --  -10.23347 -10.23278 -10.23271 -10.23073 -10.22933
 Alpha  occ. eigenvalues --  -10.22916 -10.22736 -10.22598 -10.22405 -10.22095
 Alpha  occ. eigenvalues --  -10.21989  -3.13511  -3.13492  -1.86339  -1.86334
 Alpha  occ. eigenvalues --   -1.85899  -1.85879  -1.85745  -1.85717  -1.11426
 Alpha  occ. eigenvalues --   -1.10885  -1.04909  -1.03371  -1.02710  -1.01841
 Alpha  occ. eigenvalues --   -1.01454  -1.00668  -0.99673  -0.99175  -0.98371
 Alpha  occ. eigenvalues --   -0.97902  -0.97717  -0.97092  -0.96740  -0.95167
 Alpha  occ. eigenvalues --   -0.86779  -0.86333  -0.84005  -0.83836  -0.83456
 Alpha  occ. eigenvalues --   -0.83140  -0.82964  -0.82595  -0.82207  -0.81978
 Alpha  occ. eigenvalues --   -0.81631  -0.81442  -0.81092  -0.80351  -0.79237
 Alpha  occ. eigenvalues --   -0.79029  -0.78419  -0.78228  -0.77235  -0.77160
 Alpha  occ. eigenvalues --   -0.76876  -0.76318  -0.75897  -0.75824  -0.74946
 Alpha  occ. eigenvalues --   -0.74416  -0.73107  -0.72673  -0.71633  -0.71548
 Alpha  occ. eigenvalues --   -0.71234  -0.71217  -0.70340  -0.70245  -0.69820
 Alpha  occ. eigenvalues --   -0.69229  -0.67307  -0.67244  -0.66343  -0.66091
 Alpha  occ. eigenvalues --   -0.64599  -0.64223  -0.63829  -0.63235  -0.62122
 Alpha  occ. eigenvalues --   -0.62068  -0.61639  -0.61557  -0.59710  -0.59596
 Alpha  occ. eigenvalues --   -0.59422  -0.59242  -0.59100  -0.58771  -0.58766
 Alpha  occ. eigenvalues --   -0.58391  -0.56878  -0.56595  -0.54948  -0.54680
 Alpha  occ. eigenvalues --   -0.54309  -0.53807  -0.53721  -0.53626  -0.53121
 Alpha  occ. eigenvalues --   -0.52927  -0.52298  -0.52108  -0.51960  -0.51805
 Alpha  occ. eigenvalues --   -0.50876  -0.50828  -0.50464  -0.50377  -0.50057
 Alpha  occ. eigenvalues --   -0.50000  -0.49838  -0.49798  -0.49365  -0.49083
 Alpha  occ. eigenvalues --   -0.48957  -0.48463  -0.47956  -0.47871  -0.47756
 Alpha  occ. eigenvalues --   -0.47558  -0.47506  -0.47358  -0.47106  -0.47091
 Alpha  occ. eigenvalues --   -0.46981  -0.46819  -0.46420  -0.46188  -0.45862
 Alpha  occ. eigenvalues --   -0.45835  -0.45429  -0.45179  -0.45086  -0.45014
 Alpha  occ. eigenvalues --   -0.44821  -0.44637  -0.44507  -0.44486  -0.44132
 Alpha  occ. eigenvalues --   -0.43953  -0.43866  -0.43711  -0.43524  -0.43488
 Alpha  occ. eigenvalues --   -0.43231  -0.43223  -0.43119  -0.43014  -0.42951
 Alpha  occ. eigenvalues --   -0.42764  -0.42434  -0.42340  -0.42170  -0.41953
 Alpha  occ. eigenvalues --   -0.41746  -0.41568  -0.41495  -0.41340  -0.41248
 Alpha  occ. eigenvalues --   -0.41074  -0.40914  -0.40878  -0.40717  -0.40558
 Alpha  occ. eigenvalues --   -0.40508  -0.40212  -0.39944  -0.39706  -0.39306
 Alpha  occ. eigenvalues --   -0.39264  -0.39226  -0.39159  -0.39099  -0.38903
 Alpha  occ. eigenvalues --   -0.38856  -0.38842  -0.38747  -0.38371  -0.38285
 Alpha  occ. eigenvalues --   -0.38242  -0.37921  -0.37863  -0.37494  -0.37491
 Alpha  occ. eigenvalues --   -0.37449  -0.37364  -0.37059  -0.36862  -0.36702
 Alpha  occ. eigenvalues --   -0.36567  -0.36494  -0.36372  -0.36094  -0.35966
 Alpha  occ. eigenvalues --   -0.35781  -0.35747  -0.35597  -0.35485  -0.35366
 Alpha  occ. eigenvalues --   -0.35014  -0.34859  -0.34338  -0.34213  -0.34013
 Alpha  occ. eigenvalues --   -0.33859  -0.33421  -0.32729  -0.32385  -0.32346
 Alpha  occ. eigenvalues --   -0.32259  -0.32188  -0.31829  -0.31710  -0.31596
 Alpha  occ. eigenvalues --   -0.31260  -0.31198  -0.29546  -0.29513  -0.29144
 Alpha  occ. eigenvalues --   -0.28922  -0.28630  -0.28418  -0.27092  -0.26724
 Alpha  occ. eigenvalues --   -0.26006  -0.25865  -0.25796  -0.25397  -0.25119
 Alpha  occ. eigenvalues --   -0.25027  -0.24957  -0.24832  -0.21173  -0.20980
 Alpha  occ. eigenvalues --   -0.19119  -0.18763
 Alpha virt. eigenvalues --   -0.11709  -0.11227  -0.05348  -0.05247  -0.04158
 Alpha virt. eigenvalues --   -0.03885  -0.02216  -0.02179  -0.00338   0.00081
 Alpha virt. eigenvalues --    0.00348   0.00418   0.00445   0.01459   0.01931

 Mulliken charges:
               1
     1  Mg  12.000002
     2  C    6.000124
     3  C    5.999914
     4  C    5.999833
     5  C    6.000082
     6  N    7.000078
     7  C    5.999703
     8  C    6.000049
     9  C    5.999956
    10  C    6.000208
    11  C    5.999981
    12  C    6.000023
    13  C    6.000010
    14  H    0.999984
    15  N    6.999966
    16  C    6.000285
    17  C    6.000270
    18  C    6.000121
    19  C    6.000215
    20  C    5.999942
    21  C    6.000110
    22  O    8.000265
    23  C    5.999967
    24  N    6.999935
    25  C    6.000291
    26  C    5.999898
    27  C    6.000104
    28  C    5.999769
    29  C    6.000003
    30  C    6.000039
    31  C    6.000011
    32  N    7.000025
    33  C    5.999682
    34  C    5.999771
    35  C    5.999960
    36  C    5.999746
    37  C    6.000053
    38  C    5.999862
    39  O    7.999726
    40  C    5.999989
    41  C    5.999972
    42  O    7.999938
    43  O    7.999990
    44  C    6.000021
    45  H    1.000084
    46  H    1.000061
    47  H    0.999915
    48  H    1.000015
    49  H    1.000005
    50  H    1.000130
    51  H    0.999972
    52  H    1.000048
    53  H    0.999893
    54  H    1.000034
    55  H    1.000005
    56  H    0.999963
    57  H    1.000168
    58  H    1.000192
    59  H    1.000184
    60  H    1.000061
    61  H    1.000137
    62  H    1.000055
    63  H    0.999987
    64  H    0.999968
    65  H    1.000004
    66  H    0.999971
    67  H    1.000078
    68  H    0.999921
    69  H    1.000006
    70  H    0.999909
    71  H    0.999955
    72  H    1.000026
    73  H    0.999843
    74  H    0.999850
    75  H    0.999849
    76  H    0.999946
    77  H    0.999972
    78  H    0.999959
    79  H    0.999962
    80  Mg  11.997801
    81  C    6.015924
    82  C    5.994080
    83  C    5.985498
    84  C    6.009750
    85  N    7.005722
    86  C    5.968653
    87  C    6.010441
    88  C    5.992327
    89  C    6.024241
    90  C    5.993316
    91  C    6.003003
    92  C    5.999603
    93  H    0.999505
    94  N    6.995590
    95  C    6.035517
    96  C    6.021797
    97  C    6.015315
    98  C    6.029174
    99  C    6.001403
   100  C    6.012006
   101  O    8.030112
   102  C    5.996769
   103  N    7.001477
   104  C    6.033192
   105  C    5.992503
   106  C    6.001669
   107  C    5.967449
   108  C    5.998335
   109  C    6.007031
   110  C    6.005004
   111  N    7.001336
   112  C    5.960547
   113  C    5.978418
   114  C    5.993879
   115  C    5.967578
   116  C    6.002778
   117  C    5.980951
   118  O    7.969236
   119  C    6.002048
   120  C    5.997449
   121  O    7.994118
   122  O    7.998356
   123  C    6.001069
   124  H    1.010677
   125  H    1.006301
   126  H    0.990708
   127  H    1.000046
   128  H    0.999950
   129  H    1.001296
   130  H    1.012768
   131  H    0.997967
   132  H    0.997588
   133  H    1.005772
   134  H    0.995366
   135  H    0.994902
   136  H    1.015312
   137  H    1.016883
   138  H    1.014886
   139  H    1.006853
   140  H    1.013832
   141  H    1.007864
   142  H    0.998496
   143  H    0.999680
   144  H    1.002411
   145  H    0.994720
   146  H    1.012516
   147  H    0.989924
   148  H    1.004415
   149  H    0.994252
   150  H    1.005478
   151  H    0.985273
   152  H    0.985660
   153  H    0.982586
   154  H    0.983257
   155  H    0.991897
   156  H    0.993490
   157  H    0.997115
   158  H    0.997884
 Sum of Mulliken charges = 624.00000

 Dipole moment (field-independent basis, Debye):
    X=             -2.2051    Y=             -2.9598    Z=              9.8342  Tot=             10.5040
 Quadrupole moment (field-independent basis, Debye-Ang):
   XX=           -113.9882   YY=              0.3836   ZZ=              9.3108
   XY=            -73.9754   XZ=            248.8158   YZ=             -8.2077

 Normal termination of Gaussian 16 at Thu Oct 14 14:23:26 2021.
