 Gaussian 16, Revision A.03,
 Gaussian 16:  ES64L-G16RevA.03 25-Dec-2016

 --------------------------------------------------------
 #p PBE1PBE/Def2SVP td=(nstates=5) density=(transition=1)
 --------------------------------------------------------

 --------------------------------
 TDDFT excited states in gaussian
 --------------------------------
 Symbolic Z-matrix:
 Charge =  0 Multiplicity = 1

                         Standard orientation:
 ---------------------------------------------------------------------
 Center     Atomic      Atomic             Coordinates (Angstroms)
 Number     Number       Type             X           Y           Z
 ---------------------------------------------------------------------
      1         12           0      -28.551092    0.214580    0.358342
      2          6           0      -26.801716   -1.982070   -1.531401
      3          6           0      -28.110943    2.656384   -2.072421
      4          6           0      -30.295561    2.413253    2.251523
      5          6           0      -28.567857   -2.049286    2.977058
      6          7           0      -27.674984    0.223697   -1.556313
      7          6           0      -26.968044   -0.764252   -2.160945
      8          6           0      -26.635300   -0.439645   -3.593883
      9          6           0      -26.810751    1.125191   -3.657261
     10          6           0      -27.620891    1.350391   -2.338656
     11          6           0      -25.547842    2.066609   -3.840438
     12          6           0      -27.643278   -1.144041   -4.609542
     13          6           0      -27.024144   -1.339492   -6.024925
     14          1           0      -25.924033   -0.410755   -6.565618
     15          7           0      -29.084577    2.306518    0.192305
     16          6           0      -28.791605    3.112990   -0.938608
     17          6           0      -29.337249    4.422449   -0.743966
     18          6           0      -29.981775    4.391046    0.543882
     19          6           0      -29.801221    2.974935    1.025480
     20          6           0      -29.297486    5.516547   -1.752479
     21          6           0      -30.725334    5.500263    1.279504
     22          8           0      -31.168807    5.432702    2.463374
     23          6           0      -30.961754    6.828528    0.580920
     24          7           0      -29.261371    0.223874    2.341903
     25          6           0      -30.133663    1.185530    2.854249
     26          6           0      -30.880014    0.758774    4.151210
     27          6           0      -30.286916   -0.753000    4.294572
     28          6           0      -29.348423   -0.907745    3.154404
     29          6           0      -30.485706    1.706938    5.290924
     30          6           0      -31.334980   -1.822581    4.386683
     31          6           0      -31.209138   -2.680887    5.612829
     32          7           0      -27.799437   -1.539529    0.792510
     33          6           0      -27.880978   -2.404623    1.876591
     34          6           0      -27.170470   -3.598515    1.603191
     35          6           0      -26.665137   -3.501550    0.278847
     36          6           0      -27.156641   -2.279038   -0.225557
     37          6           0      -26.984236   -4.791384    2.460101
     38          6           0      -25.808269   -4.123373   -0.706824
     39          8           0      -25.122006   -5.126053   -0.740531
     40          6           0      -25.954822   -3.137454   -1.961023
     41          6           0      -24.667924   -2.937751   -2.677407
     42          8           0      -23.588255   -2.748966   -2.177918
     43          8           0      -24.784091   -3.022473   -4.011774
     44          6           0      -23.509902   -2.811006   -4.755909
     45          1           0      -27.768901    3.387572   -2.808001
     46          1           0      -30.738076    3.169754    2.902809
     47          1           0      -28.623074   -2.859566    3.706924
     48          1           0      -25.581772   -0.598908   -3.823081
     49          1           0      -27.515219    1.356684   -4.455513
     50          1           0      -24.685316    1.420575   -4.004529
     51          1           0      -25.318600    2.766948   -3.038837
     52          1           0      -25.759382    2.702247   -4.700482
     53          1           0      -28.520488   -0.496817   -4.606075
     54          1           0      -27.898710   -2.115661   -4.186505
     55          1           0      -27.902445   -1.284635   -6.668365
     56          1           0      -26.719049   -2.384186   -6.079107
     57          1           0      -30.062027    5.475021   -2.528335
     58          1           0      -28.293359    5.481442   -2.173223
     59          1           0      -29.255642    6.509792   -1.306460
     60          1           0      -30.046370    7.403791    0.718813
     61          1           0      -31.770826    7.297137    1.140657
     62          1           0      -31.167407    6.739491   -0.485941
     63          1           0      -31.941452    0.896611    3.944829
     64          1           0      -29.713852   -0.810695    5.220590
     65          1           0      -29.675564    2.403110    5.072856
     66          1           0      -30.335844    1.122980    6.198709
     67          1           0      -31.345810    2.359967    5.441629
     68          1           0      -31.289744   -2.540994    3.568081
     69          1           0      -32.361746   -1.457733    4.356732
     70          1           0      -32.150369   -2.803826    6.147854
     71          1           0      -30.497833   -2.258417    6.322026
     72          1           0      -30.748091   -3.598790    5.246967
     73          1           0      -26.958019   -4.609867    3.534974
     74          1           0      -25.935645   -5.045958    2.303316
     75          1           0      -27.720444   -5.553230    2.203577
     76          1           0      -26.566657   -3.802483   -2.571219
     77          1           0      -22.866708   -3.691669   -4.726632
     78          1           0      -23.021469   -1.878802   -4.471636
     79          1           0      -23.753619   -2.664038   -5.808384
     80         12           0       28.568442    0.543969   -0.374090
     81          6           0       26.432040   -2.246291   -0.353145
     82          6           0       25.816122    2.556357   -0.818137
     83          6           0       30.524446    3.105415    0.373300
     84          6           0       31.289565   -1.623099    0.345042
     85          7           0       26.386289    0.207389   -0.306090
     86          6           0       25.706550   -1.037976   -0.294836
     87          6           0       24.294718   -0.922752   -0.699163
     88          6           0       24.141705    0.640537   -0.943126
     89          6           0       25.542687    1.184585   -0.712169
     90          6           0       23.475200    0.967621   -2.301362
     91          6           0       23.306613   -1.308332    0.359091
     92          6           0       23.661429   -0.933528    1.805738
     93          1           0       22.550327   -0.498112    2.838721
     94          7           0       28.255695    2.595288   -0.265937
     95          6           0       27.098379    3.195357   -0.603869
     96          6           0       27.307249    4.621654   -0.600327
     97          6           0       28.683833    4.820384   -0.330936
     98          6           0       29.248137    3.483682   -0.084276
     99          6           0       26.247780    5.669919   -0.809926
    100          6           0       29.400405    6.170059   -0.300818
    101          8           0       28.797014    7.205054   -0.506170
    102          6           0       30.827604    6.436280    0.076490
    103          7           0       30.526049    0.720208    0.510083
    104          6           0       31.151970    1.926740    0.676991
    105          6           0       32.684411    1.746278    0.933024
    106          6           0       32.788535    0.217039    1.216261
    107          6           0       31.474142   -0.267822    0.644874
    108          6           0       33.607730    2.150652   -0.241572
    109          6           0       32.742552   -0.217901    2.756755
    110          6           0       33.755205   -1.208646    3.204643
    111          7           0       28.880593   -1.443518   -0.166482
    112          6           0       30.022909   -2.137697   -0.074582
    113          6           0       29.786900   -3.578930   -0.464488
    114          6           0       28.365359   -3.612181   -0.627463
    115          6           0       27.850538   -2.327797   -0.292813
    116          6           0       30.762892   -4.737924   -0.607453
    117          6           0       27.270431   -4.517768   -0.824324
    118          8           0       27.259106   -5.727023   -0.992010
    119          6           0       25.961577   -3.640749   -0.681401
    120          6           0       25.243650   -4.120372    0.563051
    121          8           0       25.590555   -4.002409    1.691648
    122          8           0       24.025552   -4.637349    0.176143
    123          6           0       23.105261   -4.876019    1.292577
    124          1           0       24.974501    3.165341   -1.154128
    125          1           0       31.227958    3.936074    0.450480
    126          1           0       32.197787   -2.222731    0.434501
    127          1           0       24.150319   -1.554982   -1.575247
    128          1           0       23.614371    1.196498   -0.167998
    129          1           0       22.725256    1.691489   -1.981961
    130          1           0       23.060190    0.035019   -2.683787
    131          1           0       24.149383    1.465031   -2.998899
    132          1           0       22.949484   -2.335279    0.277579
    133          1           0       22.326924   -0.840264    0.260567
    134          1           0       24.408027   -0.144128    1.712508
    135          1           0       24.194998   -1.822025    2.143801
    136          1           0       26.326723    6.461131   -0.063634
    137          1           0       25.263909    5.201541   -0.833846
    138          1           0       26.476006    6.080740   -1.793701
    139          1           0       31.083501    6.232717    1.115790
    140          1           0       30.858191    7.524201    0.014695
    141          1           0       31.540054    6.116286   -0.684602
    142          1           0       32.950717    2.362402    1.791749
    143          1           0       33.627531   -0.261361    0.710308
    144          1           0       34.074230    1.250113   -0.640552
    145          1           0       34.234070    3.005911    0.011537
    146          1           0       32.988090    2.540155   -1.048513
    147          1           0       31.749155   -0.569279    3.034721
    148          1           0       32.902630    0.717566    3.293104
    149          1           0       34.355992   -0.855260    4.042405
    150          1           0       34.423013   -1.539160    2.408762
    151          1           0       33.290406   -2.119213    3.581734
    152          1           0       30.426744   -5.509109    0.085661
    153          1           0       31.772035   -4.335655   -0.510342
    154          1           0       30.581411   -5.147883   -1.600898
    155          1           0       25.324865   -3.700553   -1.563797
    156          1           0       23.258522   -4.190065    2.125577
    157          1           0       23.335091   -5.897988    1.594165
    158          1           0       22.111283   -4.926671    0.848946
 ---------------------------------------------------------------------

 SCF Done:  E(RPBE1PBE) =  -4067.36981893     A.U. after   16 cycles

 Excitation energies and oscillator strengths:

 Excited State   1:      Singlet-A      1.8023 eV  687.94 nm  f=0.3652  <S**2>=0.000
     310 -> 316       -0.16350
     311 -> 313        0.69742
     311 <- 313       -0.11962
 This state for optimization and/or second-order correction.
 Total Energy, E(TD-HF/TD-DFT) =  -4067.30358728
 Copying the excited state density for this state as the 1-particle RhoCI density.

 Excited State   2:      Singlet-A      1.8294 eV  677.74 nm  f=0.3657  <S**2>=0.000
     309 -> 315        0.16664
     312 -> 314        0.69539
     312 <- 314       -0.11481

 Excited State   3:      Singlet-A      1.9195 eV  645.91 nm  f=0.0000  <S**2>=0.000
     312 -> 313        0.70711

 Excited State   4:      Singlet-A      1.9720 eV  628.72 nm  f=0.0000  <S**2>=0.000
     311 -> 314        0.70711

 Excited State   5:      Singlet-A      2.2177 eV  559.08 nm  f=0.1179  <S**2>=0.000
     310 -> 313        0.65148
     311 -> 316        0.25927

 The electronic state is 1-A.
 Alpha  occ. eigenvalues --  -46.91953 -46.90566 -19.25779 -19.25246 -19.20578
 Alpha  occ. eigenvalues --  -19.19436 -19.19348 -19.18979 -19.18725 -19.18415
 Alpha  occ. eigenvalues --  -14.42290 -14.41873 -14.41401 -14.41301 -14.39239
 Alpha  occ. eigenvalues --  -14.39135 -14.39109 -14.38497 -10.36226 -10.35581
 Alpha  occ. eigenvalues --  -10.32339 -10.32267 -10.32126 -10.31717 -10.29278
 Alpha  occ. eigenvalues --  -10.29118 -10.28987 -10.28671 -10.28651 -10.28605
 Alpha  occ. eigenvalues --  -10.28479 -10.28458 -10.28428 -10.28342 -10.28246
 Alpha  occ. eigenvalues --  -10.28056 -10.27732 -10.27575 -10.27560 -10.27063
 Alpha  occ. eigenvalues --  -10.26872 -10.26680 -10.26518 -10.26479 -10.26327
 Alpha  occ. eigenvalues --  -10.26319 -10.26135 -10.26107 -10.26085 -10.26007
 Alpha  occ. eigenvalues --  -10.25924 -10.25923 -10.25868 -10.25783 -10.25630
 Alpha  occ. eigenvalues --  -10.25489 -10.25484 -10.25465 -10.25365 -10.25358
 Alpha  occ. eigenvalues --  -10.25341 -10.25219 -10.25073 -10.25051 -10.24709
 Alpha  occ. eigenvalues --  -10.24569 -10.24435 -10.24307 -10.24112 -10.24070
 Alpha  occ. eigenvalues --  -10.24045 -10.24033 -10.23956 -10.23650 -10.23584
 Alpha  occ. eigenvalues --  -10.23273 -10.23227 -10.23106 -10.23005 -10.22995
 Alpha  occ. eigenvalues --  -10.22986 -10.22904 -10.22886 -10.22787 -10.22770
 Alpha  occ. eigenvalues --  -10.22565  -3.14174  -3.12995  -1.86976  -1.86554
 Alpha  occ. eigenvalues --   -1.86415  -1.85829  -1.85350  -1.85266  -1.12081
 Alpha  occ. eigenvalues --   -1.11981  -1.05108  -1.04876  -1.04691  -1.03767
 Alpha  occ. eigenvalues --   -1.02088  -1.02079  -0.99201  -0.99100  -0.98671
 Alpha  occ. eigenvalues --   -0.98236  -0.97901  -0.97350  -0.97249  -0.96047
 Alpha  occ. eigenvalues --   -0.87732  -0.87526  -0.84132  -0.84020  -0.83728
 Alpha  occ. eigenvalues --   -0.83101  -0.82834  -0.82688  -0.82024  -0.81831
 Alpha  occ. eigenvalues --   -0.81530  -0.80714  -0.80624  -0.80097  -0.78996
 Alpha  occ. eigenvalues --   -0.78659  -0.78450  -0.78080  -0.76984  -0.76758
 Alpha  occ. eigenvalues --   -0.75885  -0.75880  -0.75391  -0.75143  -0.74794
 Alpha  occ. eigenvalues --   -0.74755  -0.72605  -0.72281  -0.72109  -0.71785
 Alpha  occ. eigenvalues --   -0.71644  -0.71119  -0.70841  -0.70343  -0.69591
 Alpha  occ. eigenvalues --   -0.69495  -0.67340  -0.67157  -0.66294  -0.66079
 Alpha  occ. eigenvalues --   -0.63925  -0.63504  -0.63277  -0.63053  -0.63018
 Alpha  occ. eigenvalues --   -0.62577  -0.61512  -0.61110  -0.60282  -0.60275
 Alpha  occ. eigenvalues --   -0.59791  -0.59609  -0.59320  -0.59048  -0.58889
 Alpha  occ. eigenvalues --   -0.58677  -0.56899  -0.56643  -0.54878  -0.54505
 Alpha  occ. eigenvalues --   -0.54444  -0.54064  -0.53545  -0.53509  -0.53392
 Alpha  occ. eigenvalues --   -0.53000  -0.52678  -0.52538  -0.52312  -0.51997
 Alpha  occ. eigenvalues --   -0.51100  -0.50683  -0.50520  -0.49954  -0.49870
 Alpha  occ. eigenvalues --   -0.49743  -0.49654  -0.49580  -0.49184  -0.48673
 Alpha  occ. eigenvalues --   -0.48518  -0.47962  -0.47609  -0.47600  -0.47555
 Alpha  occ. eigenvalues --   -0.47476  -0.47094  -0.46896  -0.46875  -0.46758
 Alpha  occ. eigenvalues --   -0.46672  -0.46610  -0.46604  -0.46246  -0.45931
 Alpha  occ. eigenvalues --   -0.45892  -0.45761  -0.45741  -0.45522  -0.44982
 Alpha  occ. eigenvalues --   -0.44650  -0.44607  -0.44424  -0.44239  -0.44214
 Alpha  occ. eigenvalues --   -0.43983  -0.43925  -0.43585  -0.43511  -0.43466
 Alpha  occ. eigenvalues --   -0.43411  -0.43186  -0.43077  -0.43059  -0.42850
 Alpha  occ. eigenvalues --   -0.42691  -0.42375  -0.42215  -0.42002  -0.41875
 Alpha  occ. eigenvalues --   -0.41831  -0.41794  -0.41590  -0.41443  -0.41397
 Alpha  occ. eigenvalues --   -0.41335  -0.41088  -0.41049  -0.40683  -0.40678
 Alpha  occ. eigenvalues --   -0.40587  -0.40236  -0.39982  -0.39960  -0.39739
 Alpha  occ. eigenvalues --   -0.39558  -0.39466  -0.39360  -0.39153  -0.38863
 Alpha  occ. eigenvalues --   -0.38830  -0.38706  -0.38686  -0.38403  -0.38397
 Alpha  occ. eigenvalues --   -0.38116  -0.38021  -0.37994  -0.37644  -0.37363
 Alpha  occ. eigenvalues --   -0.37239  -0.37157  -0.37144  -0.37027  -0.36991
 Alpha  occ. eigenvalues --   -0.36803  -0.36779  -0.36707  -0.36273  -0.36054
 Alpha  occ. eigenvalues --   -0.35914  -0.35739  -0.35643  -0.35337  -0.35289
 Alpha  occ. eigenvalues --   -0.35266  -0.35257  -0.34964  -0.34780  -0.34022
 Alpha  occ. eigenvalues --   -0.33409  -0.33238  -0.32986  -0.32824  -0.32652
 Alpha  occ. eigenvalues --   -0.32239  -0.32238  -0.32078  -0.32049  -0.31598
 Alpha  occ. eigenvalues --   -0.31441  -0.30730  -0.29893  -0.29828  -0.29399
 Alpha  occ. eigenvalues --   -0.29397  -0.28655  -0.28424  -0.27001  -0.26987
 Alpha  occ. eigenvalues --   -0.26074  -0.25942  -0.25524  -0.25493  -0.25436
 Alpha  occ. eigenvalues --   -0.25237  -0.25196  -0.25120  -0.21213  -0.21198
 Alpha  occ. eigenvalues --   -0.18704  -0.18691
 Alpha virt. eigenvalues --   -0.11404  -0.11225  -0.05305  -0.05134  -0.04089
 Alpha virt. eigenvalues --   -0.03989  -0.02136  -0.01894  -0.01311   0.00112
 Alpha virt. eigenvalues --    0.00840   0.00897   0.01028   0.01193   0.01248

 Mulliken charges:
               1
     1  Mg  12.004209
     2  C    5.978402
     3  C    5.999542
     4  C    6.030857
     5  C    6.015468
     6  N    6.985525
     7  C    6.031866
     8  C    5.988353
     9  C    6.009550
    10  C    5.968284
    11  C    6.004447
    12  C    5.997426
    13  C    5.999930
    14  H    1.005806
    15  N    7.003196
    16  C    5.962131
    17  C    5.986200
    18  C    5.978982
    19  C    5.970085
    20  C    6.003691
    21  C    5.986594
    22  O    7.962201
    23  C    6.004987
    24  N    7.020013
    25  C    5.967168
    26  C    6.009247
    27  C    5.988468
    28  C    6.018111
    29  C    5.999773
    30  C    5.993660
    31  C    5.999718
    32  N    6.997395
    33  C    6.019269
    34  C    6.035012
    35  C    6.000904
    36  C    6.029304
    37  C    5.997036
    38  C    6.013906
    39  O    8.023420
    40  C    6.003471
    41  C    6.003285
    42  O    8.002141
    43  O    8.001902
    44  C    5.998560
    45  H    0.985373
    46  H    1.001355
    47  H    1.014859
    48  H    0.999109
    49  H    0.996531
    50  H    0.985106
    51  H    1.000581
    52  H    0.996757
    53  H    1.011075
    54  H    0.992753
    55  H    1.002254
    56  H    0.995672
    57  H    0.981821
    58  H    0.987201
    59  H    0.986305
    60  H    0.989939
    61  H    0.985642
    62  H    0.993078
    63  H    1.003742
    64  H    1.004121
    65  H    1.004985
    66  H    0.992587
    67  H    1.005171
    68  H    0.998222
    69  H    1.012452
    70  H    1.007149
    71  H    1.003915
    72  H    0.996004
    73  H    1.016545
    74  H    1.015378
    75  H    1.021192
    76  H    1.003493
    77  H    1.000414
    78  H    1.004998
    79  H    1.004725
    80  Mg  12.000019
    81  C    6.000187
    82  C    5.999859
    83  C    5.999899
    84  C    6.000030
    85  N    7.000053
    86  C    5.999741
    87  C    6.000096
    88  C    5.999948
    89  C    6.000219
    90  C    5.999987
    91  C    6.000034
    92  C    6.000047
    93  H    0.999927
    94  N    6.999935
    95  C    6.000284
    96  C    6.000095
    97  C    6.000028
    98  C    6.000278
    99  C    5.999968
   100  C    6.000074
   101  O    8.000129
   102  C    5.999970
   103  N    6.999943
   104  C    6.000205
   105  C    5.999957
   106  C    6.000016
   107  C    5.999899
   108  C    5.999994
   109  C    6.000044
   110  C    6.000002
   111  N    7.000015
   112  C    5.999794
   113  C    5.999785
   114  C    6.000018
   115  C    5.999744
   116  C    6.000020
   117  C    5.999925
   118  O    7.999829
   119  C    5.999967
   120  C    5.999999
   121  O    7.999972
   122  O    7.999968
   123  C    6.000021
   124  H    1.000091
   125  H    1.000057
   126  H    0.999938
   127  H    0.999974
   128  H    0.999985
   129  H    1.000004
   130  H    1.000060
   131  H    1.000002
   132  H    0.999997
   133  H    0.999936
   134  H    0.999956
   135  H    1.000033
   136  H    1.000109
   137  H    1.000106
   138  H    1.000121
   139  H    1.000062
   140  H    1.000081
   141  H    1.000072
   142  H    1.000012
   143  H    1.000008
   144  H    1.000071
   145  H    1.000016
   146  H    0.999981
   147  H    0.999999
   148  H    0.999927
   149  H    0.999975
   150  H    0.999999
   151  H    1.000008
   152  H    0.999878
   153  H    0.999902
   154  H    0.999884
   155  H    0.999935
   156  H    0.999977
   157  H    0.999972
   158  H    0.999948
 Sum of Mulliken charges = 624.00000

 Dipole moment (field-independent basis, Debye):
    X=              2.5266    Y=             -9.6757    Z=              2.6208  Tot=             10.3379
 Quadrupole moment (field-independent basis, Debye-Ang):
   XX=           -142.5719   YY=            -11.3357   ZZ=              4.7096
   XY=            280.1535   XZ=            -74.3220   YZ=             -4.5641

 Normal termination of Gaussian 16 at Fri Oct 15 00:50:03 2021.
