 Gaussian 16, Revision A.03,
 Gaussian 16:  ES64L-G16RevA.03 25-Dec-2016

 --------------------------------------------------------
 #p PBE1PBE/Def2SVP td=(nstates=5) density=(transition=1)
 --------------------------------------------------------

 --------------------------------
 TDDFT excited states in gaussian
 --------------------------------
 Symbolic Z-matrix:
 Charge =  0 Multiplicity = 1

                         Standard orientation:
 ---------------------------------------------------------------------
 Center     Atomic      Atomic             Coordinates (Angstroms)
 Number     Number       Type             X           Y           Z
 ---------------------------------------------------------------------
      1         12           0       -8.975775    0.622505   -0.062872
      2          6           0       -6.822520   -1.797819    1.376659
      3          6           0       -6.835784    3.011905    1.050153
      4          6           0      -10.574038    2.807018   -2.120259
      5          6           0      -10.731629   -1.972246   -1.545096
      6          7           0       -6.964815    0.471336    0.956811
      7          6           0       -6.304655   -0.571225    1.551232
      8          6           0       -5.116915   -0.115702    2.314594
      9          6           0       -5.359658    1.460173    2.457341
     10          6           0       -6.422804    1.678931    1.435736
     11          6           0       -5.766126    1.845479    3.870602
     12          6           0       -3.872251   -0.571564    1.537020
     13          6           0       -2.790759   -1.429466    2.319511
     14          1           0       -1.295573   -0.993382    2.373873
     15          7           0       -8.816349    2.634174   -0.485153
     16          6           0       -7.898650    3.466921    0.170115
     17          6           0       -8.216659    4.820019   -0.174769
     18          6           0       -9.288237    4.818251   -1.130457
     19          6           0       -9.653997    3.379475   -1.223641
     20          6           0       -7.465985    5.983967    0.459352
     21          6           0       -9.930861    5.988538   -1.840894
     22          8           0       -9.515533    7.112923   -1.436248
     23          6           0      -10.922032    5.974526   -3.038891
     24          7           0      -10.476966    0.465389   -1.637599
     25          6           0      -10.991511    1.519474   -2.308462
     26          6           0      -12.035341    1.110618   -3.381296
     27          6           0      -12.161268   -0.428145   -3.109222
     28          6           0      -10.990598   -0.671956   -2.044807
     29          6           0      -13.320610    1.889581   -3.166255
     30          6           0      -11.981914   -1.309421   -4.307535
     31          6           0      -13.236203   -2.025279   -4.729707
     32          7           0       -8.986670   -1.404140    0.004080
     33          6           0       -9.779015   -2.390639   -0.596564
     34          6           0       -9.544422   -3.634910   -0.064749
     35          6           0       -8.408686   -3.450970    0.750046
     36          6           0       -8.067506   -2.101586    0.693608
     37          6           0      -10.460565   -4.822666   -0.270349
     38          6           0       -7.506851   -4.144780    1.707574
     39          8           0       -7.521506   -5.279679    2.071264
     40          6           0       -6.425671   -3.046463    2.034723
     41          6           0       -6.119643   -3.155617    3.512584
     42          8           0       -5.103137   -3.668417    3.980771
     43          8           0       -7.141865   -2.538287    4.273646
     44          6           0       -6.831192   -2.506242    5.702522
     45          1           0       -6.289676    3.794938    1.580800
     46          1           0      -11.181183    3.484367   -2.725421
     47          1           0      -11.081925   -2.825023   -2.129254
     48          1           0       -5.111161   -0.592932    3.294634
     49          1           0       -4.424738    1.969149    2.224409
     50          1           0       -6.419199    1.114049    4.344653
     51          1           0       -6.367781    2.753423    3.817087
     52          1           0       -4.924318    2.081899    4.521382
     53          1           0       -3.389824    0.327286    1.153321
     54          1           0       -4.099924   -1.093541    0.607606
     55          1           0       -2.855099   -2.363082    1.760052
     56          1           0       -3.169205   -1.728127    3.296391
     57          1           0       -6.387782    5.845759    0.378718
     58          1           0       -7.728163    5.970508    1.517198
     59          1           0       -7.594649    6.970444    0.011809
     60          1           0      -11.836171    5.578053   -2.598161
     61          1           0      -10.531205    5.303694   -3.804054
     62          1           0      -11.053489    6.960471   -3.485478
     63          1           0      -11.722053    1.310729   -4.405634
     64          1           0      -13.073129   -0.632112   -2.548553
     65          1           0      -13.058836    2.945563   -3.097239
     66          1           0      -13.765920    1.555815   -2.228476
     67          1           0      -14.154578    1.746022   -3.852227
     68          1           0      -11.261987   -2.113542   -4.155217
     69          1           0      -11.600079   -0.836122   -5.211916
     70          1           0      -13.409331   -1.802904   -5.781922
     71          1           0      -14.125995   -1.654599   -4.220817
     72          1           0      -13.224849   -3.098769   -4.538056
     73          1           0      -10.209786   -5.533984    0.517226
     74          1           0      -10.318032   -5.291805   -1.243552
     75          1           0      -11.466562   -4.413010   -0.182276
     76          1           0       -5.534947   -3.464918    1.564675
     77          1           0       -7.333197   -1.666787    6.183759
     78          1           0       -5.782445   -2.269394    5.876081
     79          1           0       -7.054128   -3.445253    6.209885
     80         12           0        9.279880    0.170099   -0.067765
     81          6           0        6.485936   -2.097009    0.059915
     82          6           0        7.505394    2.212400    2.014074
     83          6           0       11.752278    2.406875   -0.435936
     84          6           0       10.631402   -1.786388   -2.496078
     85          7           0        7.157240    0.011391    0.993774
     86          6           0        6.288448   -1.035473    0.885563
     87          6           0        5.203284   -0.805927    1.867942
     88          6           0        5.434511    0.633417    2.405705
     89          6           0        6.774381    1.076376    1.756851
     90          6           0        4.276590    1.599693    1.999521
     91          6           0        5.078925   -1.834073    2.964393
     92          6           0        3.858152   -1.808960    3.869944
     93          1           0        3.149374   -3.083193    4.064608
     94          7           0        9.630890    1.974108    0.762099
     95          6           0        8.709700    2.722290    1.545948
     96          6           0        9.426019    3.931913    1.992393
     97          6           0       10.579525    4.000789    1.215489
     98          6           0       10.665311    2.771546    0.406319
     99          6           0        8.792530    4.905760    2.963892
    100          6           0       11.690470    5.072844    1.194916
    101          8           0       12.561994    5.158124    0.309537
    102          6           0       11.717179    6.025560    2.319622
    103          7           0       10.957982    0.350595   -1.348667
    104          6           0       11.852729    1.317278   -1.340932
    105          6           0       12.972977    1.130673   -2.400785
    106          6           0       12.709808   -0.311661   -2.839096
    107          6           0       11.392933   -0.619277   -2.163868
    108          6           0       12.833793    2.159487   -3.573193
    109          6           0       13.775748   -1.331990   -2.508824
    110          6           0       14.121785   -2.349833   -3.610126
    111          7           0        8.731183   -1.609564   -0.943778
    112          6           0        9.414994   -2.289473   -1.927847
    113          6           0        8.736567   -3.575457   -2.271709
    114          6           0        7.600396   -3.448363   -1.498249
    115          6           0        7.594414   -2.257132   -0.762566
    116          6           0        9.253265   -4.713336   -3.092229
    117          6           0        6.363904   -4.144508   -1.174301
    118          8           0        5.998991   -5.245072   -1.572174
    119          6           0        5.572786   -3.307325   -0.143230
    120          6           0        4.233022   -3.183417   -0.658212
    121          8           0        3.848057   -2.431854   -1.586155
    122          8           0        3.362466   -3.884772    0.119412
    123          6           0        1.943053   -3.672047   -0.061468
    124          1           0        6.988650    2.836156    2.746088
    125          1           0       12.466333    3.195549   -0.681424
    126          1           0       11.019115   -2.207220   -3.425945
    127          1           0        4.309974   -0.823470    1.244986
    128          1           0        5.509066    0.664253    3.492854
    129          1           0        3.746676    2.235684    2.709312
    130          1           0        3.525333    0.941483    1.563374
    131          1           0        4.491005    2.245491    1.147586
    132          1           0        5.885866   -1.735452    3.690689
    133          1           0        5.341688   -2.833149    2.617785
    134          1           0        3.108440   -1.118840    3.485856
    135          1           0        4.253146   -1.662749    4.874946
    136          1           0        8.878005    5.951576    2.669561
    137          1           0        9.172645    4.827085    3.982233
    138          1           0        7.711585    4.810547    3.069732
    139          1           0       11.686561    5.459366    3.250637
    140          1           0       10.789127    6.577605    2.175214
    141          1           0       12.689301    6.515772    2.281961
    142          1           0       13.916250    1.238083   -1.864157
    143          1           0       12.511248   -0.461742   -3.899915
    144          1           0       12.559958    1.669130   -4.506890
    145          1           0       13.781684    2.657331   -3.777598
    146          1           0       12.038595    2.838703   -3.265528
    147          1           0       13.538211   -1.886352   -1.601438
    148          1           0       14.587446   -0.735503   -2.093610
    149          1           0       15.158242   -2.644199   -3.448073
    150          1           0       13.880307   -1.994571   -4.612388
    151          1           0       13.414732   -3.147637   -3.383758
    152          1           0        9.647472   -5.544829   -2.507704
    153          1           0        9.924755   -4.258172   -3.819702
    154          1           0        8.474226   -5.036725   -3.783721
    155          1           0        5.462457   -3.971848    0.713659
    156          1           0        1.687997   -2.864925   -0.748716
    157          1           0        1.444866   -3.564356    0.901635
    158          1           0        1.448188   -4.550354   -0.476763
 ---------------------------------------------------------------------

 SCF Done:  E(RPBE1PBE) =  -4067.38598877     A.U. after   16 cycles

 Excitation energies and oscillator strengths:

 Excited State   1:      Singlet-A      1.6372 eV  757.31 nm  f=0.0000  <S**2>=0.000
     312 -> 313        0.70708
 This state for optimization and/or second-order correction.
 Total Energy, E(TD-HF/TD-DFT) =  -4067.32582424
 Copying the excited state density for this state as the 1-particle RhoCI density.

 Excited State   2:      Singlet-A      1.8483 eV  670.79 nm  f=0.2942  <S**2>=0.000
     309 -> 315       -0.16634
     311 -> 313        0.69292
     311 <- 313       -0.11230

 Excited State   3:      Singlet-A      1.9174 eV  646.62 nm  f=0.3988  <S**2>=0.000
     310 -> 316       -0.19044
     312 -> 314        0.68656

 Excited State   4:      Singlet-A      2.1669 eV  572.18 nm  f=0.0000  <S**2>=0.000
     311 -> 314        0.70708

 Excited State   5:      Singlet-A      2.2343 eV  554.91 nm  f=0.1631  <S**2>=0.000
     309 -> 313        0.65746
     311 -> 315        0.24181

 The electronic state is 1-A.
 Alpha  occ. eigenvalues --  -46.92467 -46.91841 -19.26388 -19.25649 -19.21371
 Alpha  occ. eigenvalues --  -19.20159 -19.19170 -19.18951 -19.18765 -19.18561
 Alpha  occ. eigenvalues --  -14.41992 -14.41732 -14.41351 -14.40556 -14.39757
 Alpha  occ. eigenvalues --  -14.39367 -14.39196 -14.38783 -10.37521 -10.35984
 Alpha  occ. eigenvalues --  -10.32873 -10.32741 -10.32288 -10.31552 -10.29753
 Alpha  occ. eigenvalues --  -10.29002 -10.28954 -10.28578 -10.28375 -10.28358
 Alpha  occ. eigenvalues --  -10.28355 -10.28349 -10.28330 -10.28222 -10.28203
 Alpha  occ. eigenvalues --  -10.28156 -10.28090 -10.27983 -10.27750 -10.26851
 Alpha  occ. eigenvalues --  -10.26700 -10.26584 -10.26442 -10.26417 -10.26233
 Alpha  occ. eigenvalues --  -10.26214 -10.26159 -10.26078 -10.26057 -10.26051
 Alpha  occ. eigenvalues --  -10.25935 -10.25853 -10.25845 -10.25777 -10.25709
 Alpha  occ. eigenvalues --  -10.25482 -10.25479 -10.25369 -10.25310 -10.25091
 Alpha  occ. eigenvalues --  -10.24934 -10.24911 -10.24896 -10.24886 -10.24802
 Alpha  occ. eigenvalues --  -10.24719 -10.24673 -10.24636 -10.24443 -10.24396
 Alpha  occ. eigenvalues --  -10.24175 -10.23985 -10.23799 -10.23763 -10.23611
 Alpha  occ. eigenvalues --  -10.23576 -10.23546 -10.23443 -10.23425 -10.23365
 Alpha  occ. eigenvalues --  -10.23288 -10.23149 -10.22956 -10.22860 -10.22623
 Alpha  occ. eigenvalues --  -10.22280  -3.14609  -3.14025  -1.87430  -1.86989
 Alpha  occ. eigenvalues --   -1.86875  -1.86837  -1.86390  -1.86261  -1.10727
 Alpha  occ. eigenvalues --   -1.10446  -1.06917  -1.04135  -1.03676  -1.02907
 Alpha  occ. eigenvalues --   -1.02353  -1.00599  -1.00377  -0.99927  -0.99249
 Alpha  occ. eigenvalues --   -0.99010  -0.98057  -0.97618  -0.97465  -0.96753
 Alpha  occ. eigenvalues --   -0.87767  -0.87471  -0.84378  -0.84224  -0.83692
 Alpha  occ. eigenvalues --   -0.83501  -0.83475  -0.82720  -0.82275  -0.81809
 Alpha  occ. eigenvalues --   -0.81466  -0.81341  -0.80914  -0.80296  -0.79159
 Alpha  occ. eigenvalues --   -0.78890  -0.78671  -0.78276  -0.77144  -0.77022
 Alpha  occ. eigenvalues --   -0.76699  -0.76166  -0.75511  -0.75205  -0.75083
 Alpha  occ. eigenvalues --   -0.74906  -0.72886  -0.72199  -0.71969  -0.71808
 Alpha  occ. eigenvalues --   -0.71667  -0.71310  -0.70878  -0.70773  -0.69932
 Alpha  occ. eigenvalues --   -0.69551  -0.68049  -0.67404  -0.66745  -0.66351
 Alpha  occ. eigenvalues --   -0.63878  -0.63860  -0.63582  -0.63415  -0.62412
 Alpha  occ. eigenvalues --   -0.62261  -0.61760  -0.60871  -0.60798  -0.60733
 Alpha  occ. eigenvalues --   -0.60247  -0.60010  -0.59788  -0.59576  -0.59572
 Alpha  occ. eigenvalues --   -0.59051  -0.57768  -0.57005  -0.55133  -0.54875
 Alpha  occ. eigenvalues --   -0.54724  -0.54438  -0.54268  -0.53995  -0.53702
 Alpha  occ. eigenvalues --   -0.53347  -0.52774  -0.52752  -0.52158  -0.51458
 Alpha  occ. eigenvalues --   -0.51007  -0.50888  -0.50417  -0.50285  -0.50149
 Alpha  occ. eigenvalues --   -0.50023  -0.49510  -0.49065  -0.48839  -0.48528
 Alpha  occ. eigenvalues --   -0.48503  -0.48378  -0.48286  -0.47880  -0.47878
 Alpha  occ. eigenvalues --   -0.47707  -0.47459  -0.47392  -0.46900  -0.46567
 Alpha  occ. eigenvalues --   -0.46562  -0.46419  -0.46264  -0.46147  -0.45822
 Alpha  occ. eigenvalues --   -0.45720  -0.45627  -0.45352  -0.45189  -0.44978
 Alpha  occ. eigenvalues --   -0.44900  -0.44825  -0.44740  -0.44570  -0.44519
 Alpha  occ. eigenvalues --   -0.44349  -0.44151  -0.43626  -0.43564  -0.43376
 Alpha  occ. eigenvalues --   -0.43213  -0.43062  -0.42955  -0.42910  -0.42759
 Alpha  occ. eigenvalues --   -0.42508  -0.42461  -0.42337  -0.41966  -0.41946
 Alpha  occ. eigenvalues --   -0.41838  -0.41679  -0.41644  -0.41378  -0.41239
 Alpha  occ. eigenvalues --   -0.41230  -0.40903  -0.40897  -0.40771  -0.40721
 Alpha  occ. eigenvalues --   -0.40542  -0.40339  -0.40295  -0.40169  -0.40016
 Alpha  occ. eigenvalues --   -0.39888  -0.39818  -0.39802  -0.39265  -0.39003
 Alpha  occ. eigenvalues --   -0.38728  -0.38710  -0.38578  -0.38456  -0.38444
 Alpha  occ. eigenvalues --   -0.38198  -0.38075  -0.37978  -0.37655  -0.37374
 Alpha  occ. eigenvalues --   -0.37320  -0.37311  -0.37287  -0.37086  -0.36950
 Alpha  occ. eigenvalues --   -0.36852  -0.36671  -0.36519  -0.36463  -0.36367
 Alpha  occ. eigenvalues --   -0.36274  -0.36257  -0.36124  -0.36027  -0.35913
 Alpha  occ. eigenvalues --   -0.35692  -0.35109  -0.34981  -0.34842  -0.34194
 Alpha  occ. eigenvalues --   -0.33832  -0.33687  -0.33254  -0.32903  -0.32857
 Alpha  occ. eigenvalues --   -0.32456  -0.32302  -0.32064  -0.31600  -0.31014
 Alpha  occ. eigenvalues --   -0.30858  -0.30431  -0.30394  -0.29913  -0.29006
 Alpha  occ. eigenvalues --   -0.28909  -0.28513  -0.28071  -0.27486  -0.27107
 Alpha  occ. eigenvalues --   -0.26225  -0.26136  -0.25818  -0.25720  -0.25697
 Alpha  occ. eigenvalues --   -0.25538  -0.25311  -0.25141  -0.21436  -0.20949
 Alpha  occ. eigenvalues --   -0.19330  -0.18548
 Alpha virt. eigenvalues --   -0.11798  -0.10636  -0.05419  -0.05182  -0.04040
 Alpha virt. eigenvalues --   -0.03443  -0.02181  -0.01852  -0.01017  -0.00564
 Alpha virt. eigenvalues --   -0.00017   0.00389   0.00450   0.01104   0.01530

 Mulliken charges:
               1
     1  Mg  12.000000
     2  C    5.999993
     3  C    6.000003
     4  C    6.000000
     5  C    6.000010
     6  N    7.000010
     7  C    5.999997
     8  C    6.000000
     9  C    5.999997
    10  C    6.000006
    11  C    5.999999
    12  C    5.999999
    13  C    6.000004
    14  H    1.000007
    15  N    7.000000
    16  C    6.000009
    17  C    6.000004
    18  C    6.000005
    19  C    6.000006
    20  C    6.000000
    21  C    6.000003
    22  O    8.000006
    23  C    6.000001
    24  N    7.000003
    25  C    6.000004
    26  C    5.999999
    27  C    6.000002
    28  C    5.999996
    29  C    5.999999
    30  C    6.000001
    31  C    6.000000
    32  N    6.999998
    33  C    5.999994
    34  C    5.999999
    35  C    6.000000
    36  C    5.999999
    37  C    5.999999
    38  C    5.999997
    39  O    7.999994
    40  C    6.000001
    41  C    6.000001
    42  O    7.999996
    43  O    8.000001
    44  C    6.000000
    45  H    1.000001
    46  H    1.000001
    47  H    0.999999
    48  H    1.000000
    49  H    1.000001
    50  H    1.000002
    51  H    1.000000
    52  H    1.000001
    53  H    0.999996
    54  H    1.000000
    55  H    1.000000
    56  H    0.999999
    57  H    1.000003
    58  H    1.000004
    59  H    1.000002
    60  H    1.000002
    61  H    1.000002
    62  H    1.000002
    63  H    1.000000
    64  H    1.000000
    65  H    0.999999
    66  H    1.000001
    67  H    1.000001
    68  H    1.000001
    69  H    0.999999
    70  H    0.999999
    71  H    0.999999
    72  H    1.000001
    73  H    0.999998
    74  H    0.999997
    75  H    0.999997
    76  H    0.999998
    77  H    0.999999
    78  H    0.999999
    79  H    1.000000
    80  Mg  11.999999
    81  C    6.000000
    82  C    5.999994
    83  C    5.999999
    84  C    5.999999
    85  N    6.999998
    86  C    6.000003
    87  C    5.999987
    88  C    6.000004
    89  C    5.999997
    90  C    5.999987
    91  C    6.000004
    92  C    5.999994
    93  H    1.000000
    94  N    6.999999
    95  C    6.000004
    96  C    5.999994
    97  C    6.000000
    98  C    5.999999
    99  C    6.000000
   100  C    6.000000
   101  O    8.000000
   102  C    6.000000
   103  N    7.000000
   104  C    5.999998
   105  C    6.000000
   106  C    6.000000
   107  C    5.999990
   108  C    6.000000
   109  C    6.000001
   110  C    6.000000
   111  N    7.000001
   112  C    5.999993
   113  C    5.999994
   114  C    5.999998
   115  C    5.999995
   116  C    6.000000
   117  C    6.000000
   118  O    7.999995
   119  C    5.999997
   120  C    6.000002
   121  O    7.999998
   122  O    7.999998
   123  C    5.999998
   124  H    1.000000
   125  H    1.000001
   126  H    1.000000
   127  H    1.000002
   128  H    0.999999
   129  H    1.000002
   130  H    1.000016
   131  H    1.000001
   132  H    0.999997
   133  H    1.000002
   134  H    1.000019
   135  H    0.999999
   136  H    1.000001
   137  H    1.000001
   138  H    1.000001
   139  H    1.000001
   140  H    1.000000
   141  H    1.000001
   142  H    0.999999
   143  H    0.999999
   144  H    1.000000
   145  H    1.000000
   146  H    0.999999
   147  H    1.000000
   148  H    0.999999
   149  H    1.000000
   150  H    1.000000
   151  H    1.000000
   152  H    0.999999
   153  H    0.999999
   154  H    0.999999
   155  H    1.000000
   156  H    1.000000
   157  H    1.000003
   158  H    1.000000
 Sum of Mulliken charges = 624.00000

 Dipole moment (field-independent basis, Debye):
    X=             -0.0040    Y=              0.0025    Z=              0.0002  Tot=              0.0047
 Quadrupole moment (field-independent basis, Debye-Ang):
   XX=             -0.0066   YY=              0.0022   ZZ=             -0.0002
   XY=             -0.0132   XZ=              0.0074   YZ=             -0.0013

 Normal termination of Gaussian 16 at Fri Oct 15 00:02:49 2021.
