 Gaussian 16, Revision A.03,
 Gaussian 16:  ES64L-G16RevA.03 25-Dec-2016

 --------------------------------------------------------
 #p PBE1PBE/Def2SVP td=(nstates=5) density=(transition=1)
 --------------------------------------------------------

 --------------------------------
 TDDFT excited states in gaussian
 --------------------------------
 Symbolic Z-matrix:
 Charge =  0 Multiplicity = 1

                         Standard orientation:
 ---------------------------------------------------------------------
 Center     Atomic      Atomic             Coordinates (Angstroms)
 Number     Number       Type             X           Y           Z
 ---------------------------------------------------------------------
      1         12           0       -4.897553   -0.700331    0.192267
      2          6           0       -3.242401    2.272891    0.723626
      3          6           0       -7.879797    1.181892   -0.383704
      4          6           0       -6.620303   -3.487347    0.026902
      5          6           0       -1.999006   -2.494986    0.927914
      6          7           0       -5.404806    1.480546    0.184281
      7          6           0       -4.567243    2.500571    0.393120
      8          6           0       -5.335031    3.841988    0.156959
      9          6           0       -6.857199    3.410565   -0.062419
     10          6           0       -6.728096    1.875264   -0.037768
     11          6           0       -7.838970    3.763347    1.038405
     12          6           0       -4.751531    4.732824   -0.950106
     13          6           0       -4.535751    6.155142   -0.461082
     14          1           0       -4.557540    7.340627   -1.436924
     15          7           0       -6.950558   -1.079065   -0.212844
     16          6           0       -7.985055   -0.225133   -0.466151
     17          6           0       -9.171730   -0.899165   -0.753192
     18          6           0       -8.894073   -2.292399   -0.527049
     19          6           0       -7.420740   -2.348661   -0.230941
     20          6           0      -10.470028   -0.211149   -1.149336
     21          6           0       -9.853208   -3.471552   -0.529647
     22          8           0       -9.433482   -4.578277   -0.139340
     23          6           0      -11.280897   -3.316887   -0.863005
     24          7           0       -4.354155   -2.647783    0.411739
     25          6           0       -5.236730   -3.693974    0.237602
     26          6           0       -4.612157   -5.121530    0.458941
     27          6           0       -3.073369   -4.728123    0.465631
     28          6           0       -3.131076   -3.198586    0.632088
     29          6           0       -4.994599   -6.005237    1.711231
     30          6           0       -2.132930   -5.307853   -0.686254
     31          6           0       -2.244116   -4.621426   -2.021979
     32          7           0       -3.061060   -0.290694    0.843014
     33          6           0       -1.957310   -1.076543    1.114699
     34          6           0       -0.836719   -0.313267    1.485730
     35          6           0       -1.303195    0.993727    1.303598
     36          6           0       -2.671496    0.982049    0.904468
     37          6           0        0.464168   -0.925398    1.788945
     38          6           0       -0.865307    2.319486    1.515890
     39          8           0        0.207269    2.690958    1.996529
     40          6           0       -2.108599    3.275022    1.120729
     41          6           0       -2.447025    4.109123    2.260449
     42          8           0       -3.024928    3.764361    3.265816
     43          8           0       -1.930178    5.322934    2.114340
     44          6           0       -2.045830    6.262483    3.188436
     45          1           0       -8.795668    1.762904   -0.507014
     46          1           0       -7.056126   -4.488046    0.005224
     47          1           0       -1.115117   -3.095313    1.153522
     48          1           0       -5.237530    4.291512    1.144637
     49          1           0       -7.191904    3.978655   -0.931095
     50          1           0       -7.423246    4.379025    1.836599
     51          1           0       -8.184621    2.858745    1.538006
     52          1           0       -8.756069    4.160376    0.602159
     53          1           0       -5.333746    4.763495   -1.871242
     54          1           0       -3.801569    4.295309   -1.256216
     55          1           0       -3.513579    6.186134   -0.082111
     56          1           0       -5.289382    6.323638    0.307940
     57          1           0      -10.311828    0.840147   -1.390076
     58          1           0      -11.124137   -0.171001   -0.278064
     59          1           0      -11.002446   -0.783886   -1.907762
     60          1           0      -11.865880   -4.142082   -0.455300
     61          1           0      -11.360527   -3.387278   -1.948254
     62          1           0      -11.662252   -2.374838   -0.469776
     63          1           0       -4.683288   -5.747138   -0.431381
     64          1           0       -2.604161   -5.191730    1.332498
     65          1           0       -5.728821   -5.451064    2.294631
     66          1           0       -4.153282   -6.012800    2.405357
     67          1           0       -5.336340   -7.026383    1.539728
     68          1           0       -2.473482   -6.327728   -0.863411
     69          1           0       -1.086561   -5.404488   -0.399163
     70          1           0       -1.263311   -4.687713   -2.491564
     71          1           0       -2.611884   -3.599110   -2.100400
     72          1           0       -2.981419   -5.184492   -2.594226
     73          1           0        0.735899   -1.853395    1.286510
     74          1           0        0.736048   -0.975442    2.842617
     75          1           0        1.140843   -0.147836    1.435440
     76          1           0       -1.791336    3.903212    0.288592
     77          1           0       -2.960524    6.853144    3.126262
     78          1           0       -1.222433    6.968030    3.078979
     79          1           0       -2.038331    5.736292    4.143107
     80         12           0        5.131930   -0.672562   -0.295284
     81          6           0        2.931420    2.109620   -0.948762
     82          6           0        7.726266    1.673400   -0.043873
     83          6           0        7.130378   -3.177620    0.419407
     84          6           0        2.470814   -2.859186   -0.893838
     85          7           0        5.254479    1.675521   -0.515250
     86          6           0        4.232043    2.569809   -0.561338
     87          6           0        4.700328    3.985664   -0.267213
     88          6           0        6.325471    3.881141   -0.323033
     89          6           0        6.458862    2.330809   -0.319254
     90          6           0        6.989442    4.631836   -1.504469
     91          6           0        4.156875    4.531485    1.096356
     92          6           0        3.357125    5.854213    0.972012
     93          1           0        4.055394    7.120209    1.737631
     94          7           0        7.086605   -0.737836    0.122125
     95          6           0        8.067214    0.310376    0.164701
     96          6           0        9.424775   -0.167340    0.518726
     97          6           0        9.196574   -1.570609    0.701145
     98          6           0        7.782500   -1.869128    0.418895
     99          6           0       10.670654    0.716034    0.610436
    100          6           0       10.183123   -2.630996    1.011841
    101          8           0        9.915940   -3.767930    1.385675
    102          6           0       11.676774   -2.250713    1.001843
    103          7           0        4.785920   -2.666478   -0.084051
    104          6           0        5.790783   -3.528510    0.192862
    105          6           0        5.398602   -4.967597    0.004313
    106          6           0        3.897317   -4.910298   -0.371014
    107          6           0        3.650832   -3.385159   -0.406717
    108          6           0        6.283593   -5.746758   -0.945862
    109          6           0        2.983814   -5.627772    0.787351
    110          6           0        1.976041   -6.791455    0.269175
    111          7           0        3.164903   -0.474150   -1.077982
    112          6           0        2.183027   -1.489077   -1.178424
    113          6           0        0.917395   -0.848665   -1.554173
    114          6           0        1.169370    0.530453   -1.330067
    115          6           0        2.544695    0.705047   -1.168904
    116          6           0       -0.400212   -1.472284   -2.004559
    117          6           0        0.533735    1.864339   -1.523684
    118          8           0       -0.598809    2.274657   -1.901082
    119          6           0        1.657283    2.907078   -1.150557
    120          6           0        1.774687    3.899353   -2.269685
    121          8           0        1.787224    3.608269   -3.432227
    122          8           0        1.743102    5.167993   -1.760766
    123          6           0        1.511999    6.194880   -2.807977
    124          1           0        8.515466    2.424967   -0.109848
    125          1           0        7.742784   -4.053034    0.646685
    126          1           0        1.615938   -3.520480   -1.048286
    127          1           0        4.375368    4.590325   -1.113943
    128          1           0        6.797423    4.216623    0.600837
    129          1           0        7.465925    3.931448   -2.191043
    130          1           0        7.724820    5.348093   -1.135702
    131          1           0        6.334727    5.285053   -2.081370
    132          1           0        4.963908    4.729436    1.802251
    133          1           0        3.478733    3.822169    1.571546
    134          1           0        2.409802    5.833919    1.511408
    135          1           0        3.070849    6.130491   -0.042301
    136          1           0       10.511143    1.790836    0.702394
    137          1           0       11.409439    0.568728   -0.177281
    138          1           0       11.164880    0.403522    1.530868
    139          1           0       11.977035   -1.918269    0.008188
    140          1           0       12.313850   -3.062053    1.355541
    141          1           0       11.813800   -1.424625    1.699609
    142          1           0        5.565261   -5.486186    0.949417
    143          1           0        3.720498   -5.330800   -1.360533
    144          1           0        6.932916   -6.465289   -0.444916
    145          1           0        7.002697   -5.147723   -1.504445
    146          1           0        5.638828   -6.243058   -1.671462
    147          1           0        2.359262   -4.935317    1.350804
    148          1           0        3.587935   -6.114146    1.552782
    149          1           0        2.381575   -7.120368   -0.687824
    150          1           0        0.954129   -6.425531    0.161507
    151          1           0        2.044722   -7.682738    0.892327
    152          1           0       -1.262201   -0.881203   -1.695821
    153          1           0       -0.525965   -2.400658   -1.446198
    154          1           0       -0.231164   -1.682330   -3.060784
    155          1           0        1.265254    3.467154   -0.301977
    156          1           0        2.269501    6.048598   -3.577733
    157          1           0        1.756849    7.128932   -2.302551
    158          1           0        0.555723    6.217208   -3.330532
 ---------------------------------------------------------------------

 SCF Done:  E(RPBE1PBE) =  -4067.39018697     A.U. after   16 cycles

 Excitation energies and oscillator strengths:

 Excited State   1:      Singlet-A      1.6436 eV  754.32 nm  f=0.0354  <S**2>=0.000
     311 -> 313       -0.23056
     311 -> 314       -0.25351
     312 -> 313        0.58587
     312 -> 314        0.19441
 This state for optimization and/or second-order correction.
 Total Energy, E(TD-HF/TD-DFT) =  -4067.32978407
 Copying the excited state density for this state as the 1-particle RhoCI density.

 Excited State   2:      Singlet-A      1.6571 eV  748.20 nm  f=0.0237  <S**2>=0.000
     311 -> 313        0.44550
     311 -> 314       -0.33670
     312 -> 313        0.16223
     312 -> 314       -0.40022

 Excited State   3:      Singlet-A      1.7908 eV  692.34 nm  f=0.8341  <S**2>=0.000
     310 -> 315        0.11972
     311 -> 313        0.24479
     311 -> 314        0.54906
     312 -> 313        0.34566

 Excited State   4:      Singlet-A      1.8740 eV  661.62 nm  f=0.0558  <S**2>=0.000
     309 -> 316        0.10435
     311 -> 313        0.41783
     311 -> 314       -0.10936
     312 -> 314        0.53489

 Excited State   5:      Singlet-A      2.1334 eV  581.16 nm  f=0.0240  <S**2>=0.000
     310 -> 313        0.67276
     311 -> 315       -0.13736
     312 -> 315       -0.11699

 The electronic state is 1-A.
 Alpha  occ. eigenvalues --  -46.91798 -46.90746 -19.25979 -19.25173 -19.19653
 Alpha  occ. eigenvalues --  -19.19138 -19.18996 -19.18919 -19.18496 -19.18154
 Alpha  occ. eigenvalues --  -14.41754 -14.41468 -14.41459 -14.41387 -14.40160
 Alpha  occ. eigenvalues --  -14.39006 -14.38874 -14.38353 -10.35498 -10.34880
 Alpha  occ. eigenvalues --  -10.32351 -10.31996 -10.31679 -10.31591 -10.29238
 Alpha  occ. eigenvalues --  -10.28963 -10.28947 -10.28926 -10.28888 -10.28791
 Alpha  occ. eigenvalues --  -10.28666 -10.28544 -10.28455 -10.28393 -10.28258
 Alpha  occ. eigenvalues --  -10.28076 -10.27962 -10.27804 -10.27716 -10.26650
 Alpha  occ. eigenvalues --  -10.26641 -10.26611 -10.26486 -10.26464 -10.26451
 Alpha  occ. eigenvalues --  -10.26374 -10.26258 -10.25969 -10.25699 -10.25694
 Alpha  occ. eigenvalues --  -10.25665 -10.25624 -10.25572 -10.25526 -10.25517
 Alpha  occ. eigenvalues --  -10.25475 -10.25414 -10.25315 -10.25312 -10.25258
 Alpha  occ. eigenvalues --  -10.25080 -10.24978 -10.24888 -10.24826 -10.24781
 Alpha  occ. eigenvalues --  -10.24625 -10.24604 -10.24531 -10.24494 -10.24070
 Alpha  occ. eigenvalues --  -10.23833 -10.23770 -10.23730 -10.23678 -10.23537
 Alpha  occ. eigenvalues --  -10.23520 -10.23465 -10.23294 -10.23278 -10.23110
 Alpha  occ. eigenvalues --  -10.22998 -10.22901 -10.22710 -10.22518 -10.22454
 Alpha  occ. eigenvalues --  -10.22056  -3.14019  -3.13108  -1.86857  -1.86393
 Alpha  occ. eigenvalues --   -1.86264  -1.85948  -1.85501  -1.85337  -1.12429
 Alpha  occ. eigenvalues --   -1.11416  -1.04449  -1.03690  -1.03219  -1.02902
 Alpha  occ. eigenvalues --   -1.02290  -1.01888  -0.98942  -0.98563  -0.98037
 Alpha  occ. eigenvalues --   -0.97646  -0.97616  -0.97079  -0.96855  -0.96459
 Alpha  occ. eigenvalues --   -0.86002  -0.85625  -0.83297  -0.82881  -0.82768
 Alpha  occ. eigenvalues --   -0.82679  -0.82380  -0.81858  -0.81655  -0.81585
 Alpha  occ. eigenvalues --   -0.81543  -0.81008  -0.80746  -0.79842  -0.78501
 Alpha  occ. eigenvalues --   -0.77956  -0.77892  -0.77435  -0.77032  -0.76245
 Alpha  occ. eigenvalues --   -0.75998  -0.75279  -0.75238  -0.74798  -0.74581
 Alpha  occ. eigenvalues --   -0.73789  -0.73096  -0.72283  -0.71501  -0.71396
 Alpha  occ. eigenvalues --   -0.70828  -0.70723  -0.69997  -0.69988  -0.69448
 Alpha  occ. eigenvalues --   -0.69308  -0.67546  -0.66841  -0.65682  -0.65603
 Alpha  occ. eigenvalues --   -0.63946  -0.63510  -0.63087  -0.63003  -0.61805
 Alpha  occ. eigenvalues --   -0.61622  -0.61111  -0.61016  -0.60373  -0.59666
 Alpha  occ. eigenvalues --   -0.59452  -0.59076  -0.58912  -0.58813  -0.58680
 Alpha  occ. eigenvalues --   -0.58369  -0.56724  -0.56652  -0.55176  -0.54660
 Alpha  occ. eigenvalues --   -0.54239  -0.53722  -0.53246  -0.53087  -0.52851
 Alpha  occ. eigenvalues --   -0.52743  -0.52479  -0.52188  -0.51873  -0.51365
 Alpha  occ. eigenvalues --   -0.50785  -0.50544  -0.50328  -0.49649  -0.49343
 Alpha  occ. eigenvalues --   -0.49231  -0.49071  -0.48928  -0.48695  -0.48253
 Alpha  occ. eigenvalues --   -0.47776  -0.47650  -0.47586  -0.47280  -0.47167
 Alpha  occ. eigenvalues --   -0.46855  -0.46762  -0.46568  -0.46492  -0.46250
 Alpha  occ. eigenvalues --   -0.46213  -0.46098  -0.46029  -0.45954  -0.45382
 Alpha  occ. eigenvalues --   -0.45005  -0.44955  -0.44711  -0.44545  -0.44463
 Alpha  occ. eigenvalues --   -0.44271  -0.44260  -0.44124  -0.43930  -0.43789
 Alpha  occ. eigenvalues --   -0.43737  -0.43591  -0.43554  -0.43474  -0.43137
 Alpha  occ. eigenvalues --   -0.43105  -0.42882  -0.42864  -0.42713  -0.42546
 Alpha  occ. eigenvalues --   -0.42383  -0.42239  -0.42126  -0.41926  -0.41750
 Alpha  occ. eigenvalues --   -0.41700  -0.41584  -0.41302  -0.40978  -0.40940
 Alpha  occ. eigenvalues --   -0.40764  -0.40649  -0.40585  -0.40318  -0.40114
 Alpha  occ. eigenvalues --   -0.40017  -0.39925  -0.39697  -0.39548  -0.39514
 Alpha  occ. eigenvalues --   -0.39279  -0.39194  -0.39138  -0.38967  -0.38806
 Alpha  occ. eigenvalues --   -0.38741  -0.38695  -0.38283  -0.38224  -0.38187
 Alpha  occ. eigenvalues --   -0.37991  -0.37881  -0.37600  -0.37587  -0.37257
 Alpha  occ. eigenvalues --   -0.37230  -0.37053  -0.36962  -0.36681  -0.36485
 Alpha  occ. eigenvalues --   -0.36193  -0.36082  -0.36055  -0.35885  -0.35804
 Alpha  occ. eigenvalues --   -0.35745  -0.35694  -0.35510  -0.35491  -0.35175
 Alpha  occ. eigenvalues --   -0.35155  -0.34986  -0.34542  -0.33901  -0.33698
 Alpha  occ. eigenvalues --   -0.33164  -0.32974  -0.32652  -0.32461  -0.32369
 Alpha  occ. eigenvalues --   -0.31985  -0.31795  -0.31331  -0.31228  -0.31067
 Alpha  occ. eigenvalues --   -0.30893  -0.30272  -0.29291  -0.29072  -0.29003
 Alpha  occ. eigenvalues --   -0.28516  -0.28393  -0.28145  -0.26980  -0.26779
 Alpha  occ. eigenvalues --   -0.25810  -0.25648  -0.25512  -0.25438  -0.25287
 Alpha  occ. eigenvalues --   -0.25179  -0.25092  -0.24737  -0.20764  -0.20620
 Alpha  occ. eigenvalues --   -0.18804  -0.18733
 Alpha virt. eigenvalues --   -0.11318  -0.11127  -0.05196  -0.04720  -0.04046
 Alpha virt. eigenvalues --   -0.03400  -0.02260  -0.01623   0.00544   0.00725
 Alpha virt. eigenvalues --    0.00967   0.01322   0.01445   0.01575   0.01898

 Mulliken charges:
               1
     1  Mg  12.000406
     2  C    6.000214
     3  C    5.998873
     4  C    5.997996
     5  C    6.000163
     6  N    7.000452
     7  C    5.999099
     8  C    6.000769
     9  C    5.997884
    10  C    6.004613
    11  C    5.999317
    12  C    5.999911
    13  C    5.999692
    14  H    1.000675
    15  N    6.999290
    16  C    6.004881
    17  C    6.002196
    18  C    6.002394
    19  C    6.004470
    20  C    5.999668
    21  C    6.002039
    22  O    8.004219
    23  C    5.999161
    24  N    6.999741
    25  C    6.004982
    26  C    5.997963
    27  C    6.000841
    28  C    5.997526
    29  C    5.999987
    30  C    6.000914
    31  C    5.999926
    32  N    6.999636
    33  C    5.995558
    34  C    5.997065
    35  C    5.998274
    36  C    5.998488
    37  C    6.000637
    38  C    5.998249
    39  O    7.996995
    40  C    6.000377
    41  C    5.999446
    42  O    7.999251
    43  O    8.000044
    44  C    6.000103
    45  H    1.001936
    46  H    1.001364
    47  H    0.999165
    48  H    1.001035
    49  H    1.001798
    50  H    1.002389
    51  H    0.999808
    52  H    1.000913
    53  H    0.999515
    54  H    1.000948
    55  H    1.001142
    56  H    0.999547
    57  H    1.002243
    58  H    1.002676
    59  H    1.002315
    60  H    1.002337
    61  H    1.001696
    62  H    1.000859
    63  H    1.000942
    64  H    1.000537
    65  H    0.999777
    66  H    1.001770
    67  H    1.000725
    68  H    0.999366
    69  H    1.000406
    70  H    1.000249
    71  H    0.999586
    72  H    0.999272
    73  H    0.996472
    74  H    0.998018
    75  H    0.998297
    76  H    0.999390
    77  H    0.999204
    78  H    1.000246
    79  H    1.000060
    80  Mg  11.999911
    81  C    5.995097
    82  C    5.996254
    83  C    6.004853
    84  C    6.001967
    85  N    6.996052
    86  C    6.003895
    87  C    5.998769
    88  C    6.001053
    89  C    5.998803
    90  C    6.000601
    91  C    6.000106
    92  C    6.000443
    93  H    0.999210
    94  N    7.000430
    95  C    5.997763
    96  C    5.996371
    97  C    5.999282
    98  C    5.995880
    99  C    6.000558
   100  C    5.998532
   101  O    7.996216
   102  C    6.000554
   103  N    7.003200
   104  C    5.994689
   105  C    6.001230
   106  C    5.998958
   107  C    6.001381
   108  C    6.000078
   109  C    5.999713
   110  C    5.999830
   111  N    6.999925
   112  C    6.003034
   113  C    6.004602
   114  C    6.000029
   115  C    6.002833
   116  C    6.000979
   117  C    6.001493
   118  O    7.999245
   119  C    6.001176
   120  C    6.000408
   121  O    7.999086
   122  O    8.000148
   123  C    6.000122
   124  H    0.997245
   125  H    0.999753
   126  H    1.001320
   127  H    0.999265
   128  H    0.999423
   129  H    0.999772
   130  H    0.998980
   131  H    0.998101
   132  H    1.000263
   133  H    0.999997
   134  H    0.999516
   135  H    0.999571
   136  H    0.998328
   137  H    0.997375
   138  H    0.997818
   139  H    0.999106
   140  H    0.998049
   141  H    0.999422
   142  H    0.999730
   143  H    0.999795
   144  H    0.999951
   145  H    1.000475
   146  H    0.998744
   147  H    1.000369
   148  H    1.000863
   149  H    1.000129
   150  H    0.999444
   151  H    1.000169
   152  H    1.001520
   153  H    1.000883
   154  H    0.999811
   155  H    1.000413
   156  H    1.000101
   157  H    0.999930
   158  H    0.999223
 Sum of Mulliken charges = 624.00000

 Dipole moment (field-independent basis, Debye):
    X=             -3.3079    Y=             -0.5216    Z=             -0.3753  Tot=              3.3698
 Quadrupole moment (field-independent basis, Debye-Ang):
   XX=              2.2139   YY=              0.6746   ZZ=             -0.2720
   XY=              2.1766   XZ=              0.1883   YZ=              0.3646

 Normal termination of Gaussian 16 at Thu Oct 14 21:42:56 2021.
