 Gaussian 16, Revision A.03,
 Gaussian 16:  ES64L-G16RevA.03 25-Dec-2016

 --------------------------------------------------------
 #p PBE1PBE/Def2SVP td=(nstates=5) density=(transition=1)
 --------------------------------------------------------

 --------------------------------
 TDDFT excited states in gaussian
 --------------------------------
 Symbolic Z-matrix:
 Charge =  0 Multiplicity = 1

                         Standard orientation:
 ---------------------------------------------------------------------
 Center     Atomic      Atomic             Coordinates (Angstroms)
 Number     Number       Type             X           Y           Z
 ---------------------------------------------------------------------
      1         12           0       10.767762    0.612430   -0.137075
      2          6           0       10.786256   -2.756609    0.352038
      3          6           0        7.586288    0.654849    1.243383
      4          6           0       10.907470    3.964410   -0.268634
      5          6           0       14.205989    0.539274   -0.884749
      6          7           0        9.455990   -0.872604    0.942693
      7          6           0        9.704161   -2.197641    0.950813
      8          6           0        8.683353   -2.963543    1.710234
      9          6           0        7.448875   -1.865565    1.655375
     10          6           0        8.190089   -0.574289    1.249502
     11          6           0        6.299156   -2.295760    0.697214
     12          6           0        9.177158   -3.212810    3.126491
     13          6           0        9.625682   -1.970783    4.027563
     14          1           0        9.270255   -1.924260    5.508409
     15          7           0        9.449179    2.101960    0.405265
     16          6           0        8.110958    1.919870    0.836872
     17          6           0        7.490822    3.202621    0.825379
     18          6           0        8.401112    4.184090    0.453310
     19          6           0        9.648108    3.471276    0.128540
     20          6           0        6.029952    3.290223    1.217775
     21          6           0        8.193594    5.679805    0.452345
     22          8           0        7.057994    6.071134    0.820434
     23          6           0        9.205507    6.667200    0.278797
     24          7           0       12.411778    2.043927   -0.313935
     25          6           0       12.172829    3.383809   -0.402953
     26          6           0       13.480948    4.171534   -0.653979
     27          6           0       14.533121    3.028195   -0.848130
     28          6           0       13.693588    1.787111   -0.596543
     29          6           0       13.391281    5.137199   -1.816306
     30          6           0       15.780595    3.199610    0.172636
     31          6           0       17.148592    2.918757   -0.459572
     32          7           0       12.304465   -0.811888   -0.276261
     33          6           0       13.567276   -0.752588   -0.772682
     34          6           0       13.996320   -2.107951   -0.986659
     35          6           0       12.934480   -2.999223   -0.605053
     36          6           0       11.942606   -2.143143   -0.155873
     37          6           0       15.394662   -2.531589   -1.280665
     38          6           0       12.489192   -4.339836   -0.398857
     39          8           0       13.144624   -5.348201   -0.690349
     40          6           0       11.092440   -4.227739    0.183714
     41          6           0       10.147263   -4.930621   -0.717613
     42          8           0       10.333263   -6.104060   -0.973375
     43          8           0        9.079586   -4.184531   -1.113838
     44          6           0        8.127082   -4.875089   -1.985493
     45          1           0        6.507574    0.638754    1.411727
     46          1           0       10.862851    5.022994   -0.532305
     47          1           0       15.216388    0.420789   -1.282429
     48          1           0        8.384683   -3.940700    1.330547
     49          1           0        6.910308   -1.839125    2.603554
     50          1           0        5.361186   -2.361290    1.247381
     51          1           0        6.544994   -3.296240    0.340270
     52          1           0        6.170389   -1.655717   -0.176601
     53          1           0        9.955846   -3.973071    3.061888
     54          1           0        8.368378   -3.810728    3.546402
     55          1           0        9.269096   -0.994541    3.698819
     56          1           0       10.711245   -2.057353    3.991347
     57          1           0        6.027131    3.355287    2.305990
     58          1           0        5.532339    2.364200    0.932460
     59          1           0        5.462436    4.118534    0.792536
     60          1           0        8.972759    7.585350    0.819100
     61          1           0        9.482385    6.830596   -0.763509
     62          1           0       10.060182    6.284398    0.834905
     63          1           0       13.639883    4.689858    0.292278
     64          1           0       14.824355    2.979201   -1.897183
     65          1           0       12.393885    5.221862   -2.246914
     66          1           0       14.109072    5.105042   -2.635523
     67          1           0       13.464177    6.105670   -1.320621
     68          1           0       15.721697    2.559625    1.053068
     69          1           0       15.802480    4.188798    0.629596
     70          1           0       17.664907    3.870595   -0.581179
     71          1           0       16.985065    2.541628   -1.469318
     72          1           0       17.762818    2.243719    0.136575
     73          1           0       15.799478   -2.287025   -2.261972
     74          1           0       15.402185   -3.611176   -1.125882
     75          1           0       16.112688   -2.080216   -0.595889
     76          1           0       11.123633   -4.743240    1.144048
     77          1           0        7.774159   -5.760530   -1.456000
     78          1           0        8.531258   -5.109787   -2.970336
     79          1           0        7.320999   -4.203823   -2.281328
     80         12           0      -11.305435    0.286325   -0.389470
     81          6           0       -8.690824   -2.048981   -0.024440
     82          6           0      -13.419369   -2.171958    0.466548
     83          6           0      -13.565955    2.643216   -0.264062
     84          6           0       -8.752149    2.780711   -0.560464
     85          7           0      -11.048031   -1.855057    0.200003
     86          6           0       -9.942350   -2.636738    0.213614
     87          6           0      -10.226562   -4.087210    0.547308
     88          6           0      -11.802604   -4.095618    0.417104
     89          6           0      -12.165900   -2.625952    0.368880
     90          6           0      -12.364528   -4.883578   -0.837368
     91          6           0       -9.742111   -4.744504    1.912650
     92          6           0       -9.271984   -3.875922    3.109587
     93          1           0       -9.565512   -4.403148    4.563768
     94          7           0      -13.293035    0.164849   -0.073049
     95          6           0      -13.971180   -0.886336    0.367572
     96          6           0      -15.374482   -0.473930    0.642943
     97          6           0      -15.443399    0.962273    0.250865
     98          6           0      -14.051035    1.308426   -0.036240
     99          6           0      -16.474999   -1.428548    1.020383
    100          6           0      -16.672380    1.831625    0.304494
    101          8           0      -17.742586    1.319975    0.624156
    102          6           0      -16.705139    3.382852    0.044200
    103          7           0      -11.178989    2.504616   -0.298319
    104          6           0      -12.303554    3.120908   -0.419404
    105          6           0      -11.979346    4.666550   -0.631566
    106          6           0      -10.457972    4.663647   -0.468508
    107          6           0      -10.073602    3.197487   -0.417917
    108          6           0      -12.461816    5.364041   -1.914336
    109          6           0       -9.955542    5.281869    0.937222
    110          6           0       -9.163744    6.600284    0.863114
    111          7           0       -9.189849    0.428558   -0.253987
    112          6           0       -8.303269    1.452281   -0.460124
    113          6           0       -6.923727    0.925255   -0.624934
    114          6           0       -6.993839   -0.466249   -0.332530
    115          6           0       -8.433838   -0.695654   -0.229062
    116          6           0       -5.630150    1.744537   -0.831220
    117          6           0       -6.293209   -1.694048   -0.154061
    118          8           0       -5.093114   -2.002007   -0.054806
    119          6           0       -7.369411   -2.801382   -0.020545
    120          6           0       -7.125431   -3.795400   -1.159719
    121          8           0       -6.665961   -4.906103   -1.188924
    122          8           0       -7.746265   -3.287103   -2.305894
    123          6           0       -7.745317   -4.143021   -3.532782
    124          1           0      -14.083446   -2.989465    0.755546
    125          1           0      -14.364219    3.389299   -0.252192
    126          1           0       -8.013026    3.520428   -0.873910
    127          1           0       -9.825106   -4.645434   -0.298264
    128          1           0      -12.231948   -4.586404    1.290663
    129          1           0      -11.551293   -5.258392   -1.457965
    130          1           0      -12.807929   -4.075016   -1.417476
    131          1           0      -13.058324   -5.655919   -0.504841
    132          1           0       -8.940833   -5.438164    1.657587
    133          1           0      -10.534107   -5.392045    2.290385
    134          1           0       -9.772238   -2.915235    2.987203
    135          1           0       -8.188799   -3.802641    3.201758
    136          1           0      -17.471313   -0.998854    0.918488
    137          1           0      -16.217359   -1.816620    2.006551
    138          1           0      -16.309513   -2.282208    0.362305
    139          1           0      -16.279419    3.811028   -0.864069
    140          1           0      -16.117949    3.866159    0.825055
    141          1           0      -17.720444    3.778237    0.054117
    142          1           0      -12.460533    5.281714    0.128035
    143          1           0       -9.848514    5.192263   -1.202292
    144          1           0      -13.023947    4.686939   -2.557685
    145          1           0      -11.636811    5.828469   -2.455537
    146          1           0      -13.169051    6.172532   -1.729212
    147          1           0       -9.293729    4.596834    1.465387
    148          1           0      -10.858493    5.416860    1.533062
    149          1           0       -8.392541    6.728625    1.623042
    150          1           0       -9.899441    7.383443    1.045969
    151          1           0       -8.726434    6.571844   -0.134984
    152          1           0       -5.726905    2.814182   -0.648116
    153          1           0       -5.386143    1.588509   -1.881751
    154          1           0       -4.835672    1.274685   -0.251966
    155          1           0       -7.249148   -3.307234    0.936878
    156          1           0       -6.911845   -4.827172   -3.690525
    157          1           0       -7.673934   -3.414896   -4.340547
    158          1           0       -8.642588   -4.715629   -3.768449
 ---------------------------------------------------------------------

 SCF Done:  E(RPBE1PBE) =  -4067.36027703     A.U. after   16 cycles

 Excitation energies and oscillator strengths:

 Excited State   1:      Singlet-A      1.8897 eV  656.10 nm  f=0.4730  <S**2>=0.000
     310 -> 316       -0.16643
     311 -> 313       -0.12485
     312 -> 314        0.68070
     312 <- 314       -0.10632
 This state for optimization and/or second-order correction.
 Total Energy, E(TD-HF/TD-DFT) =  -4067.29083153
 Copying the excited state density for this state as the 1-particle RhoCI density.

 Excited State   2:      Singlet-A      1.9113 eV  648.71 nm  f=0.3183  <S**2>=0.000
     309 -> 315        0.17421
     311 -> 313        0.67981
     312 -> 314        0.12435
     311 <- 313       -0.10414

 Excited State   3:      Singlet-A      1.9171 eV  646.74 nm  f=0.0000  <S**2>=0.000
     312 -> 313        0.70706

 Excited State   4:      Singlet-A      1.9479 eV  636.49 nm  f=0.0000  <S**2>=0.000
     311 -> 314        0.70709

 Excited State   5:      Singlet-A      2.2076 eV  561.63 nm  f=0.1125  <S**2>=0.000
     310 -> 314        0.66022
     312 -> 316        0.22002

 The electronic state is 1-A.
 Alpha  occ. eigenvalues --  -46.93504 -46.92364 -19.26907 -19.25284 -19.20653
 Alpha  occ. eigenvalues --  -19.19617 -19.19593 -19.19007 -19.18571 -19.18167
 Alpha  occ. eigenvalues --  -14.41876 -14.41469 -14.41364 -14.41347 -14.40060
 Alpha  occ. eigenvalues --  -14.39928 -14.39278 -14.38275 -10.36928 -10.36378
 Alpha  occ. eigenvalues --  -10.32955 -10.32734 -10.31739 -10.31616 -10.29807
 Alpha  occ. eigenvalues --  -10.29158 -10.29142 -10.29137 -10.28771 -10.28723
 Alpha  occ. eigenvalues --  -10.28611 -10.28597 -10.28580 -10.28548 -10.28229
 Alpha  occ. eigenvalues --  -10.27988 -10.27904 -10.27847 -10.27758 -10.27683
 Alpha  occ. eigenvalues --  -10.27679 -10.27032 -10.26911 -10.26787 -10.26646
 Alpha  occ. eigenvalues --  -10.26550 -10.26446 -10.26179 -10.26137 -10.26123
 Alpha  occ. eigenvalues --  -10.25979 -10.25958 -10.25940 -10.25787 -10.25726
 Alpha  occ. eigenvalues --  -10.25639 -10.25587 -10.25586 -10.25500 -10.25267
 Alpha  occ. eigenvalues --  -10.25196 -10.24984 -10.24864 -10.24821 -10.24807
 Alpha  occ. eigenvalues --  -10.24786 -10.24758 -10.24748 -10.24607 -10.24514
 Alpha  occ. eigenvalues --  -10.24436 -10.24385 -10.24189 -10.24081 -10.24059
 Alpha  occ. eigenvalues --  -10.24028 -10.23917 -10.23707 -10.23593 -10.23575
 Alpha  occ. eigenvalues --  -10.23226 -10.23053 -10.23015 -10.22740 -10.22473
 Alpha  occ. eigenvalues --  -10.22356  -3.15563  -3.14400  -1.88391  -1.87936
 Alpha  occ. eigenvalues --   -1.87790  -1.87215  -1.86792  -1.86605  -1.12065
 Alpha  occ. eigenvalues --   -1.10829  -1.04489  -1.03959  -1.03770  -1.02875
 Alpha  occ. eigenvalues --   -1.02760  -1.02137  -1.01442  -0.99477  -0.99441
 Alpha  occ. eigenvalues --   -0.99041  -0.98752  -0.98077  -0.97444  -0.95873
 Alpha  occ. eigenvalues --   -0.88423  -0.87903  -0.84214  -0.83419  -0.83236
 Alpha  occ. eigenvalues --   -0.83222  -0.82924  -0.82918  -0.82669  -0.81955
 Alpha  occ. eigenvalues --   -0.81158  -0.80416  -0.80081  -0.79936  -0.79287
 Alpha  occ. eigenvalues --   -0.79241  -0.78356  -0.78228  -0.77413  -0.77217
 Alpha  occ. eigenvalues --   -0.76924  -0.76072  -0.75667  -0.75172  -0.75140
 Alpha  occ. eigenvalues --   -0.74828  -0.72881  -0.72865  -0.72137  -0.72034
 Alpha  occ. eigenvalues --   -0.71383  -0.71292  -0.70994  -0.70305  -0.69832
 Alpha  occ. eigenvalues --   -0.69164  -0.67791  -0.66934  -0.66895  -0.66430
 Alpha  occ. eigenvalues --   -0.64281  -0.64063  -0.63635  -0.63523  -0.63153
 Alpha  occ. eigenvalues --   -0.63094  -0.62114  -0.61438  -0.61350  -0.60885
 Alpha  occ. eigenvalues --   -0.60214  -0.60044  -0.59710  -0.59625  -0.59462
 Alpha  occ. eigenvalues --   -0.58768  -0.58284  -0.57726  -0.55176  -0.54939
 Alpha  occ. eigenvalues --   -0.54676  -0.54111  -0.54092  -0.53739  -0.53228
 Alpha  occ. eigenvalues --   -0.53095  -0.52884  -0.52788  -0.52571  -0.51733
 Alpha  occ. eigenvalues --   -0.51170  -0.51066  -0.51037  -0.50463  -0.50308
 Alpha  occ. eigenvalues --   -0.50200  -0.49657  -0.49604  -0.49122  -0.49005
 Alpha  occ. eigenvalues --   -0.48754  -0.48557  -0.48324  -0.48305  -0.47702
 Alpha  occ. eigenvalues --   -0.47602  -0.47564  -0.47427  -0.46862  -0.46663
 Alpha  occ. eigenvalues --   -0.46372  -0.46348  -0.46335  -0.46155  -0.45889
 Alpha  occ. eigenvalues --   -0.45798  -0.45679  -0.45677  -0.45449  -0.45248
 Alpha  occ. eigenvalues --   -0.44705  -0.44640  -0.44462  -0.44131  -0.44089
 Alpha  occ. eigenvalues --   -0.43949  -0.43759  -0.43686  -0.43535  -0.43262
 Alpha  occ. eigenvalues --   -0.43260  -0.43240  -0.43191  -0.43054  -0.42968
 Alpha  occ. eigenvalues --   -0.42649  -0.42605  -0.42363  -0.42215  -0.42154
 Alpha  occ. eigenvalues --   -0.41939  -0.41740  -0.41652  -0.41399  -0.41379
 Alpha  occ. eigenvalues --   -0.41135  -0.41031  -0.40908  -0.40829  -0.40648
 Alpha  occ. eigenvalues --   -0.40637  -0.40424  -0.40315  -0.40284  -0.40171
 Alpha  occ. eigenvalues --   -0.39851  -0.39708  -0.39459  -0.39378  -0.39330
 Alpha  occ. eigenvalues --   -0.39178  -0.39060  -0.38856  -0.38443  -0.38304
 Alpha  occ. eigenvalues --   -0.38195  -0.38188  -0.37971  -0.37735  -0.37545
 Alpha  occ. eigenvalues --   -0.37276  -0.37107  -0.37062  -0.37004  -0.36988
 Alpha  occ. eigenvalues --   -0.36913  -0.36666  -0.36550  -0.36350  -0.36174
 Alpha  occ. eigenvalues --   -0.35964  -0.35877  -0.35857  -0.35707  -0.35633
 Alpha  occ. eigenvalues --   -0.35167  -0.34935  -0.34431  -0.34148  -0.34031
 Alpha  occ. eigenvalues --   -0.33861  -0.33521  -0.33312  -0.32743  -0.32692
 Alpha  occ. eigenvalues --   -0.32549  -0.32348  -0.32019  -0.31828  -0.31610
 Alpha  occ. eigenvalues --   -0.31366  -0.30908  -0.30115  -0.29648  -0.29464
 Alpha  occ. eigenvalues --   -0.29148  -0.29072  -0.28441  -0.27485  -0.27259
 Alpha  occ. eigenvalues --   -0.26638  -0.26222  -0.25934  -0.25487  -0.25322
 Alpha  occ. eigenvalues --   -0.25273  -0.25110  -0.24703  -0.21465  -0.21091
 Alpha  occ. eigenvalues --   -0.19232  -0.19148
 Alpha virt. eigenvalues --   -0.11479  -0.11464  -0.05576  -0.05306  -0.04835
 Alpha virt. eigenvalues --   -0.03928  -0.02701  -0.02254  -0.01499  -0.01271
 Alpha virt. eigenvalues --    0.00109   0.00462   0.00651   0.01208   0.01432

 Mulliken charges:
               1
     1  Mg  11.998261
     2  C    6.008750
     3  C    5.986352
     4  C    5.988437
     5  C    6.014349
     6  N    7.002015
     7  C    5.973211
     8  C    6.013554
     9  C    5.987217
    10  C    6.026949
    11  C    5.997485
    12  C    6.005723
    13  C    6.001724
    14  H    0.993222
    15  N    6.993724
    16  C    6.040390
    17  C    6.019794
    18  C    6.007846
    19  C    6.036126
    20  C    5.997498
    21  C    6.013749
    22  O    8.021228
    23  C    5.995062
    24  N    7.004804
    25  C    6.026647
    26  C    5.992014
    27  C    6.009952
    28  C    5.970049
    29  C    5.999795
    30  C    6.002609
    31  C    6.001212
    32  N    6.999837
    33  C    5.968514
    34  C    5.965378
    35  C    5.999502
    36  C    5.974109
    37  C    6.002291
    38  C    5.983240
    39  O    7.973338
    40  C    5.998484
    41  C    5.995519
    42  O    7.995830
    43  O    7.999535
    44  C    6.001508
    45  H    1.008991
    46  H    1.007886
    47  H    0.995732
    48  H    0.999441
    49  H    1.002928
    50  H    1.000976
    51  H    1.012705
    52  H    0.997341
    53  H    1.005812
    54  H    0.992379
    55  H    0.986460
    56  H    1.007094
    57  H    1.019095
    58  H    1.017264
    59  H    1.014379
    60  H    1.012161
    61  H    1.011303
    62  H    1.007110
    63  H    1.000092
    64  H    1.000175
    65  H    0.996136
    66  H    1.008836
    67  H    1.000053
    68  H    1.000877
    69  H    0.990926
    70  H    0.995244
    71  H    1.002068
    72  H    1.002138
    73  H    0.976631
    74  H    0.987507
    75  H    0.976960
    76  H    0.991372
    77  H    0.995832
    78  H    0.998077
    79  H    0.991187
    80  Mg  12.000769
    81  C    6.002251
    82  C    5.997221
    83  C    5.996757
    84  C    6.002297
    85  N    6.999941
    86  C    5.995115
    87  C    6.002027
    88  C    5.998292
    89  C    6.004855
    90  C    5.999727
    91  C    5.999707
    92  C    6.001278
    93  H    0.998620
    94  N    6.998904
    95  C    6.007793
    96  C    6.005385
    97  C    6.000983
    98  C    6.006835
    99  C    5.999882
   100  C    6.001886
   101  O    8.003314
   102  C    5.999670
   103  N    7.000292
   104  C    6.004818
   105  C    5.998693
   106  C    6.000777
   107  C    5.994816
   108  C    5.999860
   109  C    6.001181
   110  C    6.000007
   111  N    6.999836
   112  C    5.994309
   113  C    5.993941
   114  C    5.999030
   115  C    5.996140
   116  C    5.999822
   117  C    5.996457
   118  O    7.993504
   119  C    6.000242
   120  C    5.999720
   121  O    7.998679
   122  O    8.000354
   123  C    6.000353
   124  H    1.001805
   125  H    1.001474
   126  H    0.998242
   127  H    1.000070
   128  H    1.000429
   129  H    1.002548
   130  H    0.999222
   131  H    1.000565
   132  H    1.000573
   133  H    0.998720
   134  H    0.999210
   135  H    1.000719
   136  H    1.002825
   137  H    1.003913
   138  H    1.003854
   139  H    1.001943
   140  H    1.001625
   141  H    1.002244
   142  H    1.000025
   143  H    1.000048
   144  H    0.999638
   145  H    1.001529
   146  H    1.000114
   147  H    1.000495
   148  H    0.997894
   149  H    0.999484
   150  H    0.999129
   151  H    0.999949
   152  H    0.996119
   153  H    0.996606
   154  H    0.996663
   155  H    0.998236
   156  H    0.999665
   157  H    0.999520
   158  H    0.998564
 Sum of Mulliken charges = 624.00000

 Dipole moment (field-independent basis, Debye):
    X=             -8.3928    Y=              7.6623    Z=              1.6943  Tot=             11.4900
 Quadrupole moment (field-independent basis, Debye-Ang):
   XX=            -94.0469   YY=              7.9176   ZZ=             -1.3364
   XY=             78.6335   XZ=             14.4859   YZ=             -0.4701

 Normal termination of Gaussian 16 at Thu Oct 14 23:37:24 2021.
