 Gaussian 16, Revision A.03,
 Gaussian 16:  ES64L-G16RevA.03 25-Dec-2016

 --------------------------------------------------------
 #p PBE1PBE/Def2SVP td=(nstates=5) density=(transition=1)
 --------------------------------------------------------

 --------------------------------
 TDDFT excited states in gaussian
 --------------------------------
 Symbolic Z-matrix:
 Charge =  0 Multiplicity = 1

                         Standard orientation:
 ---------------------------------------------------------------------
 Center     Atomic      Atomic             Coordinates (Angstroms)
 Number     Number       Type             X           Y           Z
 ---------------------------------------------------------------------
      1         12           0       20.596899   -0.599585    0.014522
      2          6           0       19.987466    2.876315    0.482269
      3          6           0       20.106711   -0.144615   -3.358208
      4          6           0       21.125573   -3.853066   -0.218385
      5          6           0       20.583086   -1.019555    3.584222
      6          7           0       20.019356    1.204191   -1.337399
      7          6           0       19.942438    2.504017   -0.871731
      8          6           0       19.710623    3.404486   -2.133272
      9          6           0       19.705343    2.404680   -3.408948
     10          6           0       19.940098    1.087588   -2.662323
     11          6           0       18.460747    2.470101   -4.318444
     12          6           0       20.633382    4.683616   -2.285365
     13          6           0       19.914282    5.998997   -2.362291
     14          1           0       18.516047    6.156268   -2.898954
     15          7           0       20.742164   -1.861697   -1.658337
     16          6           0       20.495451   -1.473358   -2.937446
     17          6           0       20.856501   -2.594970   -3.765807
     18          6           0       21.049871   -3.690768   -2.897212
     19          6           0       20.959532   -3.201776   -1.482975
     20          6           0       20.793567   -2.472182   -5.297611
     21          6           0       21.184294   -5.134017   -3.278185
     22          8           0       21.233405   -6.039456   -2.412150
     23          6           0       21.202236   -5.508866   -4.713666
     24          7           0       20.755034   -2.202062    1.545932
     25          6           0       21.043480   -3.400429    1.173981
     26          6           0       21.324558   -4.485715    2.344588
     27          6           0       21.124933   -3.558206    3.552905
     28          6           0       20.816330   -2.227178    2.912196
     29          6           0       20.294650   -5.668164    2.225246
     30          6           0       22.314840   -3.453778    4.570498
     31          6           0       23.562689   -2.670574    4.098065
     32          7           0       20.225577    0.597538    1.630076
     33          6           0       20.236612    0.256959    3.003212
     34          6           0       20.056245    1.494703    3.774044
     35          6           0       19.963858    2.542266    2.826448
     36          6           0       20.115875    1.950169    1.527207
     37          6           0       20.025422    1.595267    5.328567
     38          6           0       19.822276    3.898278    2.738587
     39          8           0       19.645259    4.757306    3.578185
     40          6           0       19.884754    4.242024    1.224119
     41          6           0       18.711646    5.012369    0.881320
     42          8           0       17.627679    4.530466    0.533527
     43          8           0       18.911047    6.354182    1.227192
     44          6           0       17.702348    7.204952    1.095578
     45          1           0       19.735491   -0.187370   -4.384651
     46          1           0       21.134975   -4.941406   -0.308079
     47          1           0       20.573790   -1.090589    4.673821
     48          1           0       18.745945    3.820866   -1.846121
     49          1           0       20.515821    2.688156   -4.078942
     50          1           0       18.748356    2.672113   -5.351019
     51          1           0       17.680076    3.174934   -4.032827
     52          1           0       18.031795    1.470917   -4.242699
     53          1           0       21.273989    4.579274   -3.161276
     54          1           0       21.228165    4.716567   -1.372507
     55          1           0       20.393712    6.562232   -3.163714
     56          1           0       19.984325    6.473592   -1.384179
     57          1           0       20.768761   -1.432764   -5.625673
     58          1           0       19.911093   -2.990167   -5.670954
     59          1           0       21.705347   -2.957115   -5.644838
     60          1           0       22.034838   -4.972735   -5.169162
     61          1           0       20.295224   -5.179921   -5.222290
     62          1           0       21.246142   -6.591248   -4.827689
     63          1           0       22.348978   -4.856730    2.304320
     64          1           0       20.177790   -3.793421    4.038930
     65          1           0       19.380003   -5.268071    1.787787
     66          1           0       20.053376   -6.009539    3.232517
     67          1           0       20.584692   -6.543056    1.642832
     68          1           0       22.539545   -4.439116    4.977582
     69          1           0       21.933639   -2.962937    5.465418
     70          1           0       23.794349   -2.711126    3.034266
     71          1           0       24.406615   -2.974046    4.718610
     72          1           0       23.367717   -1.636960    4.383524
     73          1           0       20.686377    2.367962    5.721362
     74          1           0       20.238339    0.649775    5.826102
     75          1           0       19.090510    2.066362    5.633105
     76          1           0       20.782477    4.857703    1.178813
     77          1           0       16.963953    6.941248    1.852336
     78          1           0       17.179420    7.102364    0.145416
     79          1           0       18.056799    8.235168    1.057945
     80         12           0      -19.700843   -0.768675    0.216384
     81          6           0      -21.657453    2.244479    0.483533
     82          6           0      -17.690495    0.771749   -1.961090
     83          6           0      -18.529528   -3.796639   -0.614401
     84          6           0      -22.182926   -2.333385    2.138676
     85          7           0      -19.726783    1.224658   -0.654111
     86          6           0      -20.474563    2.353772   -0.278858
     87          6           0      -19.889188    3.669399   -0.919963
     88          6           0      -18.673585    3.133073   -1.734966
     89          6           0      -18.650837    1.619484   -1.393021
     90          6           0      -18.676713    3.375355   -3.223015
     91          6           0      -19.545658    4.806515    0.183753
     92          6           0      -20.163635    6.184552   -0.083206
     93          1           0      -19.108496    7.346401   -0.202135
     94          7           0      -18.196643   -1.408446   -1.014052
     95          6           0      -17.477671   -0.645568   -1.843680
     96          6           0      -16.514614   -1.440067   -2.608135
     97          6           0      -16.844343   -2.796906   -2.265781
     98          6           0      -17.913516   -2.727667   -1.264203
     99          6           0      -15.525224   -0.853750   -3.521135
    100          6           0      -16.211973   -4.044460   -2.958988
    101          8           0      -16.466607   -5.181794   -2.599578
    102          6           0      -15.236965   -3.936170   -4.087708
    103          7           0      -20.269146   -2.704254    0.692847
    104          6           0      -19.524484   -3.814836    0.310394
    105          6           0      -20.088764   -5.119769    0.962251
    106          6           0      -21.024923   -4.563360    2.099065
    107          6           0      -21.138714   -3.100567    1.670518
    108          6           0      -20.692744   -6.207004    0.014865
    109          6           0      -20.433252   -4.690378    3.529614
    110          6           0      -21.354113   -5.064518    4.663523
    111          7           0      -21.575083   -0.211687    1.094941
    112          6           0      -22.449558   -0.956785    1.833917
    113          6           0      -23.531646   -0.030407    2.386852
    114          6           0      -23.229759    1.228533    1.926784
    115          6           0      -22.074640    1.058471    1.088904
    116          6           0      -24.602215   -0.504095    3.343381
    117          6           0      -23.610832    2.628986    1.881886
    118          8           0      -24.598450    3.104785    2.479990
    119          6           0      -22.613323    3.381658    0.814935
    120          6           0      -23.289865    3.875991   -0.446600
    121          8           0      -23.967404    3.103441   -1.152972
    122          8           0      -23.209557    5.261888   -0.588912
    123          6           0      -24.189606    5.778246   -1.537298
    124          1           0      -16.931467    1.237170   -2.592989
    125          1           0      -18.045350   -4.734276   -0.894035
    126          1           0      -22.845255   -2.863181    2.827170
    127          1           0      -20.717204    4.015473   -1.538297
    128          1           0      -17.838212    3.762478   -1.425138
    129          1           0      -19.580019    3.873591   -3.575266
    130          1           0      -18.781027    2.346989   -3.567304
    131          1           0      -17.826611    3.965844   -3.566027
    132          1           0      -18.456458    4.832823    0.167142
    133          1           0      -19.795764    4.425384    1.173491
    134          1           0      -20.904317    6.349209    0.699339
    135          1           0      -20.692673    6.160074   -1.036756
    136          1           0      -15.486122   -1.170651   -4.562850
    137          1           0      -14.576610   -1.282462   -3.199975
    138          1           0      -15.351013    0.215725   -3.400903
    139          1           0      -14.387958   -3.390015   -3.674863
    140          1           0      -15.699378   -3.291096   -4.835330
    141          1           0      -15.046926   -4.959036   -4.410451
    142          1           0      -19.213371   -5.569783    1.430582
    143          1           0      -22.038327   -4.960614    2.046670
    144          1           0      -20.459663   -5.845280   -0.986341
    145          1           0      -21.750972   -6.407568    0.179829
    146          1           0      -20.124350   -7.137478    0.042774
    147          1           0      -20.078157   -3.664804    3.628791
    148          1           0      -19.558330   -5.336093    3.607592
    149          1           0      -20.800562   -5.788734    5.261294
    150          1           0      -22.266905   -5.558678    4.329221
    151          1           0      -21.422278   -4.178626    5.295392
    152          1           0      -24.450725   -1.573441    3.489398
    153          1           0      -25.567131   -0.403720    2.846930
    154          1           0      -24.577655    0.102027    4.248757
    155          1           0      -22.090199    4.179690    1.341810
    156          1           0      -24.992792    6.370660   -1.101278
    157          1           0      -24.652053    5.013343   -2.161295
    158          1           0      -23.637466    6.425350   -2.218355
 ---------------------------------------------------------------------

 SCF Done:  E(RPBE1PBE) =  -4067.36360023     A.U. after   16 cycles

 Excitation energies and oscillator strengths:

 Excited State   1:      Singlet-A      1.8518 eV  669.55 nm  f=0.3978  <S**2>=0.000
     309 -> 316        0.16670
     312 -> 314        0.69620
     312 <- 314       -0.11424
 This state for optimization and/or second-order correction.
 Total Energy, E(TD-HF/TD-DFT) =  -4067.29554920
 Copying the excited state density for this state as the 1-particle RhoCI density.

 Excited State   2:      Singlet-A      1.8677 eV  663.82 nm  f=0.3724  <S**2>=0.000
     310 -> 315       -0.18703
     311 -> 313        0.68768

 Excited State   3:      Singlet-A      1.9129 eV  648.15 nm  f=0.0000  <S**2>=0.000
     312 -> 313        0.70711

 Excited State   4:      Singlet-A      2.0731 eV  598.06 nm  f=0.0000  <S**2>=0.000
     311 -> 314        0.70711

 Excited State   5:      Singlet-A      2.2069 eV  561.80 nm  f=0.1030  <S**2>=0.000
     310 -> 313        0.65388
     311 -> 315        0.25873

 The electronic state is 1-A.
 Alpha  occ. eigenvalues --  -46.93226 -46.91804 -19.27233 -19.25033 -19.20964
 Alpha  occ. eigenvalues --  -19.20030 -19.19626 -19.18870 -19.18718 -19.18159
 Alpha  occ. eigenvalues --  -14.42084 -14.42061 -14.41455 -14.41229 -14.39556
 Alpha  occ. eigenvalues --  -14.39321 -14.39264 -14.39069 -10.37734 -10.35709
 Alpha  occ. eigenvalues --  -10.33547 -10.32189 -10.31907 -10.30711 -10.29456
 Alpha  occ. eigenvalues --  -10.29282 -10.29194 -10.29042 -10.28894 -10.28827
 Alpha  occ. eigenvalues --  -10.28795 -10.28252 -10.28251 -10.28192 -10.28111
 Alpha  occ. eigenvalues --  -10.28095 -10.28005 -10.27962 -10.27604 -10.27435
 Alpha  occ. eigenvalues --  -10.27370 -10.26781 -10.26716 -10.26641 -10.26596
 Alpha  occ. eigenvalues --  -10.26465 -10.26393 -10.26358 -10.26192 -10.26152
 Alpha  occ. eigenvalues --  -10.26072 -10.26018 -10.26000 -10.25767 -10.25532
 Alpha  occ. eigenvalues --  -10.25514 -10.25501 -10.25343 -10.25335 -10.25329
 Alpha  occ. eigenvalues --  -10.25203 -10.25156 -10.25109 -10.25037 -10.24957
 Alpha  occ. eigenvalues --  -10.24909 -10.24865 -10.24627 -10.24613 -10.24583
 Alpha  occ. eigenvalues --  -10.24246 -10.24143 -10.23782 -10.23700 -10.23526
 Alpha  occ. eigenvalues --  -10.23523 -10.23456 -10.23438 -10.23408 -10.23359
 Alpha  occ. eigenvalues --  -10.23292 -10.23050 -10.22982 -10.22932 -10.22837
 Alpha  occ. eigenvalues --  -10.22039  -3.15149  -3.14030  -1.88003  -1.87557
 Alpha  occ. eigenvalues --   -1.87328  -1.86852  -1.86388  -1.86281  -1.10987
 Alpha  occ. eigenvalues --   -1.09193  -1.04954  -1.04343  -1.03639  -1.02889
 Alpha  occ. eigenvalues --   -1.02634  -1.01230  -1.00765  -0.98568  -0.98212
 Alpha  occ. eigenvalues --   -0.97982  -0.97621  -0.97233  -0.96625  -0.96519
 Alpha  occ. eigenvalues --   -0.86896  -0.86872  -0.84088  -0.83430  -0.82998
 Alpha  occ. eigenvalues --   -0.82408  -0.82377  -0.82072  -0.81622  -0.81563
 Alpha  occ. eigenvalues --   -0.81425  -0.81137  -0.80385  -0.79960  -0.78584
 Alpha  occ. eigenvalues --   -0.78568  -0.77908  -0.77722  -0.76970  -0.76869
 Alpha  occ. eigenvalues --   -0.76240  -0.76161  -0.75490  -0.75062  -0.74545
 Alpha  occ. eigenvalues --   -0.74422  -0.72812  -0.72465  -0.71912  -0.71899
 Alpha  occ. eigenvalues --   -0.71200  -0.70812  -0.70472  -0.70130  -0.69347
 Alpha  occ. eigenvalues --   -0.69134  -0.67102  -0.66843  -0.66019  -0.65442
 Alpha  occ. eigenvalues --   -0.64814  -0.63569  -0.63409  -0.62780  -0.62294
 Alpha  occ. eigenvalues --   -0.62179  -0.61250  -0.61184  -0.59820  -0.59744
 Alpha  occ. eigenvalues --   -0.59469  -0.59457  -0.59403  -0.59148  -0.58885
 Alpha  occ. eigenvalues --   -0.58811  -0.57131  -0.56122  -0.54907  -0.54623
 Alpha  occ. eigenvalues --   -0.54267  -0.54150  -0.53292  -0.53281  -0.53125
 Alpha  occ. eigenvalues --   -0.52889  -0.52739  -0.52484  -0.52156  -0.51944
 Alpha  occ. eigenvalues --   -0.50860  -0.50849  -0.50589  -0.49921  -0.49896
 Alpha  occ. eigenvalues --   -0.49637  -0.49464  -0.49312  -0.48366  -0.48197
 Alpha  occ. eigenvalues --   -0.48153  -0.47693  -0.47676  -0.47586  -0.47337
 Alpha  occ. eigenvalues --   -0.47230  -0.47216  -0.46875  -0.46625  -0.46423
 Alpha  occ. eigenvalues --   -0.46190  -0.46138  -0.46037  -0.45912  -0.45852
 Alpha  occ. eigenvalues --   -0.45703  -0.45535  -0.45305  -0.44890  -0.44856
 Alpha  occ. eigenvalues --   -0.44489  -0.44136  -0.44127  -0.43940  -0.43868
 Alpha  occ. eigenvalues --   -0.43848  -0.43792  -0.43553  -0.43392  -0.43376
 Alpha  occ. eigenvalues --   -0.43288  -0.43240  -0.42973  -0.42792  -0.42683
 Alpha  occ. eigenvalues --   -0.42607  -0.42520  -0.42215  -0.42042  -0.41899
 Alpha  occ. eigenvalues --   -0.41690  -0.41507  -0.41461  -0.41355  -0.41257
 Alpha  occ. eigenvalues --   -0.41168  -0.40920  -0.40800  -0.40679  -0.40633
 Alpha  occ. eigenvalues --   -0.40425  -0.40311  -0.40081  -0.39824  -0.39504
 Alpha  occ. eigenvalues --   -0.39308  -0.39144  -0.39092  -0.38881  -0.38848
 Alpha  occ. eigenvalues --   -0.38683  -0.38596  -0.38503  -0.38416  -0.38089
 Alpha  occ. eigenvalues --   -0.38017  -0.37911  -0.37826  -0.37673  -0.37604
 Alpha  occ. eigenvalues --   -0.37452  -0.37419  -0.37232  -0.36788  -0.36714
 Alpha  occ. eigenvalues --   -0.36623  -0.36571  -0.36536  -0.36223  -0.36093
 Alpha  occ. eigenvalues --   -0.35992  -0.35990  -0.35653  -0.35531  -0.35515
 Alpha  occ. eigenvalues --   -0.35068  -0.35054  -0.34692  -0.34416  -0.34088
 Alpha  occ. eigenvalues --   -0.34054  -0.33290  -0.32806  -0.32457  -0.32255
 Alpha  occ. eigenvalues --   -0.31962  -0.31733  -0.31525  -0.31510  -0.31130
 Alpha  occ. eigenvalues --   -0.31104  -0.30599  -0.29811  -0.29631  -0.29162
 Alpha  occ. eigenvalues --   -0.28700  -0.28535  -0.28487  -0.27079  -0.26885
 Alpha  occ. eigenvalues --   -0.26354  -0.25872  -0.25782  -0.25649  -0.25601
 Alpha  occ. eigenvalues --   -0.25532  -0.25428  -0.25213  -0.21056  -0.20740
 Alpha  occ. eigenvalues --   -0.18868  -0.18444
 Alpha virt. eigenvalues --   -0.11088  -0.10924  -0.05295  -0.04839  -0.04276
 Alpha virt. eigenvalues --   -0.04063  -0.02251  -0.02099  -0.01687  -0.00797
 Alpha virt. eigenvalues --   -0.00199   0.00336   0.00372   0.01301   0.01450

 Mulliken charges:
               1
     1  Mg  11.999988
     2  C    5.999823
     3  C    6.000286
     4  C    6.000002
     5  C    5.999780
     6  N    6.999921
     7  C    6.000375
     8  C    5.999881
     9  C    6.000278
    10  C    5.999436
    11  C    6.000001
    12  C    5.999978
    13  C    5.999981
    14  H    0.999998
    15  N    7.000195
    16  C    5.999322
    17  C    5.999744
    18  C    5.999729
    19  C    5.999609
    20  C    6.000025
    21  C    5.999761
    22  O    7.999519
    23  C    6.000077
    24  N    6.999872
    25  C    5.999566
    26  C    6.000140
    27  C    5.999857
    28  C    6.000588
    29  C    6.000071
    30  C    5.999935
    31  C    5.999928
    32  N    7.000002
    33  C    6.000660
    34  C    6.000398
    35  C    6.000009
    36  C    6.000401
    37  C    5.999947
    38  C    6.000313
    39  O    8.000515
    40  C    6.000012
    41  C    6.000081
    42  O    8.000078
    43  O    8.000027
    44  C    5.999964
    45  H    0.999862
    46  H    0.999886
    47  H    1.000155
    48  H    0.999914
    49  H    0.999963
    50  H    0.999965
    51  H    0.999782
    52  H    0.999993
    53  H    1.000161
    54  H    0.999952
    55  H    1.000097
    56  H    0.999948
    57  H    0.999744
    58  H    0.999644
    59  H    0.999802
    60  H    0.999926
    61  H    0.999819
    62  H    0.999762
    63  H    1.000034
    64  H    1.000003
    65  H    0.999941
    66  H    0.999832
    67  H    1.000067
    68  H    1.000177
    69  H    0.999971
    70  H    1.000181
    71  H    1.000141
    72  H    0.999877
    73  H    1.000363
    74  H    1.000312
    75  H    1.000282
    76  H    1.000180
    77  H    0.999997
    78  H    1.000059
    79  H    1.000138
    80  Mg  12.002103
    81  C    6.019925
    82  C    5.985007
    83  C    5.987568
    84  C    6.017746
    85  N    7.005875
    86  C    5.966324
    87  C    6.008912
    88  C    5.988029
    89  C    6.032081
    90  C    5.999075
    91  C    6.004223
    92  C    6.002884
    93  H    0.990271
    94  N    6.996296
    95  C    6.037592
    96  C    6.022750
    97  C    6.011143
    98  C    6.035941
    99  C    5.994242
   100  C    6.012360
   101  O    8.022899
   102  C    5.998326
   103  N    7.000632
   104  C    6.028127
   105  C    5.992521
   106  C    6.008786
   107  C    5.970271
   108  C    6.001760
   109  C    6.001037
   110  C    6.002213
   111  N    6.997415
   112  C    5.961518
   113  C    5.967200
   114  C    5.999793
   115  C    5.969849
   116  C    6.002919
   117  C    5.980994
   118  O    7.971357
   119  C    5.995486
   120  C    5.993982
   121  O    7.995968
   122  O    7.996949
   123  C    6.003217
   124  H    1.008465
   125  H    1.007864
   126  H    0.991381
   127  H    0.999432
   128  H    1.005329
   129  H    1.011747
   130  H    0.993849
   131  H    1.002155
   132  H    0.989640
   133  H    1.004277
   134  H    1.003807
   135  H    0.998340
   136  H    1.021706
   137  H    1.018433
   138  H    1.017751
   139  H    1.005266
   140  H    1.004910
   141  H    1.013513
   142  H    0.999922
   143  H    1.001162
   144  H    0.994933
   145  H    1.010960
   146  H    1.001462
   147  H    1.000689
   148  H    0.988866
   149  H    0.995334
   150  H    0.999067
   151  H    1.003876
   152  H    0.981492
   153  H    0.980702
   154  H    0.981958
   155  H    0.991256
   156  H    0.997061
   157  H    0.996622
   158  H    0.993206
 Sum of Mulliken charges = 624.00000

 Dipole moment (field-independent basis, Debye):
    X=              8.2593    Y=             -3.7891    Z=             -5.5431  Tot=             10.6442
 Quadrupole moment (field-independent basis, Debye-Ang):
   XX=           -331.9167   YY=              2.7996   ZZ=              1.5449
   XY=             75.7862   XZ=            114.3590   YZ=              6.4280

 Normal termination of Gaussian 16 at Thu Oct 14 12:03:04 2021.
