 Gaussian 16, Revision A.03,
 Gaussian 16:  ES64L-G16RevA.03 25-Dec-2016

 --------------------------------------------------------
 #p PBE1PBE/Def2SVP td=(nstates=5) density=(transition=1)
 --------------------------------------------------------

 --------------------------------
 TDDFT excited states in gaussian
 --------------------------------
 Symbolic Z-matrix:
 Charge =  0 Multiplicity = 1

                         Standard orientation:
 ---------------------------------------------------------------------
 Center     Atomic      Atomic             Coordinates (Angstroms)
 Number     Number       Type             X           Y           Z
 ---------------------------------------------------------------------
      1         12           0      -33.193931   -0.031348   -0.382045
      2          6           0      -29.954521    1.172104   -0.025585
      3          6           0      -31.779300   -3.293868    0.025795
      4          6           0      -36.229527   -1.280374   -0.207761
      5          6           0      -34.375324    3.261420   -0.036056
      6          7           0      -31.127505   -0.915851    0.079312
      7          6           0      -29.961380   -0.183779    0.078644
      8          6           0      -28.763277   -1.101368    0.337191
      9          6           0      -29.374795   -2.503376    0.063974
     10          6           0      -30.860263   -2.256840    0.094133
     11          6           0      -28.977278   -3.253048   -1.267847
     12          6           0      -28.183136   -0.951606    1.753178
     13          6           0      -26.922277   -1.684563    2.010387
     14          1           0      -26.024082   -1.173059    3.200642
     15          7           0      -33.938364   -2.032840   -0.111983
     16          6           0      -33.203486   -3.222764    0.006903
     17          6           0      -34.134315   -4.310871    0.119523
     18          6           0      -35.452604   -3.726913    0.191761
     19          6           0      -35.241842   -2.262190   -0.075717
     20          6           0      -33.689280   -5.787467    0.307957
     21          6           0      -36.717644   -4.563456    0.408243
     22          8           0      -36.696366   -5.782878    0.384437
     23          6           0      -38.004917   -3.870246    0.644625
     24          7           0      -35.039937    0.896058   -0.376329
     25          6           0      -36.144298    0.142485   -0.344875
     26          6           0      -37.416594    1.067017   -0.170931
     27          6           0      -36.867069    2.540664   -0.054362
     28          6           0      -35.274061    2.222202   -0.107735
     29          6           0      -38.572964    0.895142   -1.190696
     30          6           0      -37.282363    3.160530    1.297044
     31          6           0      -37.456161    4.684161    1.290850
     32          7           0      -32.399919    1.890533   -0.089710
     33          6           0      -32.971445    3.132087   -0.095208
     34          6           0      -31.900428    4.135753   -0.102274
     35          6           0      -30.739268    3.413485   -0.168724
     36          6           0      -31.057202    2.076414   -0.092530
     37          6           0      -32.087569    5.654474   -0.178546
     38          6           0      -29.312045    3.527599   -0.194137
     39          8           0      -28.577298    4.483168   -0.243284
     40          6           0      -28.741974    2.071885   -0.116949
     41          6           0      -28.015551    1.806799   -1.389145
     42          8           0      -28.413822    1.994780   -2.505162
     43          8           0      -26.808465    1.153456   -1.085807
     44          6           0      -26.019047    0.752416   -2.215377
     45          1           0      -31.246296   -4.245806    0.061163
     46          1           0      -37.288554   -1.546950   -0.179998
     47          1           0      -34.706445    4.301452    0.001335
     48          1           0      -28.049825   -0.887315   -0.457437
     49          1           0      -29.228750   -3.247273    0.846385
     50          1           0      -28.661790   -4.239380   -0.928341
     51          1           0      -28.424765   -2.692845   -2.022647
     52          1           0      -29.909434   -3.445989   -1.798643
     53          1           0      -28.801396   -1.346434    2.559841
     54          1           0      -28.037753    0.104013    1.982862
     55          1           0      -26.350165   -1.654019    1.083104
     56          1           0      -27.153997   -2.737763    2.168105
     57          1           0      -33.927882   -5.862783    1.369331
     58          1           0      -32.615386   -5.971547    0.270835
     59          1           0      -34.123043   -6.622049   -0.243188
     60          1           0      -37.783707   -3.142980    1.425801
     61          1           0      -38.712536   -4.590905    1.054854
     62          1           0      -38.237362   -3.432762   -0.326603
     63          1           0      -37.858804    0.771838    0.781024
     64          1           0      -37.131322    3.201201   -0.879560
     65          1           0      -39.392258    0.381930   -0.686232
     66          1           0      -38.182633    0.393036   -2.075305
     67          1           0      -38.989042    1.870671   -1.442252
     68          1           0      -36.497352    2.862322    1.991511
     69          1           0      -38.172042    2.710685    1.738193
     70          1           0      -38.485213    4.811551    1.628638
     71          1           0      -37.237779    5.162275    0.335876
     72          1           0      -36.820098    5.139992    2.049724
     73          1           0      -31.467723    6.252943    0.488261
     74          1           0      -33.151650    5.757452    0.035440
     75          1           0      -32.041956    5.907712   -1.237857
     76          1           0      -28.066337    2.054376    0.738302
     77          1           0      -25.145598    1.404467   -2.225548
     78          1           0      -26.466985    0.752359   -3.209374
     79          1           0      -25.718827   -0.281635   -2.048124
     80         12           0       33.018726    0.304517   -0.361417
     81          6           0       30.238457   -1.186847    1.120303
     82          6           0       32.302051    3.223048    1.327705
     83          6           0       35.734267    1.474133   -1.784841
     84          6           0       34.224826   -3.033911   -1.187709
     85          7           0       31.325481    0.932588    1.065143
     86          6           0       30.315410    0.154972    1.557785
     87          6           0       29.411974    0.948417    2.433563
     88          6           0       30.110983    2.362900    2.530353
     89          6           0       31.357108    2.212600    1.573065
     90          6           0       29.169463    3.569167    2.286819
     91          6           0       29.208010    0.311700    3.829781
     92          6           0       27.720729    0.182936    4.154238
     93          1           0       27.224557    0.783054    5.504304
     94          7           0       33.882221    2.124867   -0.265817
     95          6           0       33.433933    3.237319    0.444827
     96          6           0       34.347232    4.316590    0.091991
     97          6           0       35.359995    3.836457   -0.861900
     98          6           0       34.986370    2.403896   -1.084263
     99          6           0       34.330217    5.602590    0.753623
    100          6           0       36.513403    4.657580   -1.266442
    101          8           0       36.692708    5.804281   -0.913092
    102          6           0       37.651625    4.146968   -2.079209
    103          7           0       34.679838   -0.637287   -1.265669
    104          6           0       35.534040    0.118292   -2.028228
    105          6           0       36.562725   -0.770834   -2.694473
    106          6           0       36.339881   -2.104835   -2.086195
    107          6           0       35.064740   -1.942113   -1.420525
    108          6           0       36.576536   -0.713812   -4.276995
    109          6           0       37.384920   -2.458217   -0.972903
    110          6           0       37.693041   -3.872069   -0.788837
    111          7           0       32.385722   -1.735896   -0.136516
    112          6           0       32.923047   -2.956005   -0.567234
    113          6           0       31.932820   -3.976911   -0.425551
    114          6           0       30.888994   -3.365998    0.259244
    115          6           0       31.227059   -1.979617    0.456252
    116          6           0       32.112685   -5.375852   -0.887511
    117          6           0       29.639254   -3.592566    0.868680
    118          8           0       28.986753   -4.608837    0.955080
    119          6           0       29.148557   -2.222782    1.388214
    120          6           0       27.839522   -1.922096    0.786986
    121          8           0       27.656709   -1.376689   -0.314427
    122          8           0       26.842162   -2.479123    1.554103
    123          6           0       25.445662   -2.239894    1.228024
    124          1           0       31.979580    4.129207    1.843692
    125          1           0       36.688468    1.712224   -2.261469
    126          1           0       34.614101   -4.011983   -1.478122
    127          1           0       28.552771    1.168435    1.799328
    128          1           0       30.504215    2.587351    3.521386
    129          1           0       28.184235    3.128586    2.444232
    130          1           0       29.290497    4.101217    1.343164
    131          1           0       29.326859    4.322623    3.058206
    132          1           0       29.576059    0.921884    4.654388
    133          1           0       29.713624   -0.653291    3.799472
    134          1           0       27.665553   -0.897353    4.287702
    135          1           0       27.169028    0.512581    3.275098
    136          1           0       33.500381    5.605929    1.460672
    137          1           0       34.124359    6.464546    0.118285
    138          1           0       35.253956    5.729090    1.319344
    139          1           0       37.088473    3.648636   -2.868296
    140          1           0       38.212841    3.429427   -1.480068
    141          1           0       38.256921    4.964784   -2.470826
    142          1           0       37.506932   -0.326732   -2.381434
    143          1           0       36.172987   -2.949136   -2.755156
    144          1           0       35.954820    0.107030   -4.634959
    145          1           0       36.384947   -1.665761   -4.773390
    146          1           0       37.528208   -0.374511   -4.685073
    147          1           0       37.056630   -2.029652   -0.025903
    148          1           0       38.342214   -1.979861   -1.179342
    149          1           0       38.491950   -4.146462   -1.478572
    150          1           0       36.814631   -4.506697   -0.910639
    151          1           0       38.214289   -4.012816    0.158598
    152          1           0       32.645079   -5.411577   -1.837879
    153          1           0       31.184298   -5.943471   -0.952806
    154          1           0       32.812643   -5.794163   -0.164140
    155          1           0       28.884199   -2.240350    2.445609
    156          1           0       25.014674   -2.725950    0.352693
    157          1           0       25.263607   -1.166658    1.175957
    158          1           0       24.902849   -2.692148    2.057208
 ---------------------------------------------------------------------

 SCF Done:  E(RPBE1PBE) =  -4067.35272485     A.U. after   16 cycles

 Excitation energies and oscillator strengths:

 Excited State   1:      Singlet-A      1.8373 eV  674.81 nm  f=0.3528  <S**2>=0.000
     310 -> 315       -0.18251
     312 -> 313        0.68987
     312 <- 313       -0.10422
 This state for optimization and/or second-order correction.
 Total Energy, E(TD-HF/TD-DFT) =  -4067.28520420
 Copying the excited state density for this state as the 1-particle RhoCI density.

 Excited State   2:      Singlet-A      1.9036 eV  651.32 nm  f=0.3823  <S**2>=0.000
     309 -> 316       -0.17039
     311 -> 314        0.69342
     311 <- 314       -0.10645

 Excited State   3:      Singlet-A      2.0324 eV  610.04 nm  f=0.0000  <S**2>=0.000
     311 -> 313        0.70711

 Excited State   4:      Singlet-A      2.0415 eV  607.32 nm  f=0.0000  <S**2>=0.000
     312 -> 314        0.70711

 Excited State   5:      Singlet-A      2.1967 eV  564.42 nm  f=0.0976  <S**2>=0.000
     310 -> 313        0.64584
     312 -> 315        0.27299

 The electronic state is 1-A.
 Alpha  occ. eigenvalues --  -46.93041 -46.92315 -19.25670 -19.25511 -19.20744
 Alpha  occ. eigenvalues --  -19.19573 -19.18954 -19.18711 -19.18622 -19.17583
 Alpha  occ. eigenvalues --  -14.42223 -14.41826 -14.41791 -14.41445 -14.39914
 Alpha  occ. eigenvalues --  -14.39732 -14.38898 -14.38848 -10.36574 -10.36082
 Alpha  occ. eigenvalues --  -10.31807 -10.31487 -10.31347 -10.30798 -10.29893
 Alpha  occ. eigenvalues --  -10.29320 -10.29315 -10.29176 -10.29066 -10.28929
 Alpha  occ. eigenvalues --  -10.28879 -10.28714 -10.28701 -10.28609 -10.28536
 Alpha  occ. eigenvalues --  -10.28494 -10.28452 -10.28242 -10.27691 -10.27300
 Alpha  occ. eigenvalues --  -10.26900 -10.26828 -10.26489 -10.26394 -10.26330
 Alpha  occ. eigenvalues --  -10.26192 -10.26152 -10.26150 -10.26133 -10.26089
 Alpha  occ. eigenvalues --  -10.26071 -10.26020 -10.25982 -10.25908 -10.25752
 Alpha  occ. eigenvalues --  -10.25743 -10.25675 -10.25475 -10.25472 -10.25444
 Alpha  occ. eigenvalues --  -10.25257 -10.25240 -10.25182 -10.25131 -10.25043
 Alpha  occ. eigenvalues --  -10.24923 -10.24781 -10.24755 -10.24680 -10.24283
 Alpha  occ. eigenvalues --  -10.24235 -10.24096 -10.23990 -10.23966 -10.23937
 Alpha  occ. eigenvalues --  -10.23928 -10.23743 -10.23718 -10.23689 -10.23250
 Alpha  occ. eigenvalues --  -10.23121 -10.22981 -10.22507 -10.22468 -10.22248
 Alpha  occ. eigenvalues --  -10.21933  -3.15045  -3.14387  -1.87891  -1.87423
 Alpha  occ. eigenvalues --   -1.87253  -1.87230  -1.86770  -1.86599  -1.11422
 Alpha  occ. eigenvalues --   -1.10197  -1.05280  -1.04843  -1.04669  -1.04565
 Alpha  occ. eigenvalues --   -1.03721  -1.01489  -0.99587  -0.99294  -0.98465
 Alpha  occ. eigenvalues --   -0.98440  -0.98295  -0.97626  -0.97456  -0.96163
 Alpha  occ. eigenvalues --   -0.87760  -0.87018  -0.85106  -0.83850  -0.83658
 Alpha  occ. eigenvalues --   -0.83482  -0.83375  -0.83112  -0.82452  -0.82048
 Alpha  occ. eigenvalues --   -0.81600  -0.80875  -0.80548  -0.80195  -0.79523
 Alpha  occ. eigenvalues --   -0.79420  -0.78861  -0.78355  -0.77735  -0.77335
 Alpha  occ. eigenvalues --   -0.76796  -0.76770  -0.75730  -0.75684  -0.75233
 Alpha  occ. eigenvalues --   -0.75153  -0.73010  -0.72281  -0.72097  -0.71709
 Alpha  occ. eigenvalues --   -0.71409  -0.71273  -0.70618  -0.70547  -0.69836
 Alpha  occ. eigenvalues --   -0.69737  -0.67865  -0.67787  -0.66489  -0.66485
 Alpha  occ. eigenvalues --   -0.63797  -0.63780  -0.63471  -0.63425  -0.62344
 Alpha  occ. eigenvalues --   -0.62310  -0.61861  -0.61058  -0.60929  -0.60501
 Alpha  occ. eigenvalues --   -0.60409  -0.60119  -0.59806  -0.59429  -0.59271
 Alpha  occ. eigenvalues --   -0.59120  -0.57314  -0.56611  -0.55294  -0.54709
 Alpha  occ. eigenvalues --   -0.54552  -0.54072  -0.54006  -0.53872  -0.53632
 Alpha  occ. eigenvalues --   -0.53340  -0.53115  -0.52535  -0.52247  -0.51848
 Alpha  occ. eigenvalues --   -0.51109  -0.50986  -0.50414  -0.50386  -0.50036
 Alpha  occ. eigenvalues --   -0.49940  -0.49734  -0.49488  -0.49018  -0.48968
 Alpha  occ. eigenvalues --   -0.48819  -0.48608  -0.48156  -0.47901  -0.47829
 Alpha  occ. eigenvalues --   -0.47530  -0.47460  -0.47335  -0.47090  -0.46763
 Alpha  occ. eigenvalues --   -0.46568  -0.46482  -0.46332  -0.46317  -0.46273
 Alpha  occ. eigenvalues --   -0.46135  -0.45965  -0.45812  -0.45468  -0.45329
 Alpha  occ. eigenvalues --   -0.45009  -0.44978  -0.44878  -0.44647  -0.44525
 Alpha  occ. eigenvalues --   -0.44190  -0.44099  -0.43968  -0.43771  -0.43765
 Alpha  occ. eigenvalues --   -0.43479  -0.43361  -0.43220  -0.43099  -0.42878
 Alpha  occ. eigenvalues --   -0.42775  -0.42295  -0.42248  -0.42032  -0.41924
 Alpha  occ. eigenvalues --   -0.41833  -0.41770  -0.41719  -0.41492  -0.41270
 Alpha  occ. eigenvalues --   -0.41132  -0.41109  -0.41022  -0.40879  -0.40875
 Alpha  occ. eigenvalues --   -0.40571  -0.40495  -0.40132  -0.40079  -0.39866
 Alpha  occ. eigenvalues --   -0.39746  -0.39371  -0.39324  -0.39239  -0.39045
 Alpha  occ. eigenvalues --   -0.38871  -0.38655  -0.38515  -0.38396  -0.38214
 Alpha  occ. eigenvalues --   -0.38197  -0.38088  -0.38028  -0.37885  -0.37808
 Alpha  occ. eigenvalues --   -0.37801  -0.37640  -0.37410  -0.37263  -0.37169
 Alpha  occ. eigenvalues --   -0.36954  -0.36833  -0.36685  -0.36606  -0.36401
 Alpha  occ. eigenvalues --   -0.36357  -0.36142  -0.36051  -0.35582  -0.35473
 Alpha  occ. eigenvalues --   -0.35229  -0.35146  -0.34751  -0.34659  -0.34079
 Alpha  occ. eigenvalues --   -0.33740  -0.33518  -0.33050  -0.32690  -0.32674
 Alpha  occ. eigenvalues --   -0.32309  -0.32016  -0.31962  -0.31517  -0.31391
 Alpha  occ. eigenvalues --   -0.31236  -0.31143  -0.30153  -0.29573  -0.29524
 Alpha  occ. eigenvalues --   -0.29258  -0.28917  -0.28220  -0.27400  -0.27025
 Alpha  occ. eigenvalues --   -0.26031  -0.25808  -0.25690  -0.25606  -0.25481
 Alpha  occ. eigenvalues --   -0.25128  -0.25047  -0.24321  -0.21561  -0.21256
 Alpha  occ. eigenvalues --   -0.19278  -0.19217
 Alpha virt. eigenvalues --   -0.11609  -0.11515  -0.05962  -0.05484  -0.03941
 Alpha virt. eigenvalues --   -0.03323  -0.02042  -0.01727  -0.00736  -0.00183
 Alpha virt. eigenvalues --   -0.00045   0.00287   0.00667   0.00749   0.01228

 Mulliken charges:
               1
     1  Mg  11.999994
     2  C    5.999980
     3  C    6.000056
     4  C    6.000032
     5  C    5.999945
     6  N    6.999998
     7  C    6.000005
     8  C    6.000005
     9  C    6.000000
    10  C    5.999990
    11  C    5.999990
    12  C    6.000001
    13  C    5.999988
    14  H    1.000018
    15  N    7.000000
    16  C    5.999987
    17  C    6.000008
    18  C    5.999997
    19  C    6.000008
    20  C    5.999997
    21  C    6.000002
    22  O    8.000020
    23  C    5.999999
    24  N    7.000009
    25  C    5.999985
    26  C    5.999993
    27  C    6.000001
    28  C    6.000010
    29  C    5.999999
    30  C    6.000008
    31  C    6.000005
    32  N    6.999998
    33  C    6.000006
    34  C    5.999967
    35  C    6.000041
    36  C    6.000003
    37  C    6.000001
    38  C    5.999975
    39  O    7.999975
    40  C    6.000002
    41  C    5.999997
    42  O    7.999995
    43  O    8.000001
    44  C    6.000002
    45  H    1.000025
    46  H    0.999986
    47  H    0.999979
    48  H    1.000012
    49  H    1.000008
    50  H    1.000020
    51  H    1.000024
    52  H    0.999993
    53  H    0.999991
    54  H    1.000005
    55  H    1.000009
    56  H    1.000002
    57  H    1.000018
    58  H    1.000026
    59  H    1.000024
    60  H    1.000008
    61  H    1.000008
    62  H    1.000007
    63  H    0.999992
    64  H    0.999988
    65  H    0.999992
    66  H    0.999999
    67  H    0.999998
    68  H    1.000005
    69  H    0.999980
    70  H    0.999984
    71  H    0.999998
    72  H    0.999998
    73  H    0.999973
    74  H    0.999977
    75  H    0.999971
    76  H    1.000001
    77  H    1.000002
    78  H    0.999994
    79  H    1.000007
    80  Mg  12.001408
    81  C    6.013326
    82  C    5.986537
    83  C    5.982853
    84  C    6.015092
    85  N    7.004407
    86  C    5.969824
    87  C    6.012415
    88  C    5.992574
    89  C    6.026709
    90  C    5.997310
    91  C    6.000944
    92  C    6.001178
    93  H    0.992689
    94  N    6.991539
    95  C    6.040887
    96  C    6.021663
    97  C    6.011058
    98  C    6.036090
    99  C    5.990579
   100  C    6.006920
   101  O    8.017566
   102  C    5.999633
   103  N    7.006130
   104  C    6.032072
   105  C    5.992769
   106  C    6.006652
   107  C    5.964893
   108  C    5.999328
   109  C    6.006216
   110  C    6.000994
   111  N    7.002062
   112  C    5.961406
   113  C    5.975297
   114  C    5.996829
   115  C    5.970142
   116  C    6.000475
   117  C    5.981878
   118  O    7.969213
   119  C    6.002856
   120  C    5.995121
   121  O    7.991848
   122  O    8.000271
   123  C    6.003181
   124  H    1.009530
   125  H    1.010510
   126  H    0.991195
   127  H    0.996887
   128  H    1.000541
   129  H    1.011036
   130  H    0.997445
   131  H    0.999715
   132  H    0.992967
   133  H    1.006669
   134  H    1.004039
   135  H    0.999526
   136  H    1.018341
   137  H    1.020719
   138  H    1.018854
   139  H    1.005640
   140  H    1.009816
   141  H    1.011383
   142  H    0.999025
   143  H    1.002513
   144  H    0.997553
   145  H    1.011611
   146  H    1.001564
   147  H    0.995139
   148  H    0.986695
   149  H    0.995061
   150  H    1.005651
   151  H    0.996610
   152  H    0.982578
   153  H    0.987499
   154  H    0.982680
   155  H    0.990788
   156  H    0.997190
   157  H    0.993978
   158  H    0.996216
 Sum of Mulliken charges = 624.00000

 Dipole moment (field-independent basis, Debye):
    X=              4.1145    Y=              9.1579    Z=             -0.6919  Tot=             10.0635
 Quadrupole moment (field-independent basis, Debye-Ang):
   XX=            267.2326   YY=              3.8468   ZZ=              1.5669
   XY=            305.2981   XZ=            -23.8010   YZ=             -1.1743

 Normal termination of Gaussian 16 at Fri Oct 15 16:29:33 2021.
