 Gaussian 16, Revision A.03,
 Gaussian 16:  ES64L-G16RevA.03 25-Dec-2016

 --------------------------------------------------------
 #p PBE1PBE/Def2SVP td=(nstates=5) density=(transition=1)
 --------------------------------------------------------

 --------------------------------
 TDDFT excited states in gaussian
 --------------------------------
 Symbolic Z-matrix:
 Charge =  0 Multiplicity = 1

                         Standard orientation:
 ---------------------------------------------------------------------
 Center     Atomic      Atomic             Coordinates (Angstroms)
 Number     Number       Type             X           Y           Z
 ---------------------------------------------------------------------
      1         12           0      -26.709770   -0.410415   -0.203479
      2          6           0      -24.980382    2.642658   -0.521064
      3          6           0      -28.081348    0.719046    2.690271
      4          6           0      -28.253703   -3.403162    0.112244
      5          6           0      -24.919205   -1.632204   -2.916347
      6          7           0      -26.481015    1.392796    0.988336
      7          6           0      -25.810687    2.559036    0.609241
      8          6           0      -26.136869    3.656775    1.576788
      9          6           0      -26.695492    2.876312    2.790291
     10          6           0      -27.124079    1.552898    2.105544
     11          6           0      -25.712444    2.565764    3.962879
     12          6           0      -27.123576    4.766200    1.050915
     13          6           0      -26.678435    6.168472    1.319781
     14          1           0      -27.746967    7.138152    1.858246
     15          7           0      -28.036957   -1.150774    1.125880
     16          6           0      -28.578686   -0.493299    2.242931
     17          6           0      -29.526444   -1.320084    2.877070
     18          6           0      -29.619848   -2.584607    2.125684
     19          6           0      -28.647835   -2.417984    1.083104
     20          6           0      -30.212932   -1.029222    4.179552
     21          6           0      -30.451377   -3.919128    2.363385
     22          8           0      -30.381720   -4.840429    1.584892
     23          6           0      -31.434739   -4.034332    3.519368
     24          7           0      -26.513855   -2.292956   -1.195002
     25          6           0      -27.263712   -3.370672   -0.847524
     26          6           0      -26.883668   -4.627869   -1.766972
     27          6           0      -26.030006   -3.966979   -2.935989
     28          6           0      -25.787773   -2.522529   -2.322401
     29          6           0      -26.112958   -5.783080   -1.070115
     30          6           0      -26.763807   -3.919373   -4.323404
     31          6           0      -25.940129   -4.514927   -5.386683
     32          7           0      -25.215964    0.307900   -1.442493
     33          6           0      -24.657750   -0.270278   -2.581566
     34          6           0      -23.750501    0.654944   -3.204077
     35          6           0      -23.826300    1.787162   -2.418768
     36          6           0      -24.711886    1.566232   -1.411546
     37          6           0      -23.004403    0.331083   -4.524685
     38          6           0      -23.307081    3.129737   -2.233213
     39          8           0      -22.407292    3.671458   -2.836696
     40          6           0      -24.040792    3.748137   -0.941815
     41          6           0      -23.021988    4.099245    0.064477
     42          8           0      -22.200709    3.284957    0.562006
     43          8           0      -23.108348    5.437438    0.314675
     44          6           0      -21.921959    6.009313    1.004935
     45          1           0      -28.449002    1.132185    3.631826
     46          1           0      -28.694454   -4.401394    0.149570
     47          1           0      -24.314256   -2.053679   -3.721233
     48          1           0      -25.261392    4.163182    1.985026
     49          1           0      -27.539543    3.368847    3.273390
     50          1           0      -24.964034    3.341534    4.129838
     51          1           0      -25.241180    1.609354    3.734929
     52          1           0      -26.176254    2.340724    4.922924
     53          1           0      -28.080824    4.534072    1.517317
     54          1           0      -27.325682    4.650907   -0.014362
     55          1           0      -26.303207    6.458023    0.338092
     56          1           0      -25.919899    6.166918    2.102437
     57          1           0      -31.268124   -0.764359    4.108826
     58          1           0      -29.769462   -0.139586    4.624928
     59          1           0      -30.182575   -1.787589    4.961434
     60          1           0      -31.961329   -4.974806    3.361849
     61          1           0      -32.052624   -3.140740    3.612481
     62          1           0      -30.902565   -3.934290    4.465803
     63          1           0      -27.791568   -5.130503   -2.100802
     64          1           0      -25.085476   -4.507091   -3.016385
     65          1           0      -25.823077   -5.617177   -0.032027
     66          1           0      -25.184896   -6.045784   -1.578456
     67          1           0      -26.763006   -6.657624   -1.107763
     68          1           0      -26.914929   -2.875078   -4.599266
     69          1           0      -27.711693   -4.456231   -4.354595
     70          1           0      -26.288958   -5.532295   -5.565778
     71          1           0      -24.855328   -4.503744   -5.287027
     72          1           0      -26.039265   -3.920031   -6.294699
     73          1           0      -23.493143   -0.515458   -5.007563
     74          1           0      -21.929402    0.236610   -4.364541
     75          1           0      -23.197078    1.197953   -5.155658
     76          1           0      -24.628613    4.630106   -1.197434
     77          1           0      -21.998521    7.095539    1.050521
     78          1           0      -21.087849    5.821642    0.328464
     79          1           0      -21.835615    5.491451    1.960576
     80         12           0       25.976822   -0.827183    0.117653
     81          6           0       26.307366    2.430440   -0.950313
     82          6           0       25.378564    0.422090    3.411539
     83          6           0       26.003506   -3.894213    1.281823
     84          6           0       26.731984   -1.997336   -3.079848
     85          7           0       25.866331    1.214600    1.030071
     86          6           0       25.999319    2.384645    0.398496
     87          6           0       25.712188    3.541279    1.410635
     88          6           0       25.555044    2.818380    2.826252
     89          6           0       25.657665    1.339023    2.407454
     90          6           0       26.660429    3.041414    3.840412
     91          6           0       24.544904    4.461862    1.023814
     92          6           0       24.952216    5.924800    1.074821
     93          1           0       23.915830    7.027392    1.336191
     94          7           0       25.645077   -1.609242    2.067194
     95          6           0       25.373484   -0.981863    3.248796
     96          6           0       25.153048   -1.883091    4.289999
     97          6           0       25.445481   -3.183659    3.749314
     98          6           0       25.706306   -2.943726    2.287823
     99          6           0       24.754414   -1.476313    5.701202
    100          6           0       25.529921   -4.520939    4.466881
    101          8           0       25.967418   -5.504460    3.838684
    102          6           0       25.225530   -4.657900    5.902825
    103          7           0       26.285142   -2.621275   -0.789097
    104          6           0       26.189335   -3.823499   -0.118831
    105          6           0       26.469902   -5.092470   -1.006521
    106          6           0       26.416314   -4.415797   -2.442461
    107          6           0       26.502946   -2.917739   -2.097733
    108          6           0       27.776629   -5.959835   -0.817913
    109          6           0       25.273036   -4.872030   -3.458392
    110          6           0       23.906116   -4.296041   -3.198640
    111          7           0       26.557688   -0.041750   -1.617187
    112          6           0       26.842246   -0.588260   -2.854115
    113          6           0       27.143493    0.392755   -3.814760
    114          6           0       26.904400    1.575619   -3.105767
    115          6           0       26.541639    1.283059   -1.758733
    116          6           0       27.445273    0.055575   -5.212683
    117          6           0       27.034882    2.970106   -3.286958
    118          8           0       27.467530    3.564179   -4.276564
    119          6           0       26.621649    3.649595   -1.878942
    120          6           0       27.723885    4.468207   -1.405477
    121          8           0       28.760579    4.078245   -0.918865
    122          8           0       27.500494    5.747477   -1.680031
    123          6           0       28.525927    6.707806   -1.404231
    124          1           0       25.248160    0.811706    4.422872
    125          1           0       26.046038   -4.958796    1.519863
    126          1           0       26.966352   -2.406111   -4.065000
    127          1           0       26.671846    4.056551    1.385396
    128          1           0       24.666358    3.262702    3.275883
    129          1           0       27.413978    3.768901    3.537215
    130          1           0       27.215936    2.117713    4.000311
    131          1           0       26.227408    3.232635    4.822725
    132          1           0       23.638658    4.329593    1.615107
    133          1           0       24.238158    4.194943    0.012769
    134          1           0       25.302697    6.169780    0.071546
    135          1           0       25.730290    5.991387    1.835026
    136          1           0       24.454352   -0.429480    5.749275
    137          1           0       25.638810   -1.510943    6.337779
    138          1           0       24.041280   -2.181478    6.126512
    139          1           0       25.691226   -5.554180    6.314144
    140          1           0       24.147929   -4.803660    5.984025
    141          1           0       25.577950   -3.784018    6.450224
    142          1           0       25.616082   -5.769850   -1.042094
    143          1           0       27.294214   -4.732389   -3.004252
    144          1           0       28.348478   -5.522036   -0.000682
    145          1           0       28.448396   -5.768888   -1.655738
    146          1           0       27.668267   -7.035215   -0.673850
    147          1           0       25.158932   -5.946261   -3.315170
    148          1           0       25.537937   -4.752825   -4.508280
    149          1           0       23.415724   -4.202495   -4.166962
    150          1           0       23.783103   -3.367724   -2.642199
    151          1           0       23.383576   -5.019833   -2.573179
    152          1           0       26.985900   -0.831445   -5.648148
    153          1           0       28.492803    0.117778   -5.505014
    154          1           0       27.033857    0.925556   -5.723883
    155          1           0       25.749551    4.278043   -2.058462
    156          1           0       28.456011    7.110580   -0.393145
    157          1           0       28.358190    7.548776   -2.076835
    158          1           0       29.506623    6.247655   -1.525994
 ---------------------------------------------------------------------

 SCF Done:  E(RPBE1PBE) =  -4067.41278092     A.U. after   16 cycles

 Excitation energies and oscillator strengths:

 Excited State   1:      Singlet-A      1.8680 eV  663.72 nm  f=0.3967  <S**2>=0.000
     309 -> 315       -0.16556
     312 -> 313        0.69326
     312 <- 313       -0.11114
 This state for optimization and/or second-order correction.
 Total Energy, E(TD-HF/TD-DFT) =  -4067.34413201
 Copying the excited state density for this state as the 1-particle RhoCI density.

 Excited State   2:      Singlet-A      1.8995 eV  652.73 nm  f=0.3799  <S**2>=0.000
     310 -> 316        0.17461
     311 -> 314        0.69181
     311 <- 314       -0.10894

 Excited State   3:      Singlet-A      2.0115 eV  616.38 nm  f=0.0000  <S**2>=0.000
     311 -> 313        0.70711

 Excited State   4:      Singlet-A      2.0164 eV  614.89 nm  f=0.0000  <S**2>=0.000
     312 -> 314        0.70711

 Excited State   5:      Singlet-A      2.2397 eV  553.58 nm  f=0.1489  <S**2>=0.000
     309 -> 313        0.65943
     312 -> 315        0.23504

 The electronic state is 1-A.
 Alpha  occ. eigenvalues --  -46.91094 -46.90629 -19.26332 -19.25405 -19.19998
 Alpha  occ. eigenvalues --  -19.19799 -19.19388 -19.18902 -19.18793 -19.18410
 Alpha  occ. eigenvalues --  -14.41830 -14.41668 -14.41512 -14.41082 -14.39324
 Alpha  occ. eigenvalues --  -14.38969 -14.38663 -14.38337 -10.36470 -10.35211
 Alpha  occ. eigenvalues --  -10.33402 -10.32316 -10.31932 -10.31688 -10.29407
 Alpha  occ. eigenvalues --  -10.29212 -10.28912 -10.28895 -10.28892 -10.28400
 Alpha  occ. eigenvalues --  -10.28376 -10.28317 -10.28288 -10.28206 -10.28183
 Alpha  occ. eigenvalues --  -10.27932 -10.27435 -10.27034 -10.26979 -10.26789
 Alpha  occ. eigenvalues --  -10.26783 -10.26437 -10.26383 -10.26160 -10.26124
 Alpha  occ. eigenvalues --  -10.25976 -10.25892 -10.25869 -10.25864 -10.25794
 Alpha  occ. eigenvalues --  -10.25784 -10.25743 -10.25599 -10.25539 -10.25538
 Alpha  occ. eigenvalues --  -10.25491 -10.25490 -10.25470 -10.25461 -10.25343
 Alpha  occ. eigenvalues --  -10.25189 -10.25048 -10.24984 -10.24819 -10.24535
 Alpha  occ. eigenvalues --  -10.24465 -10.24442 -10.24153 -10.24110 -10.24102
 Alpha  occ. eigenvalues --  -10.23944 -10.23909 -10.23818 -10.23706 -10.23650
 Alpha  occ. eigenvalues --  -10.23537 -10.23514 -10.23466 -10.23373 -10.23215
 Alpha  occ. eigenvalues --  -10.23039 -10.22824 -10.22442 -10.22373 -10.22210
 Alpha  occ. eigenvalues --  -10.22115  -3.13453  -3.12931  -1.86294  -1.85846
 Alpha  occ. eigenvalues --   -1.85778  -1.85681  -1.85294  -1.85181  -1.12683
 Alpha  occ. eigenvalues --   -1.10550  -1.06365  -1.05200  -1.03641  -1.03154
 Alpha  occ. eigenvalues --   -1.02560  -1.01151  -0.99536  -0.99277  -0.98359
 Alpha  occ. eigenvalues --   -0.98132  -0.97925  -0.97220  -0.97201  -0.96000
 Alpha  occ. eigenvalues --   -0.87010  -0.86437  -0.83656  -0.83475  -0.83016
 Alpha  occ. eigenvalues --   -0.82954  -0.82609  -0.82319  -0.81937  -0.81882
 Alpha  occ. eigenvalues --   -0.81391  -0.81060  -0.80671  -0.80241  -0.78855
 Alpha  occ. eigenvalues --   -0.78572  -0.78138  -0.78120  -0.77220  -0.77205
 Alpha  occ. eigenvalues --   -0.76513  -0.76239  -0.75548  -0.75521  -0.75024
 Alpha  occ. eigenvalues --   -0.74965  -0.72594  -0.72497  -0.71662  -0.71654
 Alpha  occ. eigenvalues --   -0.71214  -0.71122  -0.70264  -0.70066  -0.69619
 Alpha  occ. eigenvalues --   -0.69228  -0.67914  -0.67378  -0.65879  -0.65413
 Alpha  occ. eigenvalues --   -0.63993  -0.63297  -0.63069  -0.62502  -0.62160
 Alpha  occ. eigenvalues --   -0.61984  -0.61462  -0.60915  -0.59967  -0.59845
 Alpha  occ. eigenvalues --   -0.59619  -0.59421  -0.59137  -0.59106  -0.58886
 Alpha  occ. eigenvalues --   -0.58618  -0.56890  -0.56562  -0.54936  -0.54852
 Alpha  occ. eigenvalues --   -0.54625  -0.54583  -0.53867  -0.53574  -0.53153
 Alpha  occ. eigenvalues --   -0.52825  -0.52743  -0.52430  -0.52201  -0.52117
 Alpha  occ. eigenvalues --   -0.51124  -0.50702  -0.50601  -0.50290  -0.50058
 Alpha  occ. eigenvalues --   -0.49656  -0.49505  -0.49157  -0.48914  -0.48429
 Alpha  occ. eigenvalues --   -0.48110  -0.48071  -0.48002  -0.47790  -0.47324
 Alpha  occ. eigenvalues --   -0.47300  -0.47196  -0.46911  -0.46789  -0.46634
 Alpha  occ. eigenvalues --   -0.46462  -0.46460  -0.46377  -0.45877  -0.45866
 Alpha  occ. eigenvalues --   -0.45785  -0.45484  -0.45017  -0.44920  -0.44783
 Alpha  occ. eigenvalues --   -0.44686  -0.44509  -0.44371  -0.44280  -0.44068
 Alpha  occ. eigenvalues --   -0.44062  -0.44016  -0.43893  -0.43738  -0.43574
 Alpha  occ. eigenvalues --   -0.43539  -0.43379  -0.43071  -0.42815  -0.42678
 Alpha  occ. eigenvalues --   -0.42437  -0.42424  -0.41997  -0.41959  -0.41625
 Alpha  occ. eigenvalues --   -0.41449  -0.41347  -0.41234  -0.41187  -0.41112
 Alpha  occ. eigenvalues --   -0.40818  -0.40795  -0.40587  -0.40525  -0.40227
 Alpha  occ. eigenvalues --   -0.40200  -0.40116  -0.39869  -0.39864  -0.39694
 Alpha  occ. eigenvalues --   -0.39516  -0.39471  -0.39307  -0.39237  -0.39205
 Alpha  occ. eigenvalues --   -0.39158  -0.38664  -0.38400  -0.38286  -0.38278
 Alpha  occ. eigenvalues --   -0.38183  -0.38061  -0.37875  -0.37662  -0.37519
 Alpha  occ. eigenvalues --   -0.37471  -0.37375  -0.37044  -0.36861  -0.36782
 Alpha  occ. eigenvalues --   -0.36740  -0.36332  -0.36313  -0.36128  -0.36099
 Alpha  occ. eigenvalues --   -0.35935  -0.35873  -0.35852  -0.35387  -0.35357
 Alpha  occ. eigenvalues --   -0.34911  -0.34125  -0.34098  -0.33805  -0.33796
 Alpha  occ. eigenvalues --   -0.33364  -0.33112  -0.32857  -0.32853  -0.32733
 Alpha  occ. eigenvalues --   -0.32197  -0.31758  -0.31615  -0.31415  -0.31337
 Alpha  occ. eigenvalues --   -0.31158  -0.31074  -0.29501  -0.29433  -0.29145
 Alpha  occ. eigenvalues --   -0.28862  -0.28600  -0.28459  -0.27099  -0.26955
 Alpha  occ. eigenvalues --   -0.26487  -0.25911  -0.25854  -0.25647  -0.25490
 Alpha  occ. eigenvalues --   -0.25422  -0.25263  -0.25157  -0.21086  -0.20939
 Alpha  occ. eigenvalues --   -0.19133  -0.19085
 Alpha virt. eigenvalues --   -0.11490  -0.11426  -0.05026  -0.04851  -0.03705
 Alpha virt. eigenvalues --   -0.03563  -0.01899  -0.01700  -0.00202   0.00259
 Alpha virt. eigenvalues --    0.00657   0.01249   0.01431   0.01778   0.01951

 Mulliken charges:
               1
     1  Mg  11.999994
     2  C    6.000017
     3  C    5.999908
     4  C    6.000037
     5  C    6.000079
     6  N    6.999946
     7  C    6.000052
     8  C    5.999947
     9  C    6.000029
    10  C    5.999956
    11  C    6.000033
    12  C    5.999982
    13  C    5.999994
    14  H    1.000026
    15  N    7.000043
    16  C    5.999878
    17  C    5.999904
    18  C    5.999878
    19  C    5.999848
    20  C    6.000048
    21  C    5.999986
    22  O    7.999925
    23  C    6.000036
    24  N    7.000068
    25  C    5.999939
    26  C    6.000029
    27  C    5.999973
    28  C    6.000041
    29  C    6.000006
    30  C    5.999982
    31  C    5.999991
    32  N    6.999984
    33  C    6.000139
    34  C    6.000133
    35  C    6.000029
    36  C    6.000120
    37  C    5.999961
    38  C    6.000010
    39  O    8.000078
    40  C    6.000005
    41  C    6.000015
    42  O    7.999990
    43  O    8.000004
    44  C    5.999986
    45  H    0.999987
    46  H    1.000013
    47  H    1.000005
    48  H    0.999997
    49  H    0.999999
    50  H    0.999937
    51  H    0.999977
    52  H    0.999989
    53  H    1.000049
    54  H    1.000003
    55  H    0.999997
    56  H    0.999994
    57  H    0.999952
    58  H    0.999932
    59  H    0.999933
    60  H    0.999947
    61  H    0.999987
    62  H    0.999961
    63  H    1.000012
    64  H    0.999996
    65  H    0.999997
    66  H    0.999964
    67  H    1.000001
    68  H    1.000002
    69  H    1.000042
    70  H    1.000023
    71  H    0.999989
    72  H    1.000020
    73  H    1.000065
    74  H    1.000055
    75  H    1.000072
    76  H    1.000031
    77  H    1.000031
    78  H    1.000005
    79  H    1.000005
    80  Mg  11.997628
    81  C    6.015609
    82  C    5.988298
    83  C    5.978085
    84  C    6.004434
    85  N    7.008045
    86  C    5.973435
    87  C    6.007284
    88  C    5.984980
    89  C    6.028956
    90  C    5.997228
    91  C    6.001034
    92  C    6.001254
    93  H    0.995664
    94  N    6.995055
    95  C    6.036025
    96  C    6.017109
    97  C    6.016543
    98  C    6.033657
    99  C    5.997874
   100  C    6.013504
   101  O    8.031229
   102  C    5.994617
   103  N    6.998315
   104  C    6.037995
   105  C    5.985215
   106  C    6.009623
   107  C    5.973175
   108  C    6.000614
   109  C    6.005018
   110  C    6.002794
   111  N    7.001342
   112  C    5.967038
   113  C    5.972460
   114  C    5.998464
   115  C    5.967802
   116  C    6.003520
   117  C    5.982968
   118  O    7.969140
   119  C    5.996667
   120  C    5.995890
   121  O    7.992792
   122  O    7.998801
   123  C    6.002546
   124  H    1.010003
   125  H    1.005301
   126  H    0.988864
   127  H    1.002371
   128  H    1.007320
   129  H    1.014172
   130  H    0.996427
   131  H    1.001970
   132  H    0.991885
   133  H    1.006584
   134  H    1.006029
   135  H    0.995342
   136  H    1.015963
   137  H    1.017672
   138  H    1.014486
   139  H    1.014494
   140  H    1.010711
   141  H    1.005386
   142  H    1.002992
   143  H    0.997801
   144  H    0.996209
   145  H    1.010666
   146  H    1.000653
   147  H    0.989594
   148  H    1.001971
   149  H    1.000163
   150  H    1.000231
   151  H    0.989645
   152  H    0.981380
   153  H    0.978473
   154  H    0.986650
   155  H    0.991127
   156  H    0.992619
   157  H    0.996738
   158  H    0.998386
 Sum of Mulliken charges = 624.00000

 Dipole moment (field-independent basis, Debye):
    X=             -1.9289    Y=             -4.3690    Z=              9.4446  Tot=             10.5834
 Quadrupole moment (field-independent basis, Debye-Ang):
   XX=           -104.1526   YY=              4.8839   ZZ=              5.6155
   XY=           -115.1522   XZ=            248.4735   YZ=             -9.4432

 Normal termination of Gaussian 16 at Thu Oct 14 02:22:13 2021.
