 Gaussian 16, Revision A.03,
 Gaussian 16:  ES64L-G16RevA.03 25-Dec-2016

 --------------------------------------------------------
 #p PBE1PBE/Def2SVP td=(nstates=5) density=(transition=1)
 --------------------------------------------------------

 --------------------------------
 TDDFT excited states in gaussian
 --------------------------------
 Symbolic Z-matrix:
 Charge =  0 Multiplicity = 1

                         Standard orientation:
 ---------------------------------------------------------------------
 Center     Atomic      Atomic             Coordinates (Angstroms)
 Number     Number       Type             X           Y           Z
 ---------------------------------------------------------------------
      1         12           0      -24.738342    0.675705    0.357550
      2          6           0      -22.922107   -2.190031    0.961605
      3          6           0      -27.367726   -1.335587   -0.507372
      4          6           0      -26.430491    3.465152   -0.514244
      5          6           0      -21.849088    2.581006    0.690971
      6          7           0      -24.982385   -1.571827    0.134022
      7          6           0      -24.228505   -2.489203    0.604752
      8          6           0      -24.806697   -3.996327    0.553256
      9          6           0      -26.149106   -3.688660   -0.220625
     10          6           0      -26.174530   -2.088730   -0.297085
     11          6           0      -26.214029   -4.256449   -1.734061
     12          6           0      -25.022155   -4.694324    1.965589
     13          6           0      -24.847419   -6.252454    2.045039
     14          1           0      -24.745616   -6.984437    0.741021
     15          7           0      -26.606071    1.027022   -0.312418
     16          6           0      -27.644413    0.042966   -0.550439
     17          6           0      -28.852204    0.766955   -0.933015
     18          6           0      -28.566720    2.150240   -1.049089
     19          6           0      -27.169230    2.274636   -0.576681
     20          6           0      -30.093890   -0.032722   -1.100284
     21          6           0      -29.468273    3.347779   -1.430360
     22          8           0      -29.101018    4.472935   -1.595789
     23          6           0      -30.922965    2.978243   -1.784457
     24          7           0      -24.244007    2.756116   -0.001495
     25          6           0      -25.065742    3.697267   -0.343927
     26          6           0      -24.319068    5.018090   -0.684721
     27          6           0      -22.874765    4.764638   -0.190174
     28          6           0      -22.962361    3.275748    0.220061
     29          6           0      -24.419434    5.339346   -2.191112
     30          6           0      -22.450996    5.745616    0.945729
     31          6           0      -22.210831    7.195652    0.495292
     32          7           0      -22.745960    0.313199    0.752122
     33          6           0      -21.714802    1.213050    0.955160
     34          6           0      -20.567275    0.438994    1.349420
     35          6           0      -20.931213   -0.940870    1.343398
     36          6           0      -22.308873   -0.899586    0.995343
     37          6           0      -19.282971    0.971016    1.623221
     38          6           0      -20.551557   -2.291116    1.612702
     39          8           0      -19.404579   -2.743429    1.904989
     40          6           0      -21.821830   -3.155003    1.252234
     41          6           0      -21.439392   -4.062553    0.191630
     42          8           0      -21.393322   -3.759446   -1.000323
     43          8           0      -21.007338   -5.220235    0.787135
     44          6           0      -20.342610   -6.144148   -0.156073
     45          1           0      -28.215326   -1.951395   -0.813789
     46          1           0      -27.047558    4.324732   -0.786574
     47          1           0      -20.987349    3.232440    0.853507
     48          1           0      -24.106064   -4.512594   -0.103503
     49          1           0      -26.995539   -4.122638    0.311278
     50          1           0      -25.192669   -4.446716   -2.065011
     51          1           0      -26.681466   -3.516530   -2.383588
     52          1           0      -26.787065   -5.172190   -1.883104
     53          1           0      -26.060003   -4.465061    2.205806
     54          1           0      -24.572082   -4.196646    2.825261
     55          1           0      -25.633216   -6.754623    2.609224
     56          1           0      -23.893349   -6.477197    2.521931
     57          1           0      -30.145520   -0.457055   -2.103378
     58          1           0      -30.988130    0.493466   -0.765977
     59          1           0      -30.030768   -0.860288   -0.394105
     60          1           0      -31.548147    2.721500   -0.928709
     61          1           0      -30.769772    2.138236   -2.461215
     62          1           0      -31.472032    3.716435   -2.368246
     63          1           0      -24.828918    5.743455   -0.051136
     64          1           0      -22.185635    4.821655   -1.032727
     65          1           0      -24.593838    4.485911   -2.846714
     66          1           0      -23.542838    5.759966   -2.684938
     67          1           0      -25.250332    6.039234   -2.279328
     68          1           0      -21.504134    5.407367    1.364324
     69          1           0      -23.195812    5.730477    1.742138
     70          1           0      -22.490756    7.263571   -0.555969
     71          1           0      -21.136616    7.368208    0.427368
     72          1           0      -22.617513    8.009456    1.095171
     73          1           0      -19.478668    1.849386    2.238378
     74          1           0      -18.709339    1.316571    0.763353
     75          1           0      -18.669926    0.184042    2.063688
     76          1           0      -21.991985   -3.726560    2.165011
     77          1           0      -19.424815   -5.645567   -0.469062
     78          1           0      -21.013740   -6.467106   -0.951238
     79          1           0      -20.067193   -7.035940    0.407129
     80         12           0       24.822889    0.488439   -0.053514
     81          6           0       23.609720   -2.641014   -0.950851
     82          6           0       24.724981   -0.538594    3.218910
     83          6           0       25.776241    3.672427    0.878279
     84          6           0       24.366076    1.650580   -3.307946
     85          7           0       24.322861   -1.412959    0.975987
     86          6           0       23.961577   -2.584751    0.425888
     87          6           0       23.889761   -3.771787    1.414532
     88          6           0       24.021103   -3.014202    2.804741
     89          6           0       24.344134   -1.514794    2.337078
     90          6           0       22.686236   -3.191354    3.612651
     91          6           0       25.122480   -4.753751    1.064675
     92          6           0       24.769322   -6.247421    0.802323
     93          1           0       23.386672   -6.693210    1.401734
     94          7           0       25.139101    1.495674    1.763664
     95          6           0       25.126346    0.843895    3.014152
     96          6           0       25.659099    1.745887    4.012906
     97          6           0       25.918163    2.968759    3.381091
     98          6           0       25.687435    2.740206    1.906608
     99          6           0       25.567168    1.419111    5.510218
    100          6           0       26.395935    4.296356    4.026934
    101          8           0       26.616216    5.355146    3.409645
    102          6           0       26.697907    4.301894    5.535382
    103          7           0       24.949357    2.386475   -1.100628
    104          6           0       25.444650    3.553855   -0.443716
    105          6           0       25.339660    4.779024   -1.375786
    106          6           0       25.157159    4.053935   -2.789971
    107          6           0       24.845940    2.589467   -2.383908
    108          6           0       24.221760    5.688703   -0.893584
    109          6           0       26.486149    4.122052   -3.654376
    110          6           0       27.906756    3.676906   -3.166206
    111          7           0       24.072751   -0.254781   -1.760559
    112          6           0       23.920834    0.319165   -3.026512
    113          6           0       23.379922   -0.655337   -3.917522
    114          6           0       23.281435   -1.823579   -3.183508
    115          6           0       23.612888   -1.526351   -1.838467
    116          6           0       22.943899   -0.448545   -5.353658
    117          6           0       22.918699   -3.182923   -3.262464
    118          8           0       22.436187   -3.746036   -4.192826
    119          6           0       23.008285   -3.733685   -1.779196
    120          6           0       21.596720   -4.049896   -1.368485
    121          8           0       20.946187   -3.373741   -0.599255
    122          8           0       21.224848   -5.152778   -2.029076
    123          6           0       19.792945   -5.316681   -2.087524
    124          1           0       24.775223   -0.880159    4.254663
    125          1           0       25.840851    4.707984    1.216766
    126          1           0       24.206328    2.002381   -4.329816
    127          1           0       22.981577   -4.371141    1.353621
    128          1           0       24.857971   -3.336236    3.424882
    129          1           0       22.319866   -2.289722    4.104072
    130          1           0       23.026415   -3.940683    4.326853
    131          1           0       21.978129   -3.679539    2.943476
    132          1           0       25.877022   -4.607369    1.837269
    133          1           0       25.586511   -4.358284    0.160803
    134          1           0       25.604897   -6.744537    1.293866
    135          1           0       24.765618   -6.542547   -0.246539
    136          1           0       25.024250    2.238524    5.981962
    137          1           0       26.568043    1.431401    5.943814
    138          1           0       25.081321    0.453929    5.649929
    139          1           0       25.736073    4.261135    6.048245
    140          1           0       27.100150    5.292185    5.748327
    141          1           0       27.498253    3.593981    5.749404
    142          1           0       26.337304    5.218910   -1.363287
    143          1           0       24.420020    4.589543   -3.387086
    144          1           0       24.054883    5.629033    0.182037
    145          1           0       23.285128    5.443114   -1.393571
    146          1           0       24.473392    6.734901   -1.066295
    147          1           0       26.570221    5.134866   -4.048507
    148          1           0       26.283132    3.406496   -4.451200
    149          1           0       28.381733    4.528612   -2.679077
    150          1           0       28.448642    3.402391   -4.072006
    151          1           0       27.946028    2.766246   -2.567640
    152          1           0       23.763283   -0.113104   -5.989674
    153          1           0       22.194415    0.339623   -5.284729
    154          1           0       22.647940   -1.349722   -5.892507
    155          1           0       23.577351   -4.647975   -1.609894
    156          1           0       19.442337   -5.824704   -2.985598
    157          1           0       19.112756   -4.497009   -1.856482
    158          1           0       19.399746   -5.971510   -1.309602
 ---------------------------------------------------------------------

 SCF Done:  E(RPBE1PBE) =  -4067.39433331     A.U. after   16 cycles

 Excitation energies and oscillator strengths:

 Excited State   1:      Singlet-A      1.9095 eV  649.29 nm  f=0.3723  <S**2>=0.000
     310 -> 315        0.19442
     311 -> 314        0.68532
 This state for optimization and/or second-order correction.
 Total Energy, E(TD-HF/TD-DFT) =  -4067.32415867
 Copying the excited state density for this state as the 1-particle RhoCI density.

 Excited State   2:      Singlet-A      2.0115 eV  616.39 nm  f=0.0000  <S**2>=0.000
     312 -> 314        0.70711

 Excited State   3:      Singlet-A      2.0626 eV  601.11 nm  f=0.0000  <S**2>=0.000
     311 -> 313        0.70711

 Excited State   4:      Singlet-A      2.2083 eV  561.45 nm  f=0.1054  <S**2>=0.000
     310 -> 314        0.65636
     311 -> 315       -0.25140

 Excited State   5:      Singlet-A      2.5470 eV  486.79 nm  f=0.0000  <S**2>=0.000
     310 -> 313        0.70711

 The electronic state is 1-A.
 Alpha  occ. eigenvalues --  -46.91806 -46.91450 -19.26668 -19.25452 -19.20184
 Alpha  occ. eigenvalues --  -19.20153 -19.19534 -19.19324 -19.18975 -19.18660
 Alpha  occ. eigenvalues --  -14.41687 -14.41593 -14.41069 -14.40913 -14.39318
 Alpha  occ. eigenvalues --  -14.39294 -14.38657 -14.38623 -10.36185 -10.35539
 Alpha  occ. eigenvalues --  -10.33237 -10.32418 -10.32040 -10.31718 -10.29450
 Alpha  occ. eigenvalues --  -10.29165 -10.28480 -10.28473 -10.28389 -10.28211
 Alpha  occ. eigenvalues --  -10.28194 -10.28186 -10.28167 -10.28113 -10.27978
 Alpha  occ. eigenvalues --  -10.27714 -10.27650 -10.27600 -10.27542 -10.27350
 Alpha  occ. eigenvalues --  -10.26880 -10.26829 -10.26749 -10.26731 -10.26687
 Alpha  occ. eigenvalues --  -10.26353 -10.26312 -10.26244 -10.26003 -10.25642
 Alpha  occ. eigenvalues --  -10.25596 -10.25591 -10.25561 -10.25511 -10.25435
 Alpha  occ. eigenvalues --  -10.25385 -10.25372 -10.25310 -10.25286 -10.25232
 Alpha  occ. eigenvalues --  -10.24964 -10.24897 -10.24780 -10.24703 -10.24697
 Alpha  occ. eigenvalues --  -10.24691 -10.24425 -10.24385 -10.24261 -10.24238
 Alpha  occ. eigenvalues --  -10.24226 -10.24130 -10.23580 -10.23487 -10.23419
 Alpha  occ. eigenvalues --  -10.23312 -10.23173 -10.23117 -10.22988 -10.22971
 Alpha  occ. eigenvalues --  -10.22897 -10.22837 -10.22759 -10.22394 -10.22205
 Alpha  occ. eigenvalues --  -10.22114  -3.13996  -3.13631  -1.86830  -1.86472
 Alpha  occ. eigenvalues --   -1.86375  -1.86223  -1.85982  -1.85876  -1.12813
 Alpha  occ. eigenvalues --   -1.10274  -1.07103  -1.06557  -1.03755  -1.03181
 Alpha  occ. eigenvalues --   -1.02028  -1.01588  -1.00004  -0.98974  -0.98659
 Alpha  occ. eigenvalues --   -0.98264  -0.97867  -0.97265  -0.95965  -0.95329
 Alpha  occ. eigenvalues --   -0.86989  -0.86942  -0.83601  -0.82912  -0.82585
 Alpha  occ. eigenvalues --   -0.82320  -0.82030  -0.82006  -0.81817  -0.81304
 Alpha  occ. eigenvalues --   -0.81298  -0.81094  -0.80787  -0.80345  -0.78198
 Alpha  occ. eigenvalues --   -0.78161  -0.77719  -0.77602  -0.76568  -0.76511
 Alpha  occ. eigenvalues --   -0.75811  -0.75458  -0.75358  -0.75164  -0.74579
 Alpha  occ. eigenvalues --   -0.74172  -0.72754  -0.72032  -0.71703  -0.71355
 Alpha  occ. eigenvalues --   -0.70986  -0.70666  -0.70072  -0.70039  -0.69322
 Alpha  occ. eigenvalues --   -0.69169  -0.67323  -0.66692  -0.65896  -0.65615
 Alpha  occ. eigenvalues --   -0.63741  -0.63208  -0.63134  -0.63041  -0.62664
 Alpha  occ. eigenvalues --   -0.62290  -0.61339  -0.60841  -0.60235  -0.60185
 Alpha  occ. eigenvalues --   -0.59796  -0.59293  -0.59043  -0.58995  -0.58629
 Alpha  occ. eigenvalues --   -0.58365  -0.56886  -0.56137  -0.54471  -0.54419
 Alpha  occ. eigenvalues --   -0.53965  -0.53898  -0.53681  -0.53515  -0.52893
 Alpha  occ. eigenvalues --   -0.52724  -0.52566  -0.52455  -0.52147  -0.51801
 Alpha  occ. eigenvalues --   -0.50663  -0.50536  -0.50276  -0.50166  -0.49763
 Alpha  occ. eigenvalues --   -0.49481  -0.49095  -0.49004  -0.48564  -0.48473
 Alpha  occ. eigenvalues --   -0.47854  -0.47775  -0.47733  -0.47644  -0.47357
 Alpha  occ. eigenvalues --   -0.47151  -0.46988  -0.46779  -0.46746  -0.46492
 Alpha  occ. eigenvalues --   -0.46472  -0.46350  -0.46181  -0.45945  -0.45586
 Alpha  occ. eigenvalues --   -0.45537  -0.45434  -0.45282  -0.45060  -0.44804
 Alpha  occ. eigenvalues --   -0.44406  -0.44378  -0.44085  -0.44028  -0.43794
 Alpha  occ. eigenvalues --   -0.43704  -0.43572  -0.43502  -0.43252  -0.43139
 Alpha  occ. eigenvalues --   -0.43085  -0.42941  -0.42787  -0.42574  -0.42464
 Alpha  occ. eigenvalues --   -0.42443  -0.42420  -0.42148  -0.41663  -0.41651
 Alpha  occ. eigenvalues --   -0.41319  -0.41269  -0.41139  -0.41005  -0.41001
 Alpha  occ. eigenvalues --   -0.40906  -0.40707  -0.40392  -0.40369  -0.40234
 Alpha  occ. eigenvalues --   -0.39899  -0.39719  -0.39681  -0.39638  -0.39476
 Alpha  occ. eigenvalues --   -0.39211  -0.39183  -0.39062  -0.38919  -0.38912
 Alpha  occ. eigenvalues --   -0.38487  -0.38440  -0.38354  -0.38193  -0.38124
 Alpha  occ. eigenvalues --   -0.37877  -0.37853  -0.37770  -0.37728  -0.37575
 Alpha  occ. eigenvalues --   -0.37488  -0.37458  -0.37223  -0.37108  -0.36846
 Alpha  occ. eigenvalues --   -0.36604  -0.36603  -0.36470  -0.36279  -0.36188
 Alpha  occ. eigenvalues --   -0.36063  -0.35675  -0.35617  -0.35474  -0.35149
 Alpha  occ. eigenvalues --   -0.35138  -0.34667  -0.34468  -0.34310  -0.34063
 Alpha  occ. eigenvalues --   -0.33164  -0.32931  -0.32648  -0.32604  -0.32442
 Alpha  occ. eigenvalues --   -0.32055  -0.31956  -0.31906  -0.31512  -0.31476
 Alpha  occ. eigenvalues --   -0.31387  -0.31176  -0.29579  -0.29554  -0.29157
 Alpha  occ. eigenvalues --   -0.29085  -0.28574  -0.28232  -0.27106  -0.26952
 Alpha  occ. eigenvalues --   -0.26238  -0.26112  -0.25765  -0.25556  -0.25440
 Alpha  occ. eigenvalues --   -0.25379  -0.25137  -0.24949  -0.20653  -0.20604
 Alpha  occ. eigenvalues --   -0.18826  -0.18580
 Alpha virt. eigenvalues --   -0.10975  -0.10920  -0.05129  -0.04892  -0.04211
 Alpha virt. eigenvalues --   -0.03602  -0.02266  -0.01884  -0.00301  -0.00107
 Alpha virt. eigenvalues --    0.00577   0.00887   0.01518   0.01644   0.01916

 Mulliken charges:
               1
     1  Mg  11.998903
     2  C    6.010311
     3  C    5.983617
     4  C    5.992700
     5  C    6.015539
     6  N    7.004253
     7  C    5.973283
     8  C    6.009626
     9  C    5.991536
    10  C    6.036892
    11  C    5.996067
    12  C    6.005679
    13  C    5.999508
    14  H    0.996780
    15  N    6.994637
    16  C    6.039785
    17  C    6.016880
    18  C    6.021382
    19  C    6.020550
    20  C    5.995936
    21  C    6.012882
    22  O    8.026839
    23  C    5.996261
    24  N    6.999382
    25  C    6.025559
    26  C    5.997003
    27  C    6.011097
    28  C    5.963951
    29  C    5.997275
    30  C    6.004506
    31  C    5.998068
    32  N    7.002776
    33  C    5.959663
    34  C    5.974873
    35  C    5.994291
    36  C    5.979775
    37  C    6.003089
    38  C    5.981420
    39  O    7.968582
    40  C    5.999435
    41  C    5.995528
    42  O    7.992675
    43  O    7.999451
    44  C    6.001737
    45  H    1.007265
    46  H    1.005843
    47  H    0.992482
    48  H    1.001936
    49  H    1.002716
    50  H    1.012417
    51  H    0.995599
    52  H    1.006245
    53  H    0.990461
    54  H    1.004293
    55  H    0.996828
    56  H    1.004111
    57  H    1.018598
    58  H    1.014403
    59  H    1.014425
    60  H    1.009230
    61  H    1.003749
    62  H    1.013988
    63  H    0.996756
    64  H    0.996950
    65  H    0.997842
    66  H    1.009634
    67  H    0.996556
    68  H    1.004921
    69  H    0.992601
    70  H    0.994689
    71  H    1.000833
    72  H    0.995925
    73  H    0.983515
    74  H    0.976033
    75  H    0.986900
    76  H    0.992680
    77  H    1.000657
    78  H    0.993411
    79  H    0.995526
    80  Mg  11.999991
    81  C    6.000005
    82  C    6.000019
    83  C    5.999973
    84  C    5.999971
    85  N    7.000009
    86  C    5.999994
    87  C    6.000025
    88  C    5.999974
    89  C    6.000015
    90  C    6.000005
    91  C    6.000002
    92  C    6.000000
    93  H    1.000049
    94  N    7.000009
    95  C    6.000014
    96  C    5.999990
    97  C    5.999996
    98  C    6.000016
    99  C    6.000001
   100  C    6.000013
   101  O    8.000000
   102  C    5.999998
   103  N    7.000000
   104  C    6.000006
   105  C    5.999986
   106  C    6.000022
   107  C    5.999991
   108  C    5.999995
   109  C    6.000010
   110  C    6.000004
   111  N    7.000000
   112  C    5.999994
   113  C    6.000002
   114  C    6.000019
   115  C    5.999993
   116  C    5.999997
   117  C    5.999988
   118  O    8.000000
   119  C    5.999994
   120  C    6.000013
   121  O    8.000019
   122  O    7.999987
   123  C    5.999968
   124  H    1.000019
   125  H    0.999985
   126  H    0.999973
   127  H    1.000034
   128  H    0.999982
   129  H    1.000027
   130  H    1.000001
   131  H    1.000048
   132  H    0.999965
   133  H    0.999980
   134  H    0.999966
   135  H    0.999993
   136  H    1.000036
   137  H    0.999986
   138  H    1.000030
   139  H    1.000031
   140  H    0.999990
   141  H    0.999978
   142  H    0.999964
   143  H    1.000005
   144  H    1.000010
   145  H    1.000044
   146  H    0.999982
   147  H    0.999967
   148  H    1.000001
   149  H    0.999969
   150  H    0.999968
   151  H    1.000001
   152  H    0.999948
   153  H    1.000014
   154  H    0.999988
   155  H    0.999976
   156  H    1.000009
   157  H    1.000046
   158  H    1.000024
 Sum of Mulliken charges = 624.00000

 Dipole moment (field-independent basis, Debye):
    X=             -9.5687    Y=              1.7115    Z=             -2.8851  Tot=             10.1397
 Quadrupole moment (field-independent basis, Debye-Ang):
   XX=            471.7975   YY=             -0.3431   ZZ=             -0.6437
   XY=            -47.9500   XZ=             70.6239   YZ=             -1.4500

 Normal termination of Gaussian 16 at Fri Oct 15 10:52:15 2021.
