 Gaussian 16, Revision A.03,
 Gaussian 16:  ES64L-G16RevA.03 25-Dec-2016

 ---------------------------------------------------
 #p PBE1PBE/Def2SVP td=(nstates=5) density=(current)
 ---------------------------------------------------

 --------------------------------
 TDDFT excited states in gaussian
 --------------------------------
 Symbolic Z-matrix:
 Charge =  0 Multiplicity = 1

                         Standard orientation:
 ---------------------------------------------------------------------
 Center     Atomic      Atomic             Coordinates (Angstroms)
 Number     Number       Type             X           Y           Z
 ---------------------------------------------------------------------
      1         12           0       -0.792685    0.027477    0.197632
      2          6           0        2.739067    0.258241    0.193622
      3          6           0       -0.478202   -3.321995   -0.069584
      4          6           0       -4.060922   -0.113782    0.067336
      5          6           0       -0.860885    3.583537   -0.268871
      6          7           0        0.956791   -1.418346   -0.032218
      7          6           0        2.265363   -1.069064    0.256600
      8          6           0        3.017046   -2.340307    0.458409
      9          6           0        2.135355   -3.418882   -0.171761
     10          6           0        0.752389   -2.726172   -0.084245
     11          6           0        2.537171   -3.667390   -1.673924
     12          6           0        3.421376   -2.715688    1.984250
     13          6           0        4.835393   -3.286983    2.309876
     14          1           0        5.329071   -4.475766    1.435498
     15          7           0       -2.079721   -1.554986    0.006845
     16          6           0       -1.751482   -2.811118   -0.067100
     17          6           0       -2.984887   -3.602090   -0.219962
     18          6           0       -4.083420   -2.725268    0.031343
     19          6           0       -3.436739   -1.382383    0.020732
     20          6           0       -3.136751   -5.133261   -0.542235
     21          6           0       -5.572910   -2.995460    0.241775
     22          8           0       -6.440450   -2.106233    0.335621
     23          6           0       -6.049640   -4.364869    0.123847
     24          7           0       -2.258486    1.579941   -0.246117
     25          6           0       -3.603737    1.243297   -0.120616
     26          6           0       -4.461398    2.567058   -0.102602
     27          6           0       -3.389383    3.684759   -0.069394
     28          6           0       -2.070424    2.914047   -0.160217
     29          6           0       -5.498722    2.622389   -1.224418
     30          6           0       -3.495588    4.700064    1.096237
     31          6           0       -3.204694    6.186856    0.785453
     32          7           0        0.599459    1.625570   -0.017687
     33          6           0        0.438229    2.988125   -0.248220
     34          6           0        1.726833    3.625070   -0.149425
     35          6           0        2.655227    2.589201   -0.035385
     36          6           0        1.942126    1.362241    0.057778
     37          6           0        1.992071    5.003445   -0.147228
     38          6           0        4.078542    2.256440    0.124109
     39          8           0        5.086366    2.940818    0.203472
     40          6           0        4.176509    0.706377    0.306016
     41          6           0        5.106087    0.183391   -0.774545
     42          8           0        4.945777   -0.119339   -1.935260
     43          8           0        6.267145    0.004921   -0.079379
     44          6           0        7.328889   -0.815881   -0.709037
     45          1           0       -0.393740   -4.411069   -0.067226
     46          1           0       -5.136374   -0.207515    0.231476
     47          1           0       -0.870385    4.671752   -0.183834
     48          1           0        3.990473   -2.402801   -0.028680
     49          1           0        2.047089   -4.308002    0.452083
     50          1           0        2.391540   -4.694760   -2.005986
     51          1           0        3.602737   -3.533607   -1.862006
     52          1           0        1.867191   -3.030569   -2.250566
     53          1           0        2.642242   -3.341004    2.418928
     54          1           0        3.328453   -1.829556    2.613231
     55          1           0        4.687698   -3.705592    3.306054
     56          1           0        5.453655   -2.391992    2.239865
     57          1           0       -3.521979   -5.746023    0.272448
     58          1           0       -2.148345   -5.495352   -0.826546
     59          1           0       -3.872413   -5.375891   -1.309113
     60          1           0       -5.499378   -5.027991    0.791887
     61          1           0       -5.955588   -4.720751   -0.902196
     62          1           0       -7.055672   -4.384019    0.541790
     63          1           0       -4.927319    2.606466    0.882127
     64          1           0       -3.358151    4.213590   -1.021806
     65          1           0       -5.046891    3.080971   -2.104610
     66          1           0       -6.358893    3.257736   -1.015788
     67          1           0       -5.684587    1.611071   -1.584561
     68          1           0       -2.930542    4.417372    1.984307
     69          1           0       -4.494851    4.687103    1.533516
     70          1           0       -2.168278    6.323434    1.094487
     71          1           0       -3.838791    6.742261    1.477248
     72          1           0       -3.359719    6.387038   -0.274379
     73          1           0        2.978263    5.369815   -0.431463
     74          1           0        1.710673    5.373250    0.839257
     75          1           0        1.327476    5.423577   -0.901281
     76          1           0        4.554814    0.470665    1.300545
     77          1           0        7.693187   -1.454979    0.094777
     78          1           0        8.185846   -0.272811   -1.106726
     79          1           0        6.899381   -1.446012   -1.487414
 ---------------------------------------------------------------------

 SCF Done:  E(RPBE1PBE) =  -2033.68364890     A.U. after   16 cycles

 Excitation energies and oscillator strengths:

 Excited State   1:      Singlet-A      1.8848 eV  657.80 nm  f=0.3779  <S**2>=0.000
     155 ->158         0.17651
     156 ->157         0.68857
 This state for optimization and/or second-order correction.
 Total Energy, E(TD-HF/TD-DFT) =  -2033.61438241
 Copying the excited state density for this state as the 1-particle RhoCI density.

 Excited State   2:      Singlet-A      2.2641 eV  547.61 nm  f=0.0695  <S**2>=0.000
     155 ->157         0.63661
     156 ->158        -0.28687

 Excited State   3:      Singlet-A      3.0391 eV  407.97 nm  f=0.0003  <S**2>=0.000
     153 ->157         0.65203
     153 ->159         0.15396
     153 ->160         0.13272
     154 ->157        -0.17242

 Excited State   4:      Singlet-A      3.0678 eV  404.15 nm  f=0.0042  <S**2>=0.000
     153 ->157         0.16393
     154 ->157         0.65585
     156 ->158         0.17755

 Excited State   5:      Singlet-A      3.2022 eV  387.18 nm  f=0.1282  <S**2>=0.000
     151 ->157         0.10628
     152 ->157         0.41418
     154 ->157        -0.11362
     155 ->157         0.15525
     156 ->158         0.43633
     156 ->159         0.23354

 The electronic state is 1-A.
 Alpha  occ. eigenvalues --  -46.92747 -19.25062 -19.20257 -19.19416 -19.18926
 Alpha  occ. eigenvalues --  -14.41309 -14.40925 -14.39433 -14.38670 -10.36248
 Alpha  occ. eigenvalues --  -10.32566 -10.31998 -10.29451 -10.28693 -10.28574
 Alpha  occ. eigenvalues --  -10.28395 -10.28114 -10.27708 -10.27558 -10.27377
 Alpha  occ. eigenvalues --  -10.27350 -10.27076 -10.25940 -10.25702 -10.25557
 Alpha  occ. eigenvalues --  -10.25380 -10.25361 -10.25344 -10.25259 -10.25170
 Alpha  occ. eigenvalues --  -10.25052 -10.24998 -10.24877 -10.24375 -10.24219
 Alpha  occ. eigenvalues --  -10.24033 -10.23781 -10.23272 -10.23270 -10.23189
 Alpha  occ. eigenvalues --  -10.23091 -10.22705 -10.22582  -3.14718  -1.87556
 Alpha  occ. eigenvalues --   -1.87094  -1.86932  -1.10894  -1.04357  -1.04004
 Alpha  occ. eigenvalues --   -1.02606  -0.99789  -0.98561  -0.97695  -0.96755
 Alpha  occ. eigenvalues --   -0.87154  -0.83185  -0.82778  -0.82302  -0.81906
 Alpha  occ. eigenvalues --   -0.81339  -0.81172  -0.78516  -0.77892  -0.76976
 Alpha  occ. eigenvalues --   -0.76584  -0.75847  -0.74980  -0.72658  -0.71754
 Alpha  occ. eigenvalues --   -0.71349  -0.70172  -0.69471  -0.66993  -0.66274
 Alpha  occ. eigenvalues --   -0.63227  -0.63118  -0.62194  -0.61725  -0.59976
 Alpha  occ. eigenvalues --   -0.59844  -0.59440  -0.58905  -0.56536  -0.54992
 Alpha  occ. eigenvalues --   -0.54137  -0.53830  -0.52951  -0.52397  -0.52081
 Alpha  occ. eigenvalues --   -0.50752  -0.50442  -0.49736  -0.49020  -0.48280
 Alpha  occ. eigenvalues --   -0.48131  -0.47812  -0.47632  -0.47398  -0.47000
 Alpha  occ. eigenvalues --   -0.46676  -0.46261  -0.46138  -0.45886  -0.45395
 Alpha  occ. eigenvalues --   -0.44965  -0.44613  -0.44150  -0.43943  -0.43562
 Alpha  occ. eigenvalues --   -0.43433  -0.42868  -0.42355  -0.42091  -0.41803
 Alpha  occ. eigenvalues --   -0.41462  -0.41365  -0.41007  -0.40642  -0.40322
 Alpha  occ. eigenvalues --   -0.39769  -0.39651  -0.39490  -0.39187  -0.38803
 Alpha  occ. eigenvalues --   -0.38645  -0.38379  -0.37831  -0.37788  -0.37545
 Alpha  occ. eigenvalues --   -0.37181  -0.37011  -0.36682  -0.36384  -0.36169
 Alpha  occ. eigenvalues --   -0.35761  -0.35426  -0.35101  -0.34731  -0.34608
 Alpha  occ. eigenvalues --   -0.33706  -0.32674  -0.32398  -0.31628  -0.31393
 Alpha  occ. eigenvalues --   -0.30957  -0.29593  -0.29132  -0.28604  -0.26897
 Alpha  occ. eigenvalues --   -0.26488  -0.25918  -0.25359  -0.24954  -0.20915
 Alpha  occ. eigenvalues --   -0.18630
 Alpha virt. eigenvalues --   -0.10819  -0.05565  -0.04265  -0.02154  -0.00891
 Alpha virt. eigenvalues --    0.01117   0.01265   0.01553   0.02997   0.04307
 Alpha virt. eigenvalues --    0.04546   0.05512   0.05958   0.06130   0.07225

 Mulliken charges:
               1
     1  Mg   0.938900
     2  C   -0.057581
     3  C   -0.092547
     4  C   -0.059864
     5  C   -0.085562
     6  N   -0.365168
     7  C    0.106948
     8  C   -0.131429
     9  C   -0.115099
    10  C    0.028362
    11  C    0.035467
    12  C   -0.027652
    13  C   -0.135592
    14  H    0.040007
    15  N   -0.465695
    16  C    0.204703
    17  C   -0.175992
    18  C   -0.075575
    19  C    0.128400
    20  C    0.044697
    21  C    0.062518
    22  O   -0.263445
    23  C   -0.015124
    24  N   -0.397398
    25  C    0.059149
    26  C   -0.092159
    27  C   -0.085609
    28  C    0.092886
    29  C    0.037006
    30  C   -0.050510
    31  C   -0.057811
    32  N   -0.476379
    33  C    0.153427
    34  C   -0.212259
    35  C   -0.013938
    36  C    0.186016
    37  C    0.056932
    38  C    0.122146
    39  O   -0.213868
    40  C   -0.115063
    41  C    0.302006
    42  O   -0.234032
    43  O   -0.374213
    44  C    0.115204
    45  H   -0.006445
    46  H    0.032113
    47  H   -0.002447
    48  H    0.049083
    49  H    0.032576
    50  H    0.036870
    51  H    0.051453
    52  H    0.065764
    53  H    0.031150
    54  H    0.036387
    55  H    0.071828
    56  H    0.079394
    57  H    0.047681
    58  H    0.043468
    59  H    0.046170
    60  H    0.042846
    61  H    0.078019
    62  H    0.053320
    63  H    0.054349
    64  H    0.050971
    65  H    0.024189
    66  H    0.052623
    67  H    0.057241
    68  H    0.034333
    69  H    0.033347
    70  H    0.051076
    71  H    0.045151
    72  H    0.051614
    73  H    0.062513
    74  H    0.057800
    75  H    0.043390
    76  H    0.086701
    77  H    0.050884
    78  H    0.067605
    79  H    0.061774
 Sum of Mulliken charges =  -0.00000

 Dipole moment (field-independent basis, Debye):
    X=             -1.4310    Y=             -2.7625    Z=              2.5276  Tot=              4.0084
 Quadrupole moment (field-independent basis, Debye-Ang):
   XX=           -274.9583   YY=           -223.4160   ZZ=           -256.1898
   XY=            -29.3742   XZ=              6.5049   YZ=              1.5762

 Normal termination of Gaussian 16 at Wed Oct 13 17:04:20 2021.
