 Gaussian 16, Revision A.03,
 Gaussian 16:  ES64L-G16RevA.03 25-Dec-2016

 --------------------------------------------------------
 #p PBE1PBE/Def2SVP td=(nstates=5) density=(transition=1)
 --------------------------------------------------------

 --------------------------------
 TDDFT excited states in gaussian
 --------------------------------
 Symbolic Z-matrix:
 Charge =  0 Multiplicity = 1

                         Standard orientation:
 ---------------------------------------------------------------------
 Center     Atomic      Atomic             Coordinates (Angstroms)
 Number     Number       Type             X           Y           Z
 ---------------------------------------------------------------------
      1         12           0       18.153190   -0.043064    0.277779
      2          6           0       15.405779   -1.656138   -0.912823
      3          6           0       19.200361    0.468259   -3.061453
      4          6           0       20.170159    2.379633    1.380760
      5          6           0       16.739218   -0.134812    3.599659
      6          7           0       17.381784   -0.570788   -1.686402
      7          6           0       16.291713   -1.192693   -1.992506
      8          6           0       16.218842   -1.611744   -3.503869
      9          6           0       17.603335   -1.162541   -4.108490
     10          6           0       18.172124   -0.375083   -2.878185
     11          6           0       18.447313   -2.257529   -4.762354
     12          6           0       14.886281   -1.009225   -4.250973
     13          6           0       14.215889    0.223040   -3.665432
     14          1           0       13.278587    1.077629   -4.518667
     15          7           0       19.490569    1.247061   -0.719872
     16          6           0       19.834132    1.265666   -2.050288
     17          6           0       20.763524    2.284409   -2.282200
     18          6           0       21.056187    2.910607   -1.009536
     19          6           0       20.190631    2.206307   -0.027180
     20          6           0       21.414211    2.449879   -3.643316
     21          6           0       22.053578    4.068550   -0.824611
     22          8           0       22.645833    4.495321   -1.841222
     23          6           0       22.368085    4.712018    0.418160
     24          7           0       18.320153    1.125238    2.245165
     25          6           0       19.363462    1.890706    2.396207
     26          6           0       19.579522    2.341102    3.869039
     27          6           0       18.513201    1.496125    4.599760
     28          6           0       17.762890    0.719395    3.443486
     29          6           0       20.942060    2.079251    4.401611
     30          6           0       17.542770    2.378620    5.517869
     31          6           0       17.692874    2.181936    7.082442
     32          7           0       16.510768   -0.820649    1.251207
     33          6           0       16.058724   -0.833577    2.576682
     34          6           0       14.801560   -1.641913    2.643824
     35          6           0       14.524245   -1.922628    1.298388
     36          6           0       15.559988   -1.383112    0.479213
     37          6           0       14.001296   -1.999600    3.799573
     38          6           0       13.546092   -2.516301    0.507798
     39          8           0       12.488580   -3.114158    0.755326
     40          6           0       14.104028   -2.460142   -0.942733
     41          6           0       14.171557   -3.906376   -1.488380
     42          8           0       13.683450   -4.334059   -2.520555
     43          8           0       14.885683   -4.743008   -0.658097
     44          6           0       14.991816   -6.155226   -1.043613
     45          1           0       19.413088    0.614463   -4.122354
     46          1           0       20.914058    3.043054    1.826328
     47          1           0       16.416170   -0.299078    4.629655
     48          1           0       16.272172   -2.700670   -3.518302
     49          1           0       17.489094   -0.382320   -4.861664
     50          1           0       19.362138   -2.406194   -4.189018
     51          1           0       18.750140   -1.994502   -5.776531
     52          1           0       17.949437   -3.216576   -4.905644
     53          1           0       14.246204   -1.891306   -4.280895
     54          1           0       15.045112   -0.652843   -5.268974
     55          1           0       15.062123    0.828295   -3.341433
     56          1           0       13.718930   -0.127665   -2.760743
     57          1           0       22.500248    2.415965   -3.733594
     58          1           0       21.023639    3.356383   -4.106300
     59          1           0       21.060989    1.656116   -4.301270
     60          1           0       22.811142    4.105469    1.207834
     61          1           0       21.455597    5.031393    0.920611
     62          1           0       22.930561    5.637864    0.301714
     63          1           0       19.452761    3.394801    4.117194
     64          1           0       18.937433    0.680617    5.185609
     65          1           0       21.580902    2.958128    4.487123
     66          1           0       21.529089    1.500776    3.687366
     67          1           0       20.878270    1.588829    5.372822
     68          1           0       16.516716    2.068339    5.315673
     69          1           0       17.681445    3.454129    5.416272
     70          1           0       17.720069    3.154755    7.571737
     71          1           0       18.679322    1.758538    7.271973
     72          1           0       16.782021    1.665861    7.386508
     73          1           0       14.723083   -2.074004    4.613290
     74          1           0       13.520948   -2.967267    3.650330
     75          1           0       13.220279   -1.243491    3.873999
     76          1           0       13.376271   -2.099172   -1.669122
     77          1           0       15.177601   -6.742213   -0.143951
     78          1           0       15.803298   -6.447450   -1.709901
     79          1           0       14.127015   -6.527783   -1.593418
     80         12           0      -18.076752    0.595434    0.171193
     81          6           0      -15.045176   -1.178773   -0.262709
     82          6           0      -19.478759   -2.264158    1.287604
     83          6           0      -20.888586    2.253525    0.421467
     84          6           0      -16.595511    3.260698   -1.718288
     85          7           0      -17.380655   -1.565251    0.396552
     86          6           0      -16.044951   -1.930782    0.389236
     87          6           0      -15.961750   -3.275218    1.027503
     88          6           0      -17.391757   -3.814947    0.987632
     89          6           0      -18.183113   -2.485302    0.910814
     90          6           0      -17.631341   -4.678608   -0.307125
     91          6           0      -15.342175   -3.335583    2.525858
     92          6           0      -14.342675   -4.464671    2.923370
     93          1           0      -14.760042   -5.923387    2.577808
     94          7           0      -19.947181    0.018850    0.776252
     95          6           0      -20.290912   -1.161995    1.198781
     96          6           0      -21.731757   -1.141108    1.505079
     97          6           0      -22.151111    0.223398    1.473264
     98          6           0      -20.984919    0.907521    0.845872
     99          6           0      -22.678010   -2.344602    1.862308
    100          6           0      -23.448061    0.899436    1.916839
    101          8           0      -23.718008    2.098910    1.715473
    102          6           0      -24.525004    0.062368    2.422773
    103          7           0      -18.691642    2.481293   -0.734943
    104          6           0      -19.926275    3.000547   -0.354372
    105          6           0      -20.005846    4.510017   -0.805389
    106          6           0      -18.580583    4.796863   -1.340101
    107          6           0      -17.880045    3.440930   -1.227886
    108          6           0      -21.178216    4.791868   -1.745433
    109          6           0      -17.836143    5.993285   -0.695736
    110          6           0      -16.987456    6.896516   -1.620754
    111          7           0      -16.234911    1.004910   -0.817886
    112          6           0      -15.794878    2.085383   -1.575940
    113          6           0      -14.397431    1.898011   -1.872575
    114          6           0      -14.083385    0.612823   -1.428037
    115          6           0      -15.224832    0.080243   -0.767672
    116          6           0      -13.526390    2.824451   -2.466939
    117          6           0      -13.013874   -0.385383   -1.280633
    118          8           0      -11.832366   -0.386417   -1.587909
    119          6           0      -13.609537   -1.591275   -0.482892
    120          6           0      -13.414121   -2.834483   -1.332297
    121          8           0      -14.041272   -3.327685   -2.242262
    122          8           0      -12.326659   -3.407837   -0.739125
    123          6           0      -12.025890   -4.821299   -1.069502
    124          1           0      -19.922321   -3.157487    1.733066
    125          1           0      -21.773470    2.824140    0.710782
    126          1           0      -16.063828    4.137990   -2.091392
    127          1           0      -15.332891   -4.007328    0.520284
    128          1           0      -17.695703   -4.271793    1.929129
    129          1           0      -18.337532   -5.496494   -0.168130
    130          1           0      -16.742983   -5.219740   -0.633772
    131          1           0      -18.059954   -3.984775   -1.029495
    132          1           0      -16.150803   -3.261667    3.252269
    133          1           0      -14.810244   -2.407114    2.736752
    134          1           0      -14.360915   -4.411502    4.012525
    135          1           0      -13.429470   -4.131035    2.430519
    136          1           0      -23.039529   -2.365318    2.890152
    137          1           0      -22.116796   -3.257592    1.661371
    138          1           0      -23.633837   -2.355457    1.338431
    139          1           0      -24.180242   -0.558471    3.250115
    140          1           0      -24.925889   -0.572634    1.632632
    141          1           0      -25.240344    0.728353    2.904331
    142          1           0      -20.074754    5.092057    0.113745
    143          1           0      -18.593463    4.906896   -2.424284
    144          1           0      -20.854192    4.636260   -2.774988
    145          1           0      -21.527171    5.823985   -1.738390
    146          1           0      -21.918640    4.000337   -1.634696
    147          1           0      -17.232892    5.725904    0.171706
    148          1           0      -18.537101    6.666111   -0.199884
    149          1           0      -15.971366    6.521989   -1.495838
    150          1           0      -17.040676    7.885601   -1.164669
    151          1           0      -17.342233    6.821773   -2.648322
    152          1           0      -12.623045    2.479475   -2.969485
    153          1           0      -13.286009    3.562060   -1.700622
    154          1           0      -14.106578    3.293784   -3.260603
    155          1           0      -13.106463   -1.687101    0.479135
    156          1           0      -11.782623   -5.280128   -0.111602
    157          1           0      -11.180466   -4.991195   -1.735723
    158          1           0      -12.914698   -5.306332   -1.472210
 ---------------------------------------------------------------------

 SCF Done:  E(RPBE1PBE) =  -4067.33983104     A.U. after   17 cycles

 Excitation energies and oscillator strengths:

 Excited State   1:      Singlet-A      1.7129 eV  723.84 nm  f=0.0000  <S**2>=0.000
     312 -> 313        0.70710
 This state for optimization and/or second-order correction.
 Total Energy, E(TD-HF/TD-DFT) =  -4067.27688440
 Copying the excited state density for this state as the 1-particle RhoCI density.

 Excited State   2:      Singlet-A      1.8537 eV  668.86 nm  f=0.4421  <S**2>=0.000
     309 -> 316        0.15870
     311 -> 313        0.69674
     311 <- 313       -0.12229

 Excited State   3:      Singlet-A      1.8849 eV  657.78 nm  f=0.3571  <S**2>=0.000
     310 -> 315        0.17636
     312 -> 314        0.68821

 Excited State   4:      Singlet-A      2.2189 eV  558.78 nm  f=0.0000  <S**2>=0.000
     311 -> 314        0.70710

 Excited State   5:      Singlet-A      2.2475 eV  551.65 nm  f=0.1094  <S**2>=0.000
     309 -> 313        0.65200
     311 -> 316       -0.24626

 The electronic state is 1-A.
 Alpha  occ. eigenvalues --  -46.93688 -46.92704 -19.25453 -19.25005 -19.20280
 Alpha  occ. eigenvalues --  -19.20203 -19.19378 -19.18990 -19.18875 -19.17840
 Alpha  occ. eigenvalues --  -14.42673 -14.41380 -14.41267 -14.40882 -14.40086
 Alpha  occ. eigenvalues --  -14.39578 -14.39391 -14.38626 -10.36703 -10.36194
 Alpha  occ. eigenvalues --  -10.32529 -10.31947 -10.31620 -10.31569 -10.30524
 Alpha  occ. eigenvalues --  -10.29409 -10.29233 -10.28842 -10.28659 -10.28656
 Alpha  occ. eigenvalues --  -10.28632 -10.28569 -10.28547 -10.28531 -10.28352
 Alpha  occ. eigenvalues --  -10.28073 -10.27811 -10.27665 -10.27515 -10.27329
 Alpha  occ. eigenvalues --  -10.27307 -10.27105 -10.27041 -10.27035 -10.27019
 Alpha  occ. eigenvalues --  -10.26944 -10.26299 -10.26282 -10.26133 -10.25895
 Alpha  occ. eigenvalues --  -10.25817 -10.25662 -10.25527 -10.25507 -10.25336
 Alpha  occ. eigenvalues --  -10.25320 -10.25298 -10.25214 -10.25130 -10.25037
 Alpha  occ. eigenvalues --  -10.25020 -10.25015 -10.24952 -10.24831 -10.24789
 Alpha  occ. eigenvalues --  -10.24786 -10.24772 -10.24738 -10.24362 -10.24333
 Alpha  occ. eigenvalues --  -10.24176 -10.24100 -10.23993 -10.23904 -10.23738
 Alpha  occ. eigenvalues --  -10.23564 -10.23506 -10.23235 -10.23232 -10.23145
 Alpha  occ. eigenvalues --  -10.23062 -10.23054 -10.23052 -10.22655 -10.22540
 Alpha  occ. eigenvalues --  -10.22536  -3.15677  -3.14676  -1.88493  -1.88084
 Alpha  occ. eigenvalues --   -1.87865  -1.87513  -1.87051  -1.86889  -1.10839
 Alpha  occ. eigenvalues --   -1.10822  -1.04306  -1.03967  -1.03569  -1.02551
 Alpha  occ. eigenvalues --   -1.02505  -1.02113  -0.99747  -0.99573  -0.99091
 Alpha  occ. eigenvalues --   -0.98518  -0.98176  -0.97652  -0.97101  -0.96712
 Alpha  occ. eigenvalues --   -0.87211  -0.87107  -0.84005  -0.83712  -0.83304
 Alpha  occ. eigenvalues --   -0.83143  -0.82736  -0.82429  -0.82258  -0.82067
 Alpha  occ. eigenvalues --   -0.81861  -0.81298  -0.81131  -0.79731  -0.78982
 Alpha  occ. eigenvalues --   -0.78472  -0.78405  -0.77848  -0.77196  -0.76931
 Alpha  occ. eigenvalues --   -0.76799  -0.76547  -0.75800  -0.75660  -0.74934
 Alpha  occ. eigenvalues --   -0.74534  -0.72826  -0.72616  -0.71712  -0.71684
 Alpha  occ. eigenvalues --   -0.71303  -0.71230  -0.70626  -0.70123  -0.69691
 Alpha  occ. eigenvalues --   -0.69428  -0.67819  -0.66948  -0.66410  -0.66230
 Alpha  occ. eigenvalues --   -0.63952  -0.63253  -0.63186  -0.63076  -0.62729
 Alpha  occ. eigenvalues --   -0.62150  -0.61681  -0.61354  -0.60396  -0.60123
 Alpha  occ. eigenvalues --   -0.59932  -0.59802  -0.59394  -0.59340  -0.59086
 Alpha  occ. eigenvalues --   -0.58859  -0.57809  -0.56486  -0.55381  -0.54951
 Alpha  occ. eigenvalues --   -0.54559  -0.54092  -0.53786  -0.53561  -0.53143
 Alpha  occ. eigenvalues --   -0.52908  -0.52642  -0.52347  -0.52035  -0.51668
 Alpha  occ. eigenvalues --   -0.50998  -0.50711  -0.50398  -0.50236  -0.49958
 Alpha  occ. eigenvalues --   -0.49688  -0.49262  -0.48968  -0.48940  -0.48395
 Alpha  occ. eigenvalues --   -0.48235  -0.48087  -0.48026  -0.47767  -0.47747
 Alpha  occ. eigenvalues --   -0.47589  -0.47469  -0.47360  -0.47096  -0.46952
 Alpha  occ. eigenvalues --   -0.46706  -0.46632  -0.46219  -0.46091  -0.46078
 Alpha  occ. eigenvalues --   -0.45838  -0.45691  -0.45529  -0.45355  -0.45287
 Alpha  occ. eigenvalues --   -0.44918  -0.44822  -0.44568  -0.44484  -0.44163
 Alpha  occ. eigenvalues --   -0.44110  -0.43899  -0.43855  -0.43643  -0.43520
 Alpha  occ. eigenvalues --   -0.43406  -0.43389  -0.43255  -0.42993  -0.42822
 Alpha  occ. eigenvalues --   -0.42367  -0.42314  -0.42083  -0.42045  -0.41878
 Alpha  occ. eigenvalues --   -0.41761  -0.41530  -0.41423  -0.41351  -0.41323
 Alpha  occ. eigenvalues --   -0.40981  -0.40961  -0.40652  -0.40595  -0.40471
 Alpha  occ. eigenvalues --   -0.40277  -0.40045  -0.39811  -0.39721  -0.39603
 Alpha  occ. eigenvalues --   -0.39564  -0.39443  -0.39301  -0.39144  -0.39127
 Alpha  occ. eigenvalues --   -0.38760  -0.38602  -0.38538  -0.38474  -0.38340
 Alpha  occ. eigenvalues --   -0.37787  -0.37744  -0.37588  -0.37498  -0.37453
 Alpha  occ. eigenvalues --   -0.37170  -0.37136  -0.36970  -0.36826  -0.36720
 Alpha  occ. eigenvalues --   -0.36643  -0.36334  -0.36332  -0.36126  -0.35802
 Alpha  occ. eigenvalues --   -0.35717  -0.35686  -0.35549  -0.35381  -0.35059
 Alpha  occ. eigenvalues --   -0.34972  -0.34729  -0.34686  -0.34567  -0.34000
 Alpha  occ. eigenvalues --   -0.33666  -0.33568  -0.33016  -0.32863  -0.32629
 Alpha  occ. eigenvalues --   -0.32353  -0.31813  -0.31583  -0.31555  -0.31336
 Alpha  occ. eigenvalues --   -0.31278  -0.30914  -0.29758  -0.29609  -0.29543
 Alpha  occ. eigenvalues --   -0.29269  -0.29087  -0.28560  -0.27125  -0.26855
 Alpha  occ. eigenvalues --   -0.26448  -0.26364  -0.25879  -0.25833  -0.25308
 Alpha  occ. eigenvalues --   -0.25031  -0.24908  -0.24817  -0.21783  -0.20872
 Alpha  occ. eigenvalues --   -0.19298  -0.18587
 Alpha virt. eigenvalues --   -0.11917  -0.10775  -0.05523  -0.05410  -0.04222
 Alpha virt. eigenvalues --   -0.04169  -0.02343  -0.02109  -0.02020  -0.00850
 Alpha virt. eigenvalues --    0.00509   0.00863   0.01166   0.01316   0.01450

 Mulliken charges:
               1
     1  Mg  12.000000
     2  C    6.000000
     3  C    6.000000
     4  C    6.000000
     5  C    6.000000
     6  N    7.000000
     7  C    6.000000
     8  C    6.000000
     9  C    6.000000
    10  C    6.000000
    11  C    6.000000
    12  C    6.000000
    13  C    6.000000
    14  H    1.000000
    15  N    7.000000
    16  C    6.000000
    17  C    6.000000
    18  C    6.000000
    19  C    6.000000
    20  C    6.000000
    21  C    6.000000
    22  O    8.000000
    23  C    6.000000
    24  N    7.000000
    25  C    6.000000
    26  C    6.000000
    27  C    6.000000
    28  C    6.000000
    29  C    6.000000
    30  C    6.000000
    31  C    6.000000
    32  N    7.000000
    33  C    6.000000
    34  C    6.000000
    35  C    6.000000
    36  C    6.000000
    37  C    6.000000
    38  C    6.000000
    39  O    8.000000
    40  C    6.000000
    41  C    6.000000
    42  O    8.000000
    43  O    8.000000
    44  C    6.000000
    45  H    1.000000
    46  H    1.000000
    47  H    1.000000
    48  H    1.000000
    49  H    1.000000
    50  H    1.000000
    51  H    1.000000
    52  H    1.000000
    53  H    1.000000
    54  H    1.000000
    55  H    1.000000
    56  H    1.000000
    57  H    1.000000
    58  H    1.000000
    59  H    1.000000
    60  H    1.000000
    61  H    1.000000
    62  H    1.000000
    63  H    1.000000
    64  H    1.000000
    65  H    1.000000
    66  H    1.000000
    67  H    1.000000
    68  H    1.000000
    69  H    1.000000
    70  H    1.000000
    71  H    1.000000
    72  H    1.000000
    73  H    1.000000
    74  H    1.000000
    75  H    1.000000
    76  H    1.000000
    77  H    1.000000
    78  H    1.000000
    79  H    1.000000
    80  Mg  12.000000
    81  C    6.000000
    82  C    6.000000
    83  C    6.000000
    84  C    6.000000
    85  N    7.000000
    86  C    6.000000
    87  C    6.000000
    88  C    6.000000
    89  C    6.000000
    90  C    6.000000
    91  C    6.000000
    92  C    6.000000
    93  H    1.000000
    94  N    7.000000
    95  C    6.000000
    96  C    6.000000
    97  C    6.000000
    98  C    6.000000
    99  C    6.000000
   100  C    6.000000
   101  O    8.000000
   102  C    6.000000
   103  N    7.000000
   104  C    6.000000
   105  C    6.000000
   106  C    6.000000
   107  C    6.000000
   108  C    6.000000
   109  C    6.000000
   110  C    6.000000
   111  N    7.000000
   112  C    6.000000
   113  C    6.000000
   114  C    6.000000
   115  C    6.000000
   116  C    6.000000
   117  C    6.000000
   118  O    8.000000
   119  C    6.000000
   120  C    6.000000
   121  O    8.000000
   122  O    8.000000
   123  C    6.000000
   124  H    1.000000
   125  H    1.000000
   126  H    1.000000
   127  H    1.000000
   128  H    1.000000
   129  H    1.000000
   130  H    1.000000
   131  H    1.000000
   132  H    1.000000
   133  H    1.000000
   134  H    1.000000
   135  H    1.000000
   136  H    1.000000
   137  H    1.000000
   138  H    1.000000
   139  H    1.000000
   140  H    1.000000
   141  H    1.000000
   142  H    1.000000
   143  H    1.000000
   144  H    1.000000
   145  H    1.000000
   146  H    1.000000
   147  H    1.000000
   148  H    1.000000
   149  H    1.000000
   150  H    1.000000
   151  H    1.000000
   152  H    1.000000
   153  H    1.000000
   154  H    1.000000
   155  H    1.000000
   156  H    1.000000
   157  H    1.000000
   158  H    1.000000
 Sum of Mulliken charges = 624.00000

 Dipole moment (field-independent basis, Debye):
    X=              0.0000    Y=              0.0000    Z=             -0.0000  Tot=              0.0000
 Quadrupole moment (field-independent basis, Debye-Ang):
   XX=              0.0000   YY=              0.0000   ZZ=             -0.0000
   XY=              0.0000   XZ=             -0.0000   YZ=              0.0000

 Normal termination of Gaussian 16 at Thu Oct 14 05:39:48 2021.
