 Gaussian 16, Revision A.03,
 Gaussian 16:  ES64L-G16RevA.03 25-Dec-2016

 --------------------------------------------------------
 #p PBE1PBE/Def2SVP td=(nstates=5) density=(transition=1)
 --------------------------------------------------------

 --------------------------------
 TDDFT excited states in gaussian
 --------------------------------
 Symbolic Z-matrix:
 Charge =  0 Multiplicity = 1

                         Standard orientation:
 ---------------------------------------------------------------------
 Center     Atomic      Atomic             Coordinates (Angstroms)
 Number     Number       Type             X           Y           Z
 ---------------------------------------------------------------------
      1         12           0        0.722600   -0.066789   -0.482949
      2          6           0       -2.828971    0.404962   -0.367204
      3          6           0        0.245201   -3.314871   -0.422659
      4          6           0        3.955395   -0.266331    0.219657
      5          6           0        0.962385    3.589480   -0.162108
      6          7           0       -1.098413   -1.299334   -0.450883
      7          6           0       -2.455851   -0.929453   -0.372813
      8          6           0       -3.447014   -2.153374   -0.330985
      9          6           0       -2.326487   -3.360644   -0.423438
     10          6           0       -0.970175   -2.663007   -0.450349
     11          6           0       -2.417648   -4.363439    0.805606
     12          6           0       -4.560234   -2.169434   -1.435721
     13          6           0       -5.246786   -3.510593   -1.665050
     14          1           0       -6.736072   -3.545198   -1.275934
     15          7           0        1.949427   -1.599096   -0.245531
     16          6           0        1.629934   -2.936403   -0.266646
     17          6           0        2.793040   -3.784296   -0.111388
     18          6           0        3.885233   -2.845290    0.064702
     19          6           0        3.266352   -1.477624   -0.059698
     20          6           0        2.832106   -5.237544   -0.194584
     21          6           0        5.368421   -3.100286    0.269656
     22          8           0        6.202520   -2.239054    0.286321
     23          6           0        5.727839   -4.536097    0.545729
     24          7           0        2.240416    1.450752    0.030311
     25          6           0        3.523869    1.064455    0.241559
     26          6           0        4.449150    2.294866    0.439185
     27          6           0        3.473578    3.493832    0.174095
     28          6           0        2.136192    2.815792   -0.053166
     29          6           0        5.213337    2.434829    1.799709
     30          6           0        3.831907    4.421805   -1.039860
     31          6           0        4.978480    5.411431   -0.736187
     32          7           0       -0.570871    1.661253   -0.279047
     33          6           0       -0.346406    3.018182   -0.242104
     34          6           0       -1.584426    3.688798   -0.290689
     35          6           0       -2.568688    2.772985   -0.283152
     36          6           0       -1.928740    1.496905   -0.253395
     37          6           0       -1.656138    5.205812   -0.406725
     38          6           0       -4.004445    2.478356   -0.237611
     39          8           0       -4.954497    3.217048   -0.200870
     40          6           0       -4.202710    0.888171   -0.267824
     41          6           0       -4.733528    0.482671    1.070146
     42          8           0       -4.177018    0.205890    2.108763
     43          8           0       -6.102563    0.425571    0.899537
     44          6           0       -6.911361    0.022211    2.074437
     45          1           0        0.189372   -4.402975   -0.351033
     46          1           0        4.972901   -0.402338    0.593932
     47          1           0        1.209509    4.653568   -0.173670
     48          1           0       -3.864412   -2.205516    0.674716
     49          1           0       -2.537305   -3.943576   -1.320317
     50          1           0       -2.344204   -5.388013    0.441306
     51          1           0       -3.267187   -4.293792    1.484444
     52          1           0       -1.527755   -4.277631    1.428411
     53          1           0       -3.985428   -1.789856   -2.281485
     54          1           0       -5.363672   -1.435124   -1.373615
     55          1           0       -4.732555   -4.276437   -1.085086
     56          1           0       -5.286316   -3.701609   -2.737098
     57          1           0        3.434970   -5.345110   -1.096268
     58          1           0        1.827277   -5.655181   -0.259662
     59          1           0        3.338311   -5.782622    0.601868
     60          1           0        5.997672   -5.025807   -0.389843
     61          1           0        5.098880   -5.007073    1.301728
     62          1           0        6.548262   -4.446240    1.257165
     63          1           0        5.071756    2.323520   -0.455539
     64          1           0        3.323847    4.040122    1.105622
     65          1           0        5.015521    3.340190    2.374279
     66          1           0        6.260893    2.556711    1.525163
     67          1           0        5.077709    1.609908    2.499137
     68          1           0        2.960583    5.019755   -1.304615
     69          1           0        4.051374    3.736293   -1.859583
     70          1           0        5.078526    5.559559    0.339232
     71          1           0        4.732722    6.324705   -1.277937
     72          1           0        5.964076    5.061714   -1.044885
     73          1           0       -2.579968    5.520862   -0.892012
     74          1           0       -0.775669    5.557720   -0.944440
     75          1           0       -1.543148    5.666887    0.574721
     76          1           0       -4.856546    0.578416   -1.083431
     77          1           0       -7.793703    0.661700    2.052673
     78          1           0       -6.400733    0.133523    3.030862
     79          1           0       -7.119004   -1.011397    1.795868
 ---------------------------------------------------------------------

 SCF Done:  E(RPBE1PBE) =  -2033.69709852     A.U. after   16 cycles

 Excitation energies and oscillator strengths:

 Excited State   1:      Singlet-A      1.8602 eV  666.53 nm  f=0.3855  <S**2>=0.000
     155 ->158        -0.16820
     156 ->157         0.69344
     156 <-157        -0.10833
 This state for optimization and/or second-order correction.
 Total Energy, E(TD-HF/TD-DFT) =  -2033.62873913
 Copying the excited state density for this state as the 1-particle RhoCI density.

 Excited State   2:      Singlet-A      2.2252 eV  557.19 nm  f=0.1321  <S**2>=0.000
     155 ->157         0.65943
     156 ->158         0.23943

 Excited State   3:      Singlet-A      3.0464 eV  406.98 nm  f=0.0001  <S**2>=0.000
     153 ->157         0.67562
     153 ->159        -0.14595

 Excited State   4:      Singlet-A      3.1070 eV  399.05 nm  f=0.0003  <S**2>=0.000
     151 ->157        -0.16340
     154 ->157         0.67358

 Excited State   5:      Singlet-A      3.1690 eV  391.24 nm  f=0.0003  <S**2>=0.000
     151 ->157         0.64772
     151 ->159         0.10318
     154 ->157         0.17660

 The electronic state is 1-A.
 Alpha  occ. eigenvalues --  -46.91989 -19.24491 -19.20078 -19.19289 -19.19174
 Alpha  occ. eigenvalues --  -14.41703 -14.40870 -14.39275 -14.38516 -10.35933
 Alpha  occ. eigenvalues --  -10.32408 -10.31897 -10.28674 -10.28606 -10.28407
 Alpha  occ. eigenvalues --  -10.28113 -10.27960 -10.27858 -10.27822 -10.26869
 Alpha  occ. eigenvalues --  -10.26794 -10.26739 -10.26686 -10.26443 -10.26192
 Alpha  occ. eigenvalues --  -10.25508 -10.25342 -10.24759 -10.24709 -10.24696
 Alpha  occ. eigenvalues --  -10.24589 -10.24435 -10.24429 -10.24429 -10.24393
 Alpha  occ. eigenvalues --  -10.24379 -10.23655 -10.23387 -10.23261 -10.23024
 Alpha  occ. eigenvalues --  -10.23015 -10.23009 -10.22392  -3.14111  -1.86947
 Alpha  occ. eigenvalues --   -1.86466  -1.86358  -1.10404  -1.06133  -1.05523
 Alpha  occ. eigenvalues --   -1.02249  -0.98469  -0.97992  -0.97129  -0.96202
 Alpha  occ. eigenvalues --   -0.87347  -0.83223  -0.82537  -0.82305  -0.81484
 Alpha  occ. eigenvalues --   -0.81190  -0.80374  -0.78193  -0.77463  -0.76443
 Alpha  occ. eigenvalues --   -0.76228  -0.75043  -0.74426  -0.72431  -0.71292
 Alpha  occ. eigenvalues --   -0.70925  -0.69843  -0.69201  -0.67207  -0.65734
 Alpha  occ. eigenvalues --   -0.63961  -0.63124  -0.62192  -0.61439  -0.59526
 Alpha  occ. eigenvalues --   -0.59138  -0.58813  -0.58459  -0.56013  -0.54634
 Alpha  occ. eigenvalues --   -0.54070  -0.53356  -0.52666  -0.52493  -0.51528
 Alpha  occ. eigenvalues --   -0.50703  -0.50161  -0.49593  -0.49015  -0.48821
 Alpha  occ. eigenvalues --   -0.48524  -0.48266  -0.47303  -0.46951  -0.46526
 Alpha  occ. eigenvalues --   -0.46242  -0.45923  -0.45472  -0.45129  -0.44828
 Alpha  occ. eigenvalues --   -0.44425  -0.44240  -0.44060  -0.43760  -0.43405
 Alpha  occ. eigenvalues --   -0.43078  -0.42654  -0.42483  -0.42413  -0.41766
 Alpha  occ. eigenvalues --   -0.41425  -0.41017  -0.40585  -0.40406  -0.40225
 Alpha  occ. eigenvalues --   -0.39992  -0.39920  -0.39774  -0.39631  -0.39489
 Alpha  occ. eigenvalues --   -0.38732  -0.38646  -0.38283  -0.38010  -0.37631
 Alpha  occ. eigenvalues --   -0.37428  -0.36925  -0.36728  -0.36444  -0.35939
 Alpha  occ. eigenvalues --   -0.35785  -0.35620  -0.35365  -0.34350  -0.33788
 Alpha  occ. eigenvalues --   -0.33100  -0.32775  -0.32079  -0.31495  -0.31427
 Alpha  occ. eigenvalues --   -0.30658  -0.29402  -0.29125  -0.28258  -0.26868
 Alpha  occ. eigenvalues --   -0.25777  -0.25755  -0.25482  -0.25354  -0.20569
 Alpha  occ. eigenvalues --   -0.18597
 Alpha virt. eigenvalues --   -0.10975  -0.04720  -0.03310  -0.01773  -0.00236
 Alpha virt. eigenvalues --    0.00819   0.01407   0.02072   0.03784   0.04413
 Alpha virt. eigenvalues --    0.04936   0.05770   0.06210   0.06920   0.07293

 Mulliken charges:
               1
     1  Mg  11.998802
     2  C    6.023951
     3  C    5.993929
     4  C    5.982908
     5  C    6.007847
     6  N    7.010641
     7  C    5.968850
     8  C    6.015369
     9  C    5.986675
    10  C    6.027534
    11  C    5.999599
    12  C    6.002722
    13  C    5.998254
    14  H    1.000429
    15  N    6.996410
    16  C    6.038141
    17  C    6.016788
    18  C    6.017966
    19  C    6.027676
    20  C    5.995665
    21  C    6.015687
    22  O    8.029160
    23  C    5.991410
    24  N    6.998161
    25  C    6.033246
    26  C    5.988324
    27  C    6.009400
    28  C    5.969780
    29  C    5.999482
    30  C    6.006533
    31  C    5.998019
    32  N    6.999842
    33  C    5.968987
    34  C    5.971907
    35  C    6.000404
    36  C    5.961666
    37  C    6.000551
    38  C    5.980599
    39  O    7.971276
    40  C    5.994424
    41  C    6.000080
    42  O    7.991472
    43  O    7.999125
    44  C    6.001878
    45  H    1.009688
    46  H    1.004467
    47  H    0.989228
    48  H    0.995535
    49  H    1.004218
    50  H    1.000098
    51  H    1.011422
    52  H    0.994315
    53  H    0.998363
    54  H    1.004991
    55  H    0.993071
    56  H    0.997818
    57  H    1.016712
    58  H    1.016995
    59  H    1.018464
    60  H    1.010579
    61  H    1.006711
    62  H    1.014342
    63  H    0.999864
    64  H    1.000518
    65  H    1.008600
    66  H    1.000547
    67  H    0.995261
    68  H    1.005389
    69  H    0.991279
    70  H    0.997215
    71  H    0.999985
    72  H    0.993148
    73  H    0.986135
    74  H    0.983666
    75  H    0.980017
    76  H    0.991766
    77  H    0.997448
    78  H    0.996757
    79  H    0.993818
 Sum of Mulliken charges = 312.00000

 Dipole moment (field-independent basis, Debye):
    X=              6.6344    Y=             -8.0765    Z=              0.2587  Tot=             10.4552
 Quadrupole moment (field-independent basis, Debye-Ang):
   XX=              6.4050   YY=              0.6283   ZZ=             -0.3057
   XY=             -8.0906   XZ=              1.1468   YZ=              1.4724

 Normal termination of Gaussian 16 at Wed Oct 13 19:14:07 2021.
