 Gaussian 16, Revision A.03,
 Gaussian 16:  ES64L-G16RevA.03 25-Dec-2016

 --------------------------------------------------------
 #p PBE1PBE/Def2SVP td=(nstates=5) density=(transition=1)
 --------------------------------------------------------

 --------------------------------
 TDDFT excited states in gaussian
 --------------------------------
 Symbolic Z-matrix:
 Charge =  0 Multiplicity = 1

                         Standard orientation:
 ---------------------------------------------------------------------
 Center     Atomic      Atomic             Coordinates (Angstroms)
 Number     Number       Type             X           Y           Z
 ---------------------------------------------------------------------
      1         12           0        0.773841    0.080512   -0.281148
      2          6           0       -2.780040   -0.044711    0.137937
      3          6           0        0.905001   -3.314248    0.221150
      4          6           0        4.149347    0.163144   -0.197759
      5          6           0        0.545375    3.567538    0.198242
      6          7           0       -0.773603   -1.466728    0.116647
      7          6           0       -2.169832   -1.336686    0.181496
      8          6           0       -2.785947   -2.704105    0.330685
      9          6           0       -1.566103   -3.569458    0.860985
     10          6           0       -0.358632   -2.691273    0.419345
     11          6           0       -1.696998   -3.682464    2.421740
     12          6           0       -3.524508   -3.220281   -0.954394
     13          6           0       -4.791090   -3.821319   -0.602525
     14          1           0       -5.795125   -4.064846   -1.838378
     15          7           0        2.247233   -1.461113   -0.190959
     16          6           0        2.092328   -2.779949   -0.023712
     17          6           0        3.365297   -3.423418   -0.134649
     18          6           0        4.335393   -2.448689   -0.238039
     19          6           0        3.584487   -1.109659   -0.270838
     20          6           0        3.541298   -4.960527    0.078477
     21          6           0        5.859272   -2.609286   -0.415268
     22          8           0        6.551074   -1.623408   -0.452867
     23          6           0        6.473053   -3.972404   -0.631783
     24          7           0        2.134534    1.648342    0.243726
     25          6           0        3.493252    1.416894    0.059551
     26          6           0        4.251834    2.703878    0.034036
     27          6           0        3.093372    3.811514    0.139344
     28          6           0        1.831854    2.980669    0.131575
     29          6           0        5.319074    2.776409    1.073269
     30          6           0        3.072163    4.984241   -0.987288
     31          6           0        3.230342    6.383316   -0.539058
     32          7           0       -0.761864    1.531376    0.044476
     33          6           0       -0.659037    2.893050    0.219127
     34          6           0       -2.074401    3.456189    0.330731
     35          6           0       -2.942831    2.355210    0.189630
     36          6           0       -2.093173    1.199986    0.070865
     37          6           0       -2.405509    4.934483    0.576796
     38          6           0       -4.325338    1.995143    0.281794
     39          8           0       -5.341798    2.711086    0.426854
     40          6           0       -4.282190    0.418365    0.423881
     41          6           0       -5.397952   -0.111482   -0.526195
     42          8           0       -5.113288   -0.574302   -1.646020
     43          8           0       -6.599262   -0.057241    0.099648
     44          6           0       -7.677060   -0.376645   -0.898568
     45          1           0        0.940305   -4.404042    0.155629
     46          1           0        5.240635    0.216255   -0.189851
     47          1           0        0.366095    4.643218    0.252692
     48          1           0       -3.478702   -2.624868    1.168181
     49          1           0       -1.566581   -4.572074    0.434837
     50          1           0       -1.442052   -2.763267    2.948586
     51          1           0       -1.091343   -4.520562    2.763892
     52          1           0       -2.727710   -3.938242    2.668423
     53          1           0       -2.942863   -4.067325   -1.318913
     54          1           0       -3.588108   -2.452420   -1.725762
     55          1           0       -5.395252   -3.141734   -0.001243
     56          1           0       -4.575971   -4.768344   -0.106967
     57          1           0        4.041547   -5.275354   -0.837304
     58          1           0        2.611060   -5.522565    0.159998
     59          1           0        4.105897   -5.145064    0.992315
     60          1           0        7.560729   -3.903417   -0.652422
     61          1           0        6.018948   -4.156353   -1.605414
     62          1           0        6.120921   -4.631637    0.161584
     63          1           0        4.681887    2.703394   -0.967714
     64          1           0        3.222384    4.302552    1.103562
     65          1           0        6.248940    2.725219    0.508268
     66          1           0        5.346196    1.898395    1.718425
     67          1           0        5.287936    3.654047    1.719340
     68          1           0        2.053903    4.909064   -1.368759
     69          1           0        3.760032    4.692146   -1.779651
     70          1           0        2.338418    6.970230   -0.756845
     71          1           0        3.992725    6.658654   -1.266996
     72          1           0        3.644464    6.469911    0.466411
     73          1           0       -2.517441    5.033477    1.655925
     74          1           0       -3.327772    5.243729    0.085056
     75          1           0       -1.609718    5.549690    0.156803
     76          1           0       -4.522351    0.261233    1.474532
     77          1           0       -7.887823    0.416354   -1.615899
     78          1           0       -8.629689   -0.674560   -0.461775
     79          1           0       -7.341127   -1.279799   -1.408438
 ---------------------------------------------------------------------

 SCF Done:  E(RPBE1PBE) =  -2033.65693242     A.U. after   15 cycles

 Excitation energies and oscillator strengths:

 Excited State   1:      Singlet-A      1.8312 eV  677.06 nm  f=0.3469  <S**2>=0.000
     155 ->158         0.18203
     156 ->157         0.68927
 This state for optimization and/or second-order correction.
 Total Energy, E(TD-HF/TD-DFT) =  -2033.58963633
 Copying the excited state density for this state as the 1-particle RhoCI density.

 Excited State   2:      Singlet-A      2.2731 eV  545.45 nm  f=0.0125  <S**2>=0.000
     155 ->157         0.57936
     156 ->158        -0.39826

 Excited State   3:      Singlet-A      3.1276 eV  396.43 nm  f=0.4273  <S**2>=0.000
     154 ->157         0.16712
     155 ->157         0.34045
     156 ->158         0.51348
     156 ->159        -0.22971
     156 ->160         0.11695

 Excited State   4:      Singlet-A      3.1708 eV  391.02 nm  f=0.0661  <S**2>=0.000
     152 ->157         0.21796
     152 ->159        -0.10687
     153 ->157         0.40858
     153 ->159        -0.19275
     154 ->157        -0.36995
     155 ->157         0.10361
     156 ->158         0.14596
     156 ->159         0.20700

 Excited State   5:      Singlet-A      3.1974 eV  387.76 nm  f=0.0461  <S**2>=0.000
     153 ->157        -0.12279
     154 ->157         0.19904
     156 ->158         0.15212
     156 ->159         0.62316

 The electronic state is 1-A.
 Alpha  occ. eigenvalues --  -46.92809 -19.26846 -19.20074 -19.19469 -19.19175
 Alpha  occ. eigenvalues --  -14.41722 -14.41497 -14.38924 -14.38921 -10.36791
 Alpha  occ. eigenvalues --  -10.32602 -10.32215 -10.28905 -10.28885 -10.28848
 Alpha  occ. eigenvalues --  -10.28797 -10.28608 -10.28457 -10.27226 -10.26709
 Alpha  occ. eigenvalues --  -10.26661 -10.26481 -10.26307 -10.26205 -10.26088
 Alpha  occ. eigenvalues --  -10.25884 -10.25550 -10.25297 -10.25265 -10.25261
 Alpha  occ. eigenvalues --  -10.25229 -10.24791 -10.24164 -10.24082 -10.24041
 Alpha  occ. eigenvalues --  -10.23782 -10.23677 -10.23597 -10.23585 -10.22915
 Alpha  occ. eigenvalues --  -10.22796 -10.22718 -10.22510  -3.14731  -1.87565
 Alpha  occ. eigenvalues --   -1.87091  -1.86953  -1.10858  -1.06270  -1.02734
 Alpha  occ. eigenvalues --   -1.01979  -0.98569  -0.97581  -0.97368  -0.96253
 Alpha  occ. eigenvalues --   -0.85682  -0.83194  -0.82927  -0.82496  -0.81591
 Alpha  occ. eigenvalues --   -0.81510  -0.79942  -0.78683  -0.78148  -0.76864
 Alpha  occ. eigenvalues --   -0.76541  -0.75051  -0.74794  -0.72373  -0.71866
 Alpha  occ. eigenvalues --   -0.70919  -0.69820  -0.69237  -0.66598  -0.65965
 Alpha  occ. eigenvalues --   -0.63137  -0.62339  -0.61868  -0.60718  -0.59523
 Alpha  occ. eigenvalues --   -0.59359  -0.59009  -0.58817  -0.56693  -0.54405
 Alpha  occ. eigenvalues --   -0.53694  -0.53021  -0.52839  -0.52037  -0.51557
 Alpha  occ. eigenvalues --   -0.50513  -0.50034  -0.49666  -0.48915  -0.48581
 Alpha  occ. eigenvalues --   -0.48117  -0.48066  -0.47597  -0.47343  -0.47162
 Alpha  occ. eigenvalues --   -0.47041  -0.46490  -0.45617  -0.45215  -0.45054
 Alpha  occ. eigenvalues --   -0.44895  -0.44535  -0.44015  -0.43837  -0.43432
 Alpha  occ. eigenvalues --   -0.43313  -0.42841  -0.42580  -0.42494  -0.42148
 Alpha  occ. eigenvalues --   -0.41350  -0.41222  -0.41002  -0.40926  -0.40519
 Alpha  occ. eigenvalues --   -0.40170  -0.39497  -0.39276  -0.39097  -0.38787
 Alpha  occ. eigenvalues --   -0.38490  -0.38286  -0.37824  -0.37797  -0.37623
 Alpha  occ. eigenvalues --   -0.37269  -0.36872  -0.36833  -0.36405  -0.36050
 Alpha  occ. eigenvalues --   -0.35682  -0.35118  -0.34703  -0.33749  -0.33472
 Alpha  occ. eigenvalues --   -0.32963  -0.32273  -0.32098  -0.31979  -0.31170
 Alpha  occ. eigenvalues --   -0.29936  -0.29289  -0.28984  -0.28372  -0.27114
 Alpha  occ. eigenvalues --   -0.26002  -0.25961  -0.25484  -0.25083  -0.21063
 Alpha  occ. eigenvalues --   -0.17928
 Alpha virt. eigenvalues --   -0.10267  -0.05884  -0.04243  -0.01979  -0.00909
 Alpha virt. eigenvalues --    0.00468   0.01020   0.01667   0.03401   0.04384
 Alpha virt. eigenvalues --    0.04871   0.05710   0.05968   0.06901   0.06983

 Mulliken charges:
               1
     1  Mg  12.002472
     2  C    5.981117
     3  C    6.004153
     4  C    6.023705
     5  C    5.989979
     6  N    6.985500
     7  C    6.031798
     8  C    5.993318
     9  C    6.013212
    10  C    5.967644
    11  C    6.003393
    12  C    5.995485
    13  C    6.000565
    14  H    0.999613
    15  N    7.011526
    16  C    5.971674
    17  C    5.982020
    18  C    5.987118
    19  C    5.962715
    20  C    6.000170
    21  C    5.988009
    22  O    7.975863
    23  C    6.001146
    24  N    7.004004
    25  C    5.961205
    26  C    6.012400
    27  C    5.985946
    28  C    6.032613
    29  C    6.000857
    30  C    5.997957
    31  C    5.997943
    32  N    6.997616
    33  C    6.034678
    34  C    6.036137
    35  C    5.997222
    36  C    6.028351
    37  C    5.999551
    38  C    6.017434
    39  O    8.026255
    40  C    5.997808
    41  C    6.003674
    42  O    8.009396
    43  O    7.999355
    44  C    5.997862
    45  H    0.989016
    46  H    0.995315
    47  H    1.007909
    48  H    0.996331
    49  H    0.996691
    50  H    0.991859
    51  H    1.001201
    52  H    0.988057
    53  H    1.010770
    54  H    0.995973
    55  H    0.995228
    56  H    1.005505
    57  H    0.987550
    58  H    0.985367
    59  H    0.984861
    60  H    0.987021
    61  H    0.994654
    62  H    0.994798
    63  H    1.000620
    64  H    1.005263
    65  H    1.000475
    66  H    1.004350
    67  H    0.989983
    68  H    0.994709
    69  H    1.009755
    70  H    0.997416
    71  H    1.005396
    72  H    1.003818
    73  H    1.018806
    74  H    1.015720
    75  H    1.016499
    76  H    1.008011
    77  H    1.000803
    78  H    1.004828
    79  H    1.004982
 Sum of Mulliken charges = 312.00000

 Dipole moment (field-independent basis, Debye):
    X=             -7.0040    Y=              7.1285    Z=              0.1505  Tot=              9.9947
 Quadrupole moment (field-independent basis, Debye-Ang):
   XX=             -7.7543   YY=              2.0261   ZZ=             -0.1907
   XY=              5.3214   XZ=              0.7889   YZ=              1.4501

 Normal termination of Gaussian 16 at Wed Oct 13 19:25:14 2021.
