 Gaussian 16, Revision A.03,
 Gaussian 16:  ES64L-G16RevA.03 25-Dec-2016

 --------------------------------------------------------
 #p PBE1PBE/Def2SVP td=(nstates=5) density=(transition=1)
 --------------------------------------------------------

 --------------------------------
 TDDFT excited states in gaussian
 --------------------------------
 Symbolic Z-matrix:
 Charge =  0 Multiplicity = 1

                         Standard orientation:
 ---------------------------------------------------------------------
 Center     Atomic      Atomic             Coordinates (Angstroms)
 Number     Number       Type             X           Y           Z
 ---------------------------------------------------------------------
      1         12           0      -19.794813    0.680465    0.503381
      2          6           0      -18.872977   -2.263657   -1.321988
      3          6           0      -20.841859   -1.228892    2.960947
      4          6           0      -21.288888    3.411226    1.641412
      5          6           0      -18.896484    2.539716   -2.540454
      6          7           0      -19.800676   -1.499864    0.790464
      7          6           0      -19.414345   -2.540911   -0.077013
      8          6           0      -19.628444   -3.981565    0.523664
      9          6           0      -20.229796   -3.531784    1.992576
     10          6           0      -20.297904   -2.008179    1.961117
     11          6           0      -21.665556   -4.152220    2.272055
     12          6           0      -18.359676   -4.902952    0.558745
     13          6           0      -18.441910   -6.108671    1.487256
     14          1           0      -18.443860   -7.472009    0.771793
     15          7           0      -20.832476    1.054267    2.144405
     16          6           0      -21.191895    0.162118    3.127158
     17          6           0      -21.905821    0.797077    4.214806
     18          6           0      -22.011426    2.182857    3.797569
     19          6           0      -21.280774    2.265880    2.482938
     20          6           0      -22.335877    0.174364    5.458855
     21          6           0      -22.646121    3.368996    4.502632
     22          8           0      -22.570628    4.500918    4.114338
     23          6           0      -23.474461    3.014515    5.708926
     24          7           0      -20.112779    2.685327   -0.362388
     25          6           0      -20.749311    3.633908    0.369816
     26          6           0      -20.734303    5.003067   -0.361134
     27          6           0      -19.846559    4.702010   -1.618437
     28          6           0      -19.545646    3.221114   -1.490421
     29          6           0      -22.107880    5.654166   -0.740545
     30          6           0      -18.515172    5.524385   -1.738130
     31          6           0      -18.732572    6.972990   -2.228523
     32          7           0      -19.074706    0.307336   -1.507339
     33          6           0      -18.699790    1.123052   -2.549957
     34          6           0      -18.124945    0.333622   -3.565405
     35          6           0      -18.204429   -0.958067   -3.201037
     36          6           0      -18.823042   -0.974294   -1.914236
     37          6           0      -17.484308    0.969761   -4.792127
     38          6           0      -17.996299   -2.369572   -3.539580
     39          8           0      -17.545882   -2.878110   -4.533627
     40          6           0      -18.463333   -3.268894   -2.297804
     41          6           0      -19.686903   -4.014277   -2.726341
     42          8           0      -20.859883   -3.716074   -2.711221
     43          8           0      -19.217747   -5.243783   -3.144471
     44          6           0      -20.224785   -6.223971   -3.616013
     45          1           0      -21.264683   -1.779585    3.803666
     46          1           0      -21.923137    4.227099    1.996346
     47          1           0      -18.583020    3.245192   -3.313455
     48          1           0      -20.457426   -4.442914   -0.013291
     49          1           0      -19.563218   -3.924875    2.760560
     50          1           0      -21.702492   -4.530101    3.293673
     51          1           0      -22.050893   -4.919654    1.601273
     52          1           0      -22.418587   -3.365002    2.291842
     53          1           0      -17.602489   -4.163236    0.821967
     54          1           0      -17.969524   -5.285080   -0.384834
     55          1           0      -19.355169   -6.040449    2.077690
     56          1           0      -17.524301   -6.159281    2.072721
     57          1           0      -21.701051    0.720491    6.156560
     58          1           0      -22.174381   -0.903470    5.435834
     59          1           0      -23.368344    0.321713    5.775068
     60          1           0      -22.858121    3.093055    6.604402
     61          1           0      -24.168157    2.191047    5.536799
     62          1           0      -24.289629    3.736013    5.661497
     63          1           0      -20.064110    5.628387    0.229465
     64          1           0      -20.469195    4.756126   -2.511740
     65          1           0      -22.272193    5.853255   -1.799935
     66          1           0      -22.072447    6.657683   -0.317104
     67          1           0      -22.991314    5.110788   -0.405324
     68          1           0      -17.858300    5.041643   -2.460852
     69          1           0      -18.058552    5.461173   -0.749424
     70          1           0      -19.682634    7.057512   -2.756458
     71          1           0      -17.869132    7.207708   -2.850890
     72          1           0      -18.812007    7.708674   -1.427615
     73          1           0      -16.711007    0.326106   -5.211574
     74          1           0      -17.090724    1.947519   -4.514125
     75          1           0      -18.245398    1.214805   -5.533267
     76          1           0      -17.669276   -3.935922   -1.961333
     77          1           0      -19.771628   -6.713770   -4.477808
     78          1           0      -21.179495   -5.783954   -3.903751
     79          1           0      -20.274098   -6.861131   -2.732463
     80         12           0       20.449317    0.662056   -0.037400
     81          6           0       18.280850   -2.217435   -0.164280
     82          6           0       22.875728   -1.453522    1.353350
     83          6           0       22.479678    3.242237   -0.023276
     84          6           0       17.795412    2.652497   -1.140151
     85          7           0       20.499475   -1.626322    0.543724
     86          6           0       19.611368   -2.598555    0.207154
     87          6           0       20.196272   -3.990248    0.384701
     88          6           0       21.573650   -3.733917    1.216718
     89          6           0       21.655538   -2.187940    1.059921
     90          6           0       21.576155   -4.285630    2.664406
     91          6           0       20.418801   -4.731059   -0.977011
     92          6           0       19.694329   -6.098521   -1.076323
     93          1           0       20.710387   -7.373549   -1.212069
     94          7           0       22.349276    0.856685    0.555493
     95          6           0       23.243928   -0.096953    1.149066
     96          6           0       24.585590    0.459019    1.444627
     97          6           0       24.446833    1.806957    0.977371
     98          6           0       23.074261    2.006142    0.482645
     99          6           0       25.730761   -0.312997    2.103072
    100          6           0       25.432150    2.910926    1.045445
    101          8           0       25.361294    3.970477    0.432186
    102          6           0       26.729624    2.670484    1.841975
    103          7           0       20.209364    2.580718   -0.670804
    104          6           0       21.198225    3.493785   -0.536662
    105          6           0       20.731415    4.903604   -0.770807
    106          6           0       19.244992    4.753113   -1.178129
    107          6           0       19.048632    3.225411   -1.053051
    108          6           0       21.005744    5.860229    0.370572
    109          6           0       19.015595    5.251990   -2.723951
    110          6           0       17.857333    6.370320   -2.938510
    111          7           0       18.359348    0.375150   -0.303652
    112          6           0       17.435473    1.302163   -0.843418
    113          6           0       16.166320    0.595883   -1.052130
    114          6           0       16.528066   -0.771193   -0.925932
    115          6           0       17.803784   -0.837769   -0.363717
    116          6           0       14.785914    1.144215   -1.400907
    117          6           0       15.911417   -2.127184   -0.883470
    118          8           0       14.751444   -2.593545   -1.057867
    119          6           0       17.094775   -3.099246   -0.504457
    120          6           0       16.660506   -3.946306    0.655173
    121          8           0       16.084314   -3.527870    1.619178
    122          8           0       16.916298   -5.261293    0.381633
    123          6           0       16.216862   -6.182057    1.313050
    124          1           0       23.543596   -2.118781    1.904190
    125          1           0       23.103520    4.138642   -0.041282
    126          1           0       16.962684    3.246986   -1.521104
    127          1           0       19.505948   -4.523893    1.038033
    128          1           0       22.451354   -4.126036    0.702228
    129          1           0       21.630053   -3.473139    3.389606
    130          1           0       22.413633   -4.969123    2.810222
    131          1           0       20.736030   -4.927085    2.930646
    132          1           0       21.474768   -4.932592   -1.158927
    133          1           0       20.052389   -4.143078   -1.818932
    134          1           0       19.142610   -6.223894   -2.008347
    135          1           0       18.946322   -6.285047   -0.306383
    136          1           0       25.663143   -1.401343    2.097553
    137          1           0       25.974039   -0.012973    3.122288
    138          1           0       26.611188   -0.061407    1.510899
    139          1           0       26.501254    2.479014    2.890408
    140          1           0       27.439416    3.491651    1.736516
    141          1           0       27.215594    1.787718    1.426487
    142          1           0       21.335708    5.326842   -1.574319
    143          1           0       18.588199    5.263311   -0.474173
    144          1           0       21.801783    6.574280    0.157719
    145          1           0       21.363475    5.394358    1.288702
    146          1           0       20.073652    6.373872    0.607014
    147          1           0       18.771798    4.447671   -3.417256
    148          1           0       19.909842    5.702798   -3.153485
    149          1           0       17.723288    6.838820   -1.963303
    150          1           0       16.926825    5.927900   -3.296582
    151          1           0       18.207489    7.189355   -3.566200
    152          1           0       14.206970    0.447106   -2.006370
    153          1           0       14.934462    1.989609   -2.073735
    154          1           0       14.400220    1.484756   -0.439876
    155          1           0       17.191690   -3.783255   -1.347188
    156          1           0       16.485343   -5.883352    2.326177
    157          1           0       16.702678   -7.140565    1.131101
    158          1           0       15.128205   -6.232382    1.295194
 ---------------------------------------------------------------------

 SCF Done:  E(RPBE1PBE) =  -4067.37683233     A.U. after   16 cycles

 Excitation energies and oscillator strengths:

 Excited State   1:      Singlet-A      1.8271 eV  678.60 nm  f=0.3571  <S**2>=0.000
     309 -> 315        0.18283
     311 -> 313        0.69131
     311 <- 313       -0.10666
 This state for optimization and/or second-order correction.
 Total Energy, E(TD-HF/TD-DFT) =  -4067.30968875
 Copying the excited state density for this state as the 1-particle RhoCI density.

 Excited State   2:      Singlet-A      1.8592 eV  666.86 nm  f=0.0000  <S**2>=0.000
     312 -> 313        0.70710

 Excited State   3:      Singlet-A      2.0831 eV  595.18 nm  f=0.0000  <S**2>=0.000
     311 -> 314        0.70711

 Excited State   4:      Singlet-A      2.1728 eV  570.63 nm  f=0.1311  <S**2>=0.000
     309 -> 313        0.65738
     311 -> 315       -0.25557

 Excited State   5:      Singlet-A      2.3957 eV  517.52 nm  f=0.0000  <S**2>=0.000
     310 -> 313        0.70710

 The electronic state is 1-A.
 Alpha  occ. eigenvalues --  -46.91973 -46.91956 -19.26299 -19.24457 -19.20044
 Alpha  occ. eigenvalues --  -19.19964 -19.19254 -19.19142 -19.19063 -19.19042
 Alpha  occ. eigenvalues --  -14.41960 -14.41669 -14.41596 -14.40837 -14.40312
 Alpha  occ. eigenvalues --  -14.39242 -14.39018 -14.38482 -10.35899 -10.35848
 Alpha  occ. eigenvalues --  -10.32434 -10.32374 -10.32118 -10.31866 -10.29454
 Alpha  occ. eigenvalues --  -10.29152 -10.29096 -10.29088 -10.29046 -10.28696
 Alpha  occ. eigenvalues --  -10.28640 -10.28572 -10.28487 -10.28374 -10.28092
 Alpha  occ. eigenvalues --  -10.28080 -10.27945 -10.27927 -10.27826 -10.27789
 Alpha  occ. eigenvalues --  -10.26878 -10.26852 -10.26832 -10.26803 -10.26760
 Alpha  occ. eigenvalues --  -10.26705 -10.26652 -10.26452 -10.26428 -10.26410
 Alpha  occ. eigenvalues --  -10.26402 -10.26159 -10.25922 -10.25802 -10.25681
 Alpha  occ. eigenvalues --  -10.25616 -10.25476 -10.25468 -10.25308 -10.25007
 Alpha  occ. eigenvalues --  -10.24973 -10.24942 -10.24723 -10.24675 -10.24663
 Alpha  occ. eigenvalues --  -10.24557 -10.24556 -10.24403 -10.24396 -10.24396
 Alpha  occ. eigenvalues --  -10.24359 -10.24346 -10.24005 -10.23918 -10.23686
 Alpha  occ. eigenvalues --  -10.23623 -10.23437 -10.23357 -10.23228 -10.23223
 Alpha  occ. eigenvalues --  -10.23091 -10.22999 -10.22994 -10.22980 -10.22977
 Alpha  occ. eigenvalues --  -10.22358  -3.14192  -3.14077  -1.87031  -1.86914
 Alpha  occ. eigenvalues --   -1.86566  -1.86436  -1.86432  -1.86324  -1.11731
 Alpha  occ. eigenvalues --   -1.10371  -1.06102  -1.05488  -1.04570  -1.03515
 Alpha  occ. eigenvalues --   -1.02216  -1.01898  -0.98663  -0.98436  -0.97959
 Alpha  occ. eigenvalues --   -0.97859  -0.97257  -0.97096  -0.96634  -0.96169
 Alpha  occ. eigenvalues --   -0.87313  -0.85951  -0.83191  -0.82903  -0.82774
 Alpha  occ. eigenvalues --   -0.82504  -0.82337  -0.82270  -0.81720  -0.81451
 Alpha  occ. eigenvalues --   -0.81246  -0.81157  -0.80341  -0.80087  -0.78249
 Alpha  occ. eigenvalues --   -0.78160  -0.77488  -0.77430  -0.76410  -0.76196
 Alpha  occ. eigenvalues --   -0.76083  -0.75498  -0.75011  -0.75010  -0.74393
 Alpha  occ. eigenvalues --   -0.73980  -0.73267  -0.72399  -0.71481  -0.71260
 Alpha  occ. eigenvalues --   -0.71117  -0.70891  -0.70331  -0.69810  -0.69595
 Alpha  occ. eigenvalues --   -0.69169  -0.67173  -0.67046  -0.65857  -0.65701
 Alpha  occ. eigenvalues --   -0.63928  -0.63496  -0.63165  -0.63092  -0.62158
 Alpha  occ. eigenvalues --   -0.61972  -0.61525  -0.61406  -0.60383  -0.60026
 Alpha  occ. eigenvalues --   -0.59493  -0.59106  -0.59000  -0.58779  -0.58568
 Alpha  occ. eigenvalues --   -0.58425  -0.56958  -0.55980  -0.55291  -0.54601
 Alpha  occ. eigenvalues --   -0.54037  -0.53870  -0.53327  -0.53322  -0.52961
 Alpha  occ. eigenvalues --   -0.52632  -0.52481  -0.52460  -0.51740  -0.51495
 Alpha  occ. eigenvalues --   -0.50700  -0.50670  -0.50127  -0.49882  -0.49560
 Alpha  occ. eigenvalues --   -0.49485  -0.49074  -0.48983  -0.48787  -0.48493
 Alpha  occ. eigenvalues --   -0.48401  -0.48232  -0.47970  -0.47284  -0.47270
 Alpha  occ. eigenvalues --   -0.46918  -0.46906  -0.46666  -0.46494  -0.46284
 Alpha  occ. eigenvalues --   -0.46209  -0.46055  -0.46004  -0.45891  -0.45464
 Alpha  occ. eigenvalues --   -0.45438  -0.45095  -0.45092  -0.44795  -0.44710
 Alpha  occ. eigenvalues --   -0.44543  -0.44392  -0.44367  -0.44206  -0.44028
 Alpha  occ. eigenvalues --   -0.43909  -0.43731  -0.43727  -0.43372  -0.43282
 Alpha  occ. eigenvalues --   -0.43045  -0.42959  -0.42805  -0.42646  -0.42621
 Alpha  occ. eigenvalues --   -0.42451  -0.42381  -0.42277  -0.42075  -0.41734
 Alpha  occ. eigenvalues --   -0.41706  -0.41585  -0.41393  -0.41219  -0.40984
 Alpha  occ. eigenvalues --   -0.40935  -0.40730  -0.40551  -0.40372  -0.40337
 Alpha  occ. eigenvalues --   -0.40193  -0.39958  -0.39886  -0.39747  -0.39740
 Alpha  occ. eigenvalues --   -0.39651  -0.39597  -0.39521  -0.39455  -0.39251
 Alpha  occ. eigenvalues --   -0.38905  -0.38753  -0.38699  -0.38614  -0.38466
 Alpha  occ. eigenvalues --   -0.38251  -0.38111  -0.37977  -0.37698  -0.37598
 Alpha  occ. eigenvalues --   -0.37458  -0.37394  -0.37101  -0.36891  -0.36774
 Alpha  occ. eigenvalues --   -0.36694  -0.36411  -0.36401  -0.36154  -0.35907
 Alpha  occ. eigenvalues --   -0.35752  -0.35687  -0.35601  -0.35587  -0.35372
 Alpha  occ. eigenvalues --   -0.35333  -0.35143  -0.34470  -0.34318  -0.33754
 Alpha  occ. eigenvalues --   -0.33572  -0.33253  -0.33068  -0.32741  -0.32517
 Alpha  occ. eigenvalues --   -0.32256  -0.32045  -0.31461  -0.31457  -0.31393
 Alpha  occ. eigenvalues --   -0.30648  -0.30624  -0.29759  -0.29371  -0.29369
 Alpha  occ. eigenvalues --   -0.29092  -0.28589  -0.28225  -0.27142  -0.26835
 Alpha  occ. eigenvalues --   -0.26002  -0.25746  -0.25722  -0.25699  -0.25571
 Alpha  occ. eigenvalues --   -0.25447  -0.25321  -0.25018  -0.20850  -0.20535
 Alpha  occ. eigenvalues --   -0.18927  -0.18563
 Alpha virt. eigenvalues --   -0.11404  -0.10942  -0.05322  -0.04687  -0.04076
 Alpha virt. eigenvalues --   -0.03276  -0.02382  -0.01740  -0.00200  -0.00009
 Alpha virt. eigenvalues --    0.00693   0.00854   0.01004   0.01282   0.01441

 Mulliken charges:
               1
     1  Mg  11.999932
     2  C    6.000394
     3  C    5.999825
     4  C    5.999698
     5  C    6.000183
     6  N    7.000166
     7  C    5.999422
     8  C    6.000285
     9  C    5.999749
    10  C    6.000518
    11  C    5.999972
    12  C    6.000052
    13  C    5.999986
    14  H    1.000026
    15  N    6.999947
    16  C    6.000738
    17  C    6.000328
    18  C    6.000388
    19  C    6.000478
    20  C    5.999857
    21  C    6.000282
    22  O    8.000578
    23  C    5.999801
    24  N    6.999982
    25  C    6.000590
    26  C    5.999796
    27  C    6.000187
    28  C    5.999393
    29  C    5.999976
    30  C    6.000117
    31  C    5.999971
    32  N    6.999969
    33  C    5.999410
    34  C    5.999480
    35  C    5.999965
    36  C    5.999338
    37  C    6.000069
    38  C    5.999595
    39  O    7.999414
    40  C    5.999926
    41  C    6.000014
    42  O    7.999890
    43  O    7.999952
    44  C    6.000030
    45  H    1.000216
    46  H    1.000128
    47  H    0.999777
    48  H    0.999951
    49  H    1.000064
    50  H    1.000032
    51  H    1.000248
    52  H    0.999935
    53  H    0.999903
    54  H    1.000067
    55  H    0.999922
    56  H    0.999896
    57  H    1.000318
    58  H    1.000336
    59  H    1.000419
    60  H    1.000214
    61  H    1.000167
    62  H    1.000336
    63  H    0.999988
    64  H    1.000037
    65  H    1.000190
    66  H    1.000039
    67  H    0.999961
    68  H    1.000039
    69  H    0.999796
    70  H    1.000005
    71  H    0.999936
    72  H    0.999894
    73  H    0.999653
    74  H    0.999626
    75  H    0.999654
    76  H    0.999765
    77  H    0.999935
    78  H    0.999988
    79  H    0.999897
    80  Mg  12.004008
    81  C    5.975366
    82  C    5.997425
    83  C    6.029397
    84  C    5.997539
    85  N    6.982719
    86  C    6.032404
    87  C    5.990291
    88  C    6.011092
    89  C    5.972805
    90  C    6.002399
    91  C    5.998824
    92  C    5.997952
    93  H    1.006398
    94  N    7.002786
    95  C    5.969413
    96  C    5.975987
    97  C    5.987289
    98  C    5.973820
    99  C    6.003243
   100  C    5.988502
   101  O    7.968596
   102  C    6.003931
   103  N    7.008605
   104  C    5.964030
   105  C    6.008566
   106  C    5.989444
   107  C    6.028700
   108  C    6.000602
   109  C    5.995485
   110  C    5.999250
   111  N    6.998089
   112  C    6.036790
   113  C    6.030342
   114  C    6.002251
   115  C    6.028386
   116  C    6.001378
   117  C    6.011702
   118  O    8.029054
   119  C    6.003554
   120  C    6.006953
   121  O    7.999988
   122  O    8.001688
   123  C    5.998348
   124  H    0.986938
   125  H    0.998379
   126  H    1.012319
   127  H    0.997468
   128  H    0.999219
   129  H    1.000563
   130  H    0.996605
   131  H    0.987167
   132  H    1.007969
   133  H    0.995401
   134  H    0.997031
   135  H    0.998132
   136  H    0.985365
   137  H    0.981840
   138  H    0.985267
   139  H    0.992674
   140  H    0.986341
   141  H    0.994978
   142  H    1.001740
   143  H    1.003313
   144  H    1.002682
   145  H    1.005490
   146  H    0.991340
   147  H    0.999186
   148  H    1.011584
   149  H    1.003729
   150  H    0.997501
   151  H    1.006046
   152  H    1.013874
   153  H    1.014992
   154  H    1.015861
   155  H    1.004466
   156  H    1.004329
   157  H    1.004756
   158  H    1.000066
 Sum of Mulliken charges = 624.00000

 Dipole moment (field-independent basis, Debye):
    X=             -9.7320    Y=             -0.0896    Z=             -2.8908  Tot=             10.1527
 Quadrupole moment (field-independent basis, Debye-Ang):
   XX=           -390.1722   YY=              2.5582   ZZ=             -0.8081
   XY=             -9.5957   XZ=            -68.2638   YZ=             -1.7206

 Normal termination of Gaussian 16 at Thu Oct 14 13:40:35 2021.
