 Gaussian 16, Revision A.03,
 Gaussian 16:  ES64L-G16RevA.03 25-Dec-2016

 --------------------------------------------------------
 #p PBE1PBE/Def2SVP td=(nstates=5) density=(transition=1)
 --------------------------------------------------------

 --------------------------------
 TDDFT excited states in gaussian
 --------------------------------
 Symbolic Z-matrix:
 Charge =  0 Multiplicity = 1

                         Standard orientation:
 ---------------------------------------------------------------------
 Center     Atomic      Atomic             Coordinates (Angstroms)
 Number     Number       Type             X           Y           Z
 ---------------------------------------------------------------------
      1         12           0      -29.303394   -0.212419    0.007319
      2          6           0      -26.058731    0.039347   -0.992065
      3          6           0      -28.184160   -2.102874    2.691110
      4          6           0      -32.444218   -0.135094    1.191314
      5          6           0      -30.233351    2.241073   -2.338172
      6          7           0      -27.293023   -0.725066    0.894771
      7          6           0      -26.131864   -0.526872    0.239176
      8          6           0      -24.951523   -0.966541    1.025855
      9          6           0      -25.708426   -2.015207    2.055369
     10          6           0      -27.188043   -1.608294    1.892026
     11          6           0      -25.395002   -3.507009    1.737114
     12          6           0      -24.345409    0.224402    1.751143
     13          6           0      -25.269733    1.108118    2.710522
     14          1           0      -24.729011    1.629547    4.036089
     15          7           0      -30.195952   -0.997692    1.692009
     16          6           0      -29.593310   -1.877136    2.626717
     17          6           0      -30.636778   -2.387767    3.451690
     18          6           0      -31.857923   -1.824308    3.102887
     19          6           0      -31.585876   -0.970891    1.934020
     20          6           0      -30.267777   -3.388431    4.527934
     21          6           0      -33.181498   -1.982952    3.812259
     22          8           0      -33.168706   -2.722782    4.827496
     23          6           0      -34.362042   -1.225126    3.565175
     24          7           0      -31.027484    1.075075   -0.383997
     25          6           0      -32.231887    0.840068    0.211394
     26          6           0      -33.320165    1.800124   -0.325863
     27          6           0      -32.567681    2.558889   -1.470428
     28          6           0      -31.165567    1.985340   -1.354156
     29          6           0      -34.581716    1.093463   -0.773829
     30          6           0      -32.644076    4.164173   -1.258857
     31          6           0      -32.898366    4.953108   -2.548392
     32          7           0      -28.379554    0.977895   -1.455276
     33          6           0      -28.875815    1.757461   -2.450586
     34          6           0      -27.801894    1.983586   -3.379259
     35          6           0      -26.627315    1.299924   -2.909722
     36          6           0      -27.042814    0.729330   -1.717986
     37          6           0      -27.816419    2.983063   -4.484747
     38          6           0      -25.234675    1.029061   -3.068562
     39          8           0      -24.553432    1.404633   -4.030960
     40          6           0      -24.836828    0.187070   -1.870380
     41          6           0      -24.298646   -1.105531   -2.359599
     42          8           0      -23.353023   -1.103311   -3.122988
     43          8           0      -24.886462   -2.207036   -1.816703
     44          6           0      -24.347821   -3.489247   -2.274651
     45          1           0      -27.879343   -2.909582    3.360835
     46          1           0      -33.492989   -0.307267    1.441411
     47          1           0      -30.478824    2.862896   -3.201985
     48          1           0      -24.123357   -1.434893    0.493887
     49          1           0      -25.292114   -1.940683    3.060818
     50          1           0      -24.944668   -3.986112    2.605691
     51          1           0      -24.655083   -3.509014    0.936289
     52          1           0      -26.251601   -4.090281    1.396789
     53          1           0      -23.840016    0.830451    0.998943
     54          1           0      -23.480568   -0.224185    2.239791
     55          1           0      -26.198220    0.639081    3.036392
     56          1           0      -25.436922    1.992438    2.096292
     57          1           0      -29.954347   -2.789510    5.383217
     58          1           0      -29.411210   -3.970068    4.189508
     59          1           0      -31.048520   -4.088081    4.827818
     60          1           0      -34.966749   -1.111825    4.465503
     61          1           0      -34.927781   -1.567912    2.697880
     62          1           0      -34.005874   -0.209359    3.398972
     63          1           0      -33.504719    2.460091    0.522492
     64          1           0      -32.944571    2.222230   -2.436008
     65          1           0      -34.591509    0.024984   -0.560179
     66          1           0      -34.987305    1.239502   -1.774601
     67          1           0      -35.313588    1.437495   -0.042419
     68          1           0      -31.744819    4.594618   -0.818103
     69          1           0      -33.397151    4.444503   -0.522597
     70          1           0      -33.921801    5.326004   -2.518484
     71          1           0      -32.863681    4.255678   -3.385615
     72          1           0      -32.209397    5.787565   -2.680084
     73          1           0      -28.463096    2.781433   -5.337860
     74          1           0      -26.777698    3.063995   -4.807287
     75          1           0      -28.149706    3.964228   -4.146439
     76          1           0      -24.043503    0.737978   -1.364326
     77          1           0      -23.280771   -3.500113   -2.050573
     78          1           0      -24.557240   -3.698145   -3.323871
     79          1           0      -24.889237   -4.317965   -1.818604
     80         12           0       28.563531    0.548940    0.555858
     81          6           0       28.895195   -2.621552   -0.884152
     82          6           0       26.914711    1.599535   -2.079932
     83          6           0       28.932620    3.779670    1.664892
     84          6           0       30.762835   -0.434877    3.136687
     85          7           0       27.918865   -0.457593   -1.179834
     86          6           0       28.078124   -1.763329   -1.588994
     87          6           0       27.243456   -2.074503   -2.824595
     88          6           0       26.820477   -0.642441   -3.284398
     89          6           0       27.133586    0.192687   -2.091963
     90          6           0       27.328628   -0.098009   -4.601931
     91          6           0       26.080197   -3.091081   -2.592994
     92          6           0       25.252712   -3.430443   -3.837531
     93          1           0       25.079825   -4.911532   -4.140821
     94          7           0       28.022520    2.529786   -0.189108
     95          6           0       27.204113    2.706457   -1.247275
     96          6           0       26.852427    4.095896   -1.345960
     97          6           0       27.529767    4.765910   -0.312610
     98          6           0       28.215523    3.676624    0.434420
     99          6           0       25.967821    4.667252   -2.433890
    100          6           0       27.505980    6.210227    0.067315
    101          8           0       28.248871    6.768968    0.918068
    102          6           0       26.485047    7.149911   -0.562497
    103          7           0       29.692034    1.508247    2.124540
    104          6           0       29.719369    2.847387    2.318453
    105          6           0       30.479366    3.178811    3.713404
    106          6           0       30.621191    1.752684    4.352177
    107          6           0       30.286352    0.863635    3.197774
    108          6           0       31.840442    3.913081    3.396149
    109          6           0       29.514186    1.516414    5.443613
    110          6           0       28.056355    1.771037    5.093395
    111          7           0       29.619779   -1.230191    1.115838
    112          6           0       30.447652   -1.429370    2.186365
    113          6           0       30.882092   -2.747219    2.124614
    114          6           0       30.352863   -3.325930    0.935277
    115          6           0       29.585015   -2.354411    0.348956
    116          6           0       31.829832   -3.463830    3.020486
    117          6           0       30.278103   -4.510989    0.050952
    118          8           0       30.811479   -5.614375    0.070944
    119          6           0       29.229190   -4.112913   -1.126265
    120          6           0       29.763637   -4.507400   -2.456876
    121          8           0       30.985550   -4.462055   -2.788254
    122          8           0       28.760823   -5.058206   -3.127524
    123          6           0       29.179724   -5.902855   -4.229686
    124          1           0       26.266641    1.974009   -2.875213
    125          1           0       29.030189    4.796952    2.051421
    126          1           0       31.332733   -0.739183    4.015971
    127          1           0       27.932722   -2.607568   -3.479742
    128          1           0       25.740847   -0.532210   -3.391774
    129          1           0       27.695365   -0.825146   -5.326388
    130          1           0       28.097950    0.649130   -4.405086
    131          1           0       26.561449    0.577115   -4.981585
    132          1           0       25.428475   -2.726604   -1.798529
    133          1           0       26.494494   -4.019391   -2.201033
    134          1           0       25.819078   -3.251099   -4.751233
    135          1           0       24.302596   -2.895425   -3.839994
    136          1           0       25.706604    3.966845   -3.227084
    137          1           0       26.423193    5.431567   -3.063147
    138          1           0       25.032124    5.083071   -2.058902
    139          1           0       26.751112    7.275760   -1.611641
    140          1           0       26.620650    8.179745   -0.232888
    141          1           0       25.452617    6.855910   -0.369983
    142          1           0       29.877447    3.872063    4.300959
    143          1           0       31.671834    1.675409    4.631886
    144          1           0       31.910567    4.275595    2.370441
    145          1           0       32.724892    3.289356    3.526846
    146          1           0       31.991844    4.820811    3.978508
    147          1           0       29.871560    2.216803    6.198560
    148          1           0       29.522492    0.523973    5.893258
    149          1           0       27.985946    2.300611    4.143050
    150          1           0       27.446841    2.240639    5.864684
    151          1           0       27.648666    0.760895    5.053816
    152          1           0       31.559764   -3.433975    4.076375
    153          1           0       32.772542   -2.927204    2.917549
    154          1           0       31.995228   -4.496511    2.715097
    155          1           0       28.360292   -4.735610   -0.914840
    156          1           0       28.589435   -6.819952   -4.242337
    157          1           0       30.215081   -6.242340   -4.211934
    158          1           0       28.973713   -5.332735   -5.136156
 ---------------------------------------------------------------------

 SCF Done:  E(RPBE1PBE) =  -4067.38624050     A.U. after   16 cycles

 Excitation energies and oscillator strengths:

 Excited State   1:      Singlet-A      1.8527 eV  669.22 nm  f=0.3744  <S**2>=0.000
     310 -> 316       -0.15628
     311 -> 313        0.69628
     311 <- 313       -0.11164
 This state for optimization and/or second-order correction.
 Total Energy, E(TD-HF/TD-DFT) =  -4067.31815621
 Copying the excited state density for this state as the 1-particle RhoCI density.

 Excited State   2:      Singlet-A      1.8908 eV  655.72 nm  f=0.3804  <S**2>=0.000
     309 -> 315       -0.16979
     312 -> 314        0.69197
     312 <- 314       -0.10820

 Excited State   3:      Singlet-A      1.9835 eV  625.06 nm  f=0.0000  <S**2>=0.000
     312 -> 313        0.70711

 Excited State   4:      Singlet-A      2.0411 eV  607.43 nm  f=0.0000  <S**2>=0.000
     311 -> 314        0.70711

 Excited State   5:      Singlet-A      2.2081 eV  561.51 nm  f=0.1163  <S**2>=0.000
     309 -> 314        0.66028
     312 -> 315        0.22062

 The electronic state is 1-A.
 Alpha  occ. eigenvalues --  -46.92771 -46.92494 -19.27347 -19.27078 -19.19779
 Alpha  occ. eigenvalues --  -19.19421 -19.19111 -19.18918 -19.18704 -19.18270
 Alpha  occ. eigenvalues --  -14.42348 -14.41593 -14.41504 -14.41386 -14.39406
 Alpha  occ. eigenvalues --  -14.39247 -14.38404 -14.37879 -10.36538 -10.36326
 Alpha  occ. eigenvalues --  -10.32668 -10.32214 -10.31841 -10.31751 -10.29999
 Alpha  occ. eigenvalues --  -10.29607 -10.29282 -10.29261 -10.28874 -10.28760
 Alpha  occ. eigenvalues --  -10.28704 -10.28703 -10.28349 -10.28182 -10.28047
 Alpha  occ. eigenvalues --  -10.28038 -10.27984 -10.27892 -10.27158 -10.27068
 Alpha  occ. eigenvalues --  -10.26773 -10.26603 -10.26357 -10.26281 -10.26269
 Alpha  occ. eigenvalues --  -10.26238 -10.26232 -10.26168 -10.26153 -10.26099
 Alpha  occ. eigenvalues --  -10.26090 -10.25998 -10.25899 -10.25832 -10.25715
 Alpha  occ. eigenvalues --  -10.25712 -10.25678 -10.25622 -10.25566 -10.25227
 Alpha  occ. eigenvalues --  -10.25000 -10.24992 -10.24929 -10.24926 -10.24908
 Alpha  occ. eigenvalues --  -10.24891 -10.24700 -10.24694 -10.24527 -10.24509
 Alpha  occ. eigenvalues --  -10.24226 -10.24220 -10.24005 -10.23886 -10.23807
 Alpha  occ. eigenvalues --  -10.23747 -10.23679 -10.23213 -10.23146 -10.23100
 Alpha  occ. eigenvalues --  -10.22877 -10.22869 -10.22587 -10.22540 -10.22485
 Alpha  occ. eigenvalues --  -10.22297  -3.14743  -3.14530  -1.87592  -1.87345
 Alpha  occ. eigenvalues --   -1.87087  -1.86980  -1.86922  -1.86734  -1.12971
 Alpha  occ. eigenvalues --   -1.12233  -1.03919  -1.03750  -1.02976  -1.02909
 Alpha  occ. eigenvalues --   -1.02848  -1.00794  -0.99902  -0.99583  -0.99165
 Alpha  occ. eigenvalues --   -0.98945  -0.98105  -0.97573  -0.97223  -0.96000
 Alpha  occ. eigenvalues --   -0.88562  -0.86302  -0.83838  -0.83568  -0.83552
 Alpha  occ. eigenvalues --   -0.83340  -0.83064  -0.82603  -0.82151  -0.82109
 Alpha  occ. eigenvalues --   -0.81451  -0.80541  -0.80228  -0.80200  -0.79416
 Alpha  occ. eigenvalues --   -0.79110  -0.78474  -0.78092  -0.77528  -0.77175
 Alpha  occ. eigenvalues --   -0.77076  -0.76057  -0.75814  -0.75648  -0.75285
 Alpha  occ. eigenvalues --   -0.74858  -0.73002  -0.72940  -0.72269  -0.71955
 Alpha  occ. eigenvalues --   -0.71680  -0.71407  -0.70518  -0.70462  -0.69586
 Alpha  occ. eigenvalues --   -0.69303  -0.67279  -0.67026  -0.66572  -0.66153
 Alpha  occ. eigenvalues --   -0.64446  -0.64183  -0.63651  -0.63582  -0.63258
 Alpha  occ. eigenvalues --   -0.62643  -0.62258  -0.61559  -0.60994  -0.59880
 Alpha  occ. eigenvalues --   -0.59845  -0.59806  -0.59778  -0.59291  -0.59070
 Alpha  occ. eigenvalues --   -0.58928  -0.58429  -0.57365  -0.55412  -0.54806
 Alpha  occ. eigenvalues --   -0.54285  -0.54253  -0.53880  -0.53863  -0.53252
 Alpha  occ. eigenvalues --   -0.53165  -0.53027  -0.52696  -0.52150  -0.51886
 Alpha  occ. eigenvalues --   -0.51315  -0.51158  -0.50794  -0.50552  -0.50442
 Alpha  occ. eigenvalues --   -0.50331  -0.50022  -0.49940  -0.49743  -0.49164
 Alpha  occ. eigenvalues --   -0.48936  -0.48896  -0.48454  -0.48038  -0.47815
 Alpha  occ. eigenvalues --   -0.47717  -0.47517  -0.47301  -0.47072  -0.46986
 Alpha  occ. eigenvalues --   -0.46507  -0.46448  -0.46315  -0.46158  -0.46038
 Alpha  occ. eigenvalues --   -0.45808  -0.45614  -0.45559  -0.45233  -0.44860
 Alpha  occ. eigenvalues --   -0.44772  -0.44696  -0.44222  -0.44111  -0.44070
 Alpha  occ. eigenvalues --   -0.43818  -0.43700  -0.43522  -0.43388  -0.43379
 Alpha  occ. eigenvalues --   -0.43261  -0.43213  -0.43057  -0.42921  -0.42787
 Alpha  occ. eigenvalues --   -0.42720  -0.42282  -0.42012  -0.41784  -0.41657
 Alpha  occ. eigenvalues --   -0.41515  -0.41509  -0.41186  -0.41150  -0.41033
 Alpha  occ. eigenvalues --   -0.41027  -0.40771  -0.40746  -0.40661  -0.40548
 Alpha  occ. eigenvalues --   -0.40452  -0.40206  -0.40008  -0.40005  -0.39600
 Alpha  occ. eigenvalues --   -0.39590  -0.39501  -0.39463  -0.39328  -0.39210
 Alpha  occ. eigenvalues --   -0.39054  -0.38651  -0.38538  -0.38431  -0.38352
 Alpha  occ. eigenvalues --   -0.38178  -0.38041  -0.37695  -0.37573  -0.37479
 Alpha  occ. eigenvalues --   -0.37408  -0.37291  -0.37169  -0.37121  -0.37039
 Alpha  occ. eigenvalues --   -0.36793  -0.36668  -0.36472  -0.36257  -0.36159
 Alpha  occ. eigenvalues --   -0.36112  -0.36046  -0.35828  -0.35693  -0.35336
 Alpha  occ. eigenvalues --   -0.35287  -0.34535  -0.34532  -0.34199  -0.34138
 Alpha  occ. eigenvalues --   -0.33686  -0.33639  -0.32843  -0.32828  -0.32707
 Alpha  occ. eigenvalues --   -0.32488  -0.32341  -0.31993  -0.31977  -0.31635
 Alpha  occ. eigenvalues --   -0.31354  -0.31052  -0.29792  -0.29292  -0.29212
 Alpha  occ. eigenvalues --   -0.29208  -0.28581  -0.28252  -0.27394  -0.27376
 Alpha  occ. eigenvalues --   -0.26361  -0.25612  -0.25608  -0.25455  -0.25378
 Alpha  occ. eigenvalues --   -0.25255  -0.24830  -0.24419  -0.21222  -0.20997
 Alpha  occ. eigenvalues --   -0.19322  -0.19278
 Alpha virt. eigenvalues --   -0.11760  -0.11593  -0.05428  -0.04911  -0.04115
 Alpha virt. eigenvalues --   -0.04061  -0.02378  -0.02058  -0.01402  -0.01039
 Alpha virt. eigenvalues --   -0.00264   0.00498   0.00530   0.01291   0.01645

 Mulliken charges:
               1
     1  Mg  12.000004
     2  C    6.000117
     3  C    6.000034
     4  C    5.999940
     5  C    6.000027
     6  N    7.000086
     7  C    5.999804
     8  C    6.000077
     9  C    5.999930
    10  C    6.000041
    11  C    5.999939
    12  C    6.000022
    13  C    6.000052
    14  H    0.999938
    15  N    6.999975
    16  C    6.000147
    17  C    6.000157
    18  C    6.000071
    19  C    6.000107
    20  C    5.999972
    21  C    5.999936
    22  O    8.000123
    23  C    6.000012
    24  N    7.000010
    25  C    6.000077
    26  C    5.999944
    27  C    6.000067
    28  C    5.999827
    29  C    6.000022
    30  C    6.000028
    31  C    5.999989
    32  N    7.000110
    33  C    5.999875
    34  C    5.999734
    35  C    6.000065
    36  C    5.999759
    37  C    5.999965
    38  C    5.999990
    39  O    7.999865
    40  C    5.999967
    41  C    5.999967
    42  O    7.999990
    43  O    8.000005
    44  C    6.000023
    45  H    1.000027
    46  H    1.000123
    47  H    0.999980
    48  H    0.999989
    49  H    1.000030
    50  H    1.000036
    51  H    1.000073
    52  H    1.000032
    53  H    1.000022
    54  H    0.999963
    55  H    0.999958
    56  H    1.000037
    57  H    1.000100
    58  H    1.000066
    59  H    1.000089
    60  H    1.000081
    61  H    1.000062
    62  H    1.000049
    63  H    0.999988
    64  H    1.000003
    65  H    0.999983
    66  H    1.000027
    67  H    0.999997
    68  H    0.999972
    69  H    0.999959
    70  H    0.999976
    71  H    1.000022
    72  H    0.999987
    73  H    0.999901
    74  H    0.999931
    75  H    0.999887
    76  H    0.999928
    77  H    0.999966
    78  H    0.999994
    79  H    0.999976
    80  Mg  11.994346
    81  C    6.022403
    82  C    5.998644
    83  C    5.977978
    84  C    5.999350
    85  N    7.018246
    86  C    5.964745
    87  C    6.008627
    88  C    5.991695
    89  C    6.032614
    90  C    5.998547
    91  C    6.002627
    92  C    5.997046
    93  H    1.002756
    94  N    6.994482
    95  C    6.033944
    96  C    6.018428
    97  C    6.018419
    98  C    6.028004
    99  C    5.995115
   100  C    6.010869
   101  O    8.033981
   102  C    5.994016
   103  N    6.992428
   104  C    6.027870
   105  C    5.995649
   106  C    6.011730
   107  C    5.970898
   108  C    5.998530
   109  C    6.009411
   110  C    6.002030
   111  N    7.002383
   112  C    5.970564
   113  C    5.968811
   114  C    6.001880
   115  C    5.965917
   116  C    6.000823
   117  C    5.986397
   118  O    7.975564
   119  C    5.995067
   120  C    5.994349
   121  O    7.998528
   122  O    7.997998
   123  C    6.001532
   124  H    1.010583
   125  H    1.002325
   126  H    0.986296
   127  H    1.002065
   128  H    1.002406
   129  H    1.014089
   130  H    0.999465
   131  H    0.998896
   132  H    0.994499
   133  H    1.006893
   134  H    0.997319
   135  H    0.994917
   136  H    1.015881
   137  H    1.017721
   138  H    1.017609
   139  H    1.007215
   140  H    1.014112
   141  H    1.008533
   142  H    0.997213
   143  H    0.997239
   144  H    0.993411
   145  H    1.009497
   146  H    0.999400
   147  H    0.988748
   148  H    1.001962
   149  H    0.985316
   150  H    0.994333
   151  H    1.004387
   152  H    0.980534
   153  H    0.980315
   154  H    0.985504
   155  H    0.995761
   156  H    0.997020
   157  H    0.999394
   158  H    0.993898
 Sum of Mulliken charges = 624.00000

 Dipole moment (field-independent basis, Debye):
    X=             -4.3688    Y=              8.5408    Z=             -3.8150  Tot=             10.3241
 Quadrupole moment (field-independent basis, Debye-Ang):
   XX=           -249.3191   YY=             14.3478   ZZ=             -5.5909
   XY=            245.0570   XZ=           -113.6884   YZ=             -1.3530

 Normal termination of Gaussian 16 at Thu Oct 14 22:23:41 2021.
