 Gaussian 16, Revision A.03,
 Gaussian 16:  ES64L-G16RevA.03 25-Dec-2016

 --------------------------------------------------------
 #p PBE1PBE/Def2SVP td=(nstates=5) density=(transition=1)
 --------------------------------------------------------

 --------------------------------
 TDDFT excited states in gaussian
 --------------------------------
 Symbolic Z-matrix:
 Charge =  0 Multiplicity = 1

                         Standard orientation:
 ---------------------------------------------------------------------
 Center     Atomic      Atomic             Coordinates (Angstroms)
 Number     Number       Type             X           Y           Z
 ---------------------------------------------------------------------
      1         12           0        9.453497   -0.298872    0.650872
      2          6           0        8.989795    1.881298   -1.995895
      3          6           0        6.509691    0.836892    2.067842
      4          6           0        9.568894   -2.931436    2.760641
      5          6           0       12.229928   -1.545754   -1.130802
      6          7           0        7.772204    1.000423   -0.058613
      7          6           0        7.944213    1.882466   -1.047163
      8          6           0        6.660561    2.752725   -1.216196
      9          6           0        6.003114    2.609752    0.236996
     10          6           0        6.856299    1.437880    0.857029
     11          6           0        5.966740    3.946363    1.016517
     12          6           0        5.750896    2.153230   -2.264303
     13          6           0        5.077037    3.149727   -3.194636
     14          1           0        3.599867    2.970484   -3.711328
     15          7           0        8.251203   -0.829804    2.333535
     16          6           0        7.070226   -0.316825    2.719419
     17          6           0        6.663129   -1.013559    3.896278
     18          6           0        7.629469   -2.009728    4.232011
     19          6           0        8.581867   -1.955036    3.116039
     20          6           0        5.507097   -0.559559    4.708554
     21          6           0        7.476102   -2.978756    5.349992
     22          8           0        6.528873   -2.889422    6.113338
     23          6           0        8.517909   -4.057714    5.620305
     24          7           0       10.841169   -2.015876    0.831878
     25          6           0       10.572241   -2.968681    1.767879
     26          6           0       11.419688   -4.179278    1.546758
     27          6           0       12.273017   -3.714377    0.273549
     28          6           0       11.839989   -2.303423   -0.038664
     29          6           0       12.238527   -4.627331    2.771850
     30          6           0       12.207114   -4.671744   -0.997688
     31          6           0       13.505613   -5.171961   -1.673187
     32          7           0       10.435142    0.068754   -1.132933
     33          6           0       11.565868   -0.456078   -1.675392
     34          6           0       12.039789    0.374222   -2.692020
     35          6           0       11.079805    1.359271   -2.877840
     36          6           0       10.094643    1.088442   -1.961606
     37          6           0       13.330368    0.106785   -3.520676
     38          6           0       10.721155    2.491177   -3.595907
     39          8           0       11.278451    2.971934   -4.576440
     40          6           0        9.258480    2.943509   -3.116241
     41          6           0        9.273151    4.221797   -2.501689
     42          8           0        9.648934    4.575263   -1.381445
     43          8           0        8.732958    5.101188   -3.435028
     44          6           0        8.598107    6.515975   -3.133295
     45          1           0        5.671919    1.294324    2.597831
     46          1           0        9.737005   -3.826070    3.364585
     47          1           0       13.152246   -1.955715   -1.547855
     48          1           0        6.973695    3.755382   -1.505954
     49          1           0        5.007717    2.166793    0.232377
     50          1           0        6.492573    4.739279    0.485012
     51          1           0        6.409673    3.804203    2.002782
     52          1           0        4.919810    4.198750    1.183283
     53          1           0        4.968305    1.474001   -1.925609
     54          1           0        6.383668    1.441084   -2.793942
     55          1           0        5.754453    3.289866   -4.036823
     56          1           0        5.128321    4.059760   -2.596904
     57          1           0        5.984565    0.018769    5.499321
     58          1           0        4.935771   -1.402239    5.098355
     59          1           0        4.809092    0.065039    4.150983
     60          1           0        8.308853   -4.852952    4.904607
     61          1           0        8.252732   -4.484132    6.587442
     62          1           0        9.525954   -3.650677    5.542204
     63          1           0       10.647193   -4.903740    1.290900
     64          1           0       13.343555   -3.743488    0.476610
     65          1           0       11.746173   -5.525762    3.145483
     66          1           0       12.311448   -3.856450    3.539700
     67          1           0       13.236416   -4.923567    2.449400
     68          1           0       11.652310   -4.157150   -1.782086
     69          1           0       11.704628   -5.616822   -0.790514
     70          1           0       13.649422   -4.370780   -2.398005
     71          1           0       13.319585   -6.101005   -2.210491
     72          1           0       14.451482   -5.142726   -1.132444
     73          1           0       13.131930   -0.711765   -4.211377
     74          1           0       14.198303   -0.239651   -2.959295
     75          1           0       13.610042    0.986904   -4.100368
     76          1           0        8.624479    2.874540   -4.000337
     77          1           0        8.705214    7.052623   -4.075468
     78          1           0        9.243172    6.884629   -2.335301
     79          1           0        7.560080    6.691820   -2.850667
     80         12           0       -9.603766   -0.756749   -0.171196
     81          6           0       -8.204165    2.195145    1.136630
     82          6           0       -6.382428   -1.741441   -1.033724
     83          6           0      -10.998557   -3.366079   -1.679018
     84          6           0      -12.846447    0.775591   -0.005553
     85          7           0       -7.563557    0.124025    0.003803
     86          6           0       -7.247528    1.299993    0.698568
     87          6           0       -5.770954    1.289297    1.048415
     88          6           0       -5.147890    0.198188    0.131909
     89          6           0       -6.447982   -0.527665   -0.328243
     90          6           0       -4.197436    0.701717   -0.999388
     91          6           0       -5.461206    1.103486    2.574299
     92          6           0       -4.130516    1.828676    3.062241
     93          1           0       -3.289842    2.561340    2.013203
     94          7           0       -8.813556   -2.341156   -1.067315
     95          6           0       -7.470039   -2.612481   -1.260947
     96          6           0       -7.291918   -3.917621   -1.828932
     97          6           0       -8.612904   -4.367688   -2.148345
     98          6           0       -9.517732   -3.373838   -1.598837
     99          6           0       -5.898319   -4.533282   -2.160660
    100          6           0       -9.029577   -5.598364   -2.885346
    101          8           0      -10.221234   -5.784562   -3.229238
    102          6           0       -8.152025   -6.768230   -3.419999
    103          7           0      -11.586789   -1.133249   -1.012553
    104          6           0      -11.922892   -2.345327   -1.492953
    105          6           0      -13.463305   -2.483696   -1.585930
    106          6           0      -14.058725   -1.165431   -1.078566
    107          6           0      -12.710541   -0.458308   -0.612224
    108          6           0      -13.899500   -2.979283   -2.930954
    109          6           0      -15.126274   -1.256357    0.032923
    110          6           0      -14.664372   -1.947010    1.339761
    111          7           0      -10.433570    1.135984    0.376998
    112          6           0      -11.725865    1.507999    0.529840
    113          6           0      -11.714381    2.765594    1.275510
    114          6           0      -10.368484    3.108113    1.585656
    115          6           0       -9.596790    2.095181    0.966087
    116          6           0      -12.946369    3.517178    1.772729
    117          6           0       -9.517260    4.059703    2.225445
    118          8           0       -9.717738    5.036238    2.942769
    119          6           0       -7.981923    3.510794    1.889484
    120          6           0       -7.185705    4.625794    1.237984
    121          8           0       -7.275082    4.917081    0.061390
    122          8           0       -6.293402    5.176460    2.129629
    123          6           0       -5.716883    6.484261    1.834951
    124          1           0       -5.328244   -2.004531   -1.141264
    125          1           0      -11.400931   -4.290802   -2.097192
    126          1           0      -13.874870    1.115126    0.132012
    127          1           0       -5.332521    2.252394    0.787439
    128          1           0       -4.587893   -0.476172    0.779143
    129          1           0       -4.658917    0.283148   -1.893150
    130          1           0       -3.217043    0.231154   -0.916025
    131          1           0       -4.064318    1.771849   -1.157954
    132          1           0       -5.274826    0.058067    2.818229
    133          1           0       -6.330967    1.424602    3.146008
    134          1           0       -3.444501    1.051739    3.400019
    135          1           0       -4.411455    2.512724    3.862653
    136          1           0       -5.995492   -5.075290   -3.102136
    137          1           0       -5.570249   -5.254722   -1.413091
    138          1           0       -5.009556   -3.908988   -2.251395
    139          1           0       -7.561993   -7.205475   -2.614033
    140          1           0       -7.520528   -6.468140   -4.256173
    141          1           0       -8.703992   -7.684018   -3.628237
    142          1           0      -13.712015   -3.350784   -0.975393
    143          1           0      -14.329756   -0.619851   -1.983127
    144          1           0      -14.158252   -4.038288   -2.928358
    145          1           0      -13.132086   -2.760902   -3.673750
    146          1           0      -14.767251   -2.459704   -3.338858
    147          1           0      -15.901106   -1.875343   -0.419858
    148          1           0      -15.527037   -0.266036    0.251173
    149          1           0      -14.785585   -1.193597    2.117814
    150          1           0      -13.619601   -2.222801    1.196331
    151          1           0      -15.168964   -2.889536    1.552770
    152          1           0      -12.833046    3.878290    2.794517
    153          1           0      -13.809664    2.857528    1.855560
    154          1           0      -13.189005    4.288587    1.041354
    155          1           0       -7.544283    3.330189    2.871628
    156          1           0       -5.503925    6.494090    0.765677
    157          1           0       -4.784550    6.701715    2.356190
    158          1           0       -6.455761    7.209902    2.175050
 ---------------------------------------------------------------------

 SCF Done:  E(RPBE1PBE) =  -4067.36239031     A.U. after   15 cycles

 Excitation energies and oscillator strengths:

 Excited State   1:      Singlet-A      1.7674 eV  701.51 nm  f=0.0000  <S**2>=0.000
     312 -> 313        0.70707
 This state for optimization and/or second-order correction.
 Total Energy, E(TD-HF/TD-DFT) =  -4067.29744035
 Copying the excited state density for this state as the 1-particle RhoCI density.

 Excited State   2:      Singlet-A      1.8183 eV  681.88 nm  f=0.3842  <S**2>=0.000
     310 -> 316        0.16255
     312 -> 314        0.69659
     312 <- 314       -0.11880

 Excited State   3:      Singlet-A      1.8604 eV  666.45 nm  f=0.3847  <S**2>=0.000
     309 -> 315       -0.17784
     311 -> 313        0.69224
     311 <- 313       -0.11019

 Excited State   4:      Singlet-A      1.9101 eV  649.09 nm  f=0.0000  <S**2>=0.000
     311 -> 314        0.70709

 Excited State   5:      Singlet-A      2.1900 eV  566.13 nm  f=0.1455  <S**2>=0.000
     310 -> 314        0.66469
     312 -> 316       -0.22002

 The electronic state is 1-A.
 Alpha  occ. eigenvalues --  -46.93214 -46.92328 -19.25377 -19.24944 -19.20461
 Alpha  occ. eigenvalues --  -19.19691 -19.19646 -19.19478 -19.18767 -19.18525
 Alpha  occ. eigenvalues --  -14.42032 -14.41933 -14.41649 -14.41082 -14.39886
 Alpha  occ. eigenvalues --  -14.39621 -14.39139 -14.39025 -10.36638 -10.36129
 Alpha  occ. eigenvalues --  -10.32818 -10.32552 -10.32492 -10.31947 -10.29427
 Alpha  occ. eigenvalues --  -10.29304 -10.29193 -10.29095 -10.29014 -10.28872
 Alpha  occ. eigenvalues --  -10.28772 -10.28654 -10.28639 -10.28545 -10.28390
 Alpha  occ. eigenvalues --  -10.28223 -10.28015 -10.27733 -10.27636 -10.27265
 Alpha  occ. eigenvalues --  -10.26980 -10.26931 -10.26829 -10.26469 -10.26464
 Alpha  occ. eigenvalues --  -10.26340 -10.26286 -10.26267 -10.26168 -10.26145
 Alpha  occ. eigenvalues --  -10.26101 -10.25939 -10.25923 -10.25912 -10.25883
 Alpha  occ. eigenvalues --  -10.25809 -10.25632 -10.25606 -10.25565 -10.25347
 Alpha  occ. eigenvalues --  -10.25341 -10.25232 -10.25127 -10.25110 -10.24966
 Alpha  occ. eigenvalues --  -10.24768 -10.24691 -10.24595 -10.24529 -10.24488
 Alpha  occ. eigenvalues --  -10.24414 -10.24404 -10.24076 -10.23861 -10.23809
 Alpha  occ. eigenvalues --  -10.23711 -10.23510 -10.23507 -10.23477 -10.23466
 Alpha  occ. eigenvalues --  -10.23160 -10.23151 -10.23068 -10.22677 -10.22582
 Alpha  occ. eigenvalues --  -10.22384  -3.15123  -3.14476  -1.87976  -1.87491
 Alpha  occ. eigenvalues --   -1.87338  -1.87286  -1.86850  -1.86713  -1.10548
 Alpha  occ. eigenvalues --   -1.10233  -1.04924  -1.04918  -1.04282  -1.03039
 Alpha  occ. eigenvalues --   -1.02383  -1.02296  -1.00342  -0.98891  -0.98864
 Alpha  occ. eigenvalues --   -0.98629  -0.98069  -0.97889  -0.97463  -0.96884
 Alpha  occ. eigenvalues --   -0.88419  -0.86596  -0.83956  -0.83549  -0.83522
 Alpha  occ. eigenvalues --   -0.82829  -0.82800  -0.82413  -0.82396  -0.81728
 Alpha  occ. eigenvalues --   -0.81387  -0.81001  -0.80720  -0.79854  -0.79735
 Alpha  occ. eigenvalues --   -0.79049  -0.78068  -0.77674  -0.77468  -0.76630
 Alpha  occ. eigenvalues --   -0.76467  -0.75974  -0.75346  -0.75239  -0.74985
 Alpha  occ. eigenvalues --   -0.74131  -0.72865  -0.72666  -0.72071  -0.71291
 Alpha  occ. eigenvalues --   -0.71073  -0.71019  -0.70922  -0.70165  -0.69692
 Alpha  occ. eigenvalues --   -0.69347  -0.68081  -0.67039  -0.67024  -0.65511
 Alpha  occ. eigenvalues --   -0.64472  -0.64256  -0.63803  -0.63548  -0.62855
 Alpha  occ. eigenvalues --   -0.62703  -0.61929  -0.61921  -0.60699  -0.60483
 Alpha  occ. eigenvalues --   -0.60211  -0.59769  -0.59573  -0.59311  -0.58755
 Alpha  occ. eigenvalues --   -0.58619  -0.57363  -0.56259  -0.55409  -0.55198
 Alpha  occ. eigenvalues --   -0.54656  -0.54073  -0.53860  -0.53641  -0.53385
 Alpha  occ. eigenvalues --   -0.52975  -0.52772  -0.52753  -0.52043  -0.51469
 Alpha  occ. eigenvalues --   -0.51096  -0.50791  -0.50493  -0.50296  -0.50251
 Alpha  occ. eigenvalues --   -0.49502  -0.49375  -0.49343  -0.49047  -0.48507
 Alpha  occ. eigenvalues --   -0.48372  -0.48146  -0.48027  -0.47713  -0.47314
 Alpha  occ. eigenvalues --   -0.47311  -0.47160  -0.47053  -0.46859  -0.46706
 Alpha  occ. eigenvalues --   -0.46666  -0.46513  -0.46501  -0.46239  -0.46009
 Alpha  occ. eigenvalues --   -0.45919  -0.45657  -0.45338  -0.45148  -0.44881
 Alpha  occ. eigenvalues --   -0.44663  -0.44472  -0.44392  -0.44225  -0.44149
 Alpha  occ. eigenvalues --   -0.43883  -0.43854  -0.43850  -0.43820  -0.43718
 Alpha  occ. eigenvalues --   -0.43451  -0.43218  -0.43194  -0.43102  -0.42841
 Alpha  occ. eigenvalues --   -0.42480  -0.42348  -0.42340  -0.42090  -0.41741
 Alpha  occ. eigenvalues --   -0.41668  -0.41572  -0.41470  -0.41419  -0.41084
 Alpha  occ. eigenvalues --   -0.40992  -0.40969  -0.40825  -0.40664  -0.40595
 Alpha  occ. eigenvalues --   -0.40387  -0.40246  -0.40185  -0.39971  -0.39931
 Alpha  occ. eigenvalues --   -0.39643  -0.39448  -0.39444  -0.39283  -0.39001
 Alpha  occ. eigenvalues --   -0.38868  -0.38862  -0.38808  -0.38590  -0.38406
 Alpha  occ. eigenvalues --   -0.38221  -0.38111  -0.38001  -0.37946  -0.37676
 Alpha  occ. eigenvalues --   -0.37464  -0.37292  -0.37167  -0.37032  -0.36932
 Alpha  occ. eigenvalues --   -0.36839  -0.36803  -0.36760  -0.36518  -0.36504
 Alpha  occ. eigenvalues --   -0.36298  -0.36025  -0.35583  -0.35454  -0.35343
 Alpha  occ. eigenvalues --   -0.35023  -0.34810  -0.34599  -0.34142  -0.33660
 Alpha  occ. eigenvalues --   -0.33421  -0.33316  -0.33110  -0.32825  -0.32646
 Alpha  occ. eigenvalues --   -0.32574  -0.32403  -0.31923  -0.31377  -0.31263
 Alpha  occ. eigenvalues --   -0.30900  -0.30843  -0.29960  -0.29677  -0.29212
 Alpha  occ. eigenvalues --   -0.29194  -0.28918  -0.28439  -0.27588  -0.27078
 Alpha  occ. eigenvalues --   -0.26556  -0.26295  -0.26058  -0.25824  -0.25663
 Alpha  occ. eigenvalues --   -0.25269  -0.25250  -0.24963  -0.21657  -0.21068
 Alpha  occ. eigenvalues --   -0.19362  -0.18996
 Alpha virt. eigenvalues --   -0.11798  -0.11639  -0.05914  -0.05030  -0.04548
 Alpha virt. eigenvalues --   -0.04283  -0.02324  -0.02254  -0.01275  -0.00552
 Alpha virt. eigenvalues --   -0.00349   0.00320   0.00574   0.01051   0.01221

 Mulliken charges:
               1
     1  Mg  12.000000
     2  C    6.000000
     3  C    6.000000
     4  C    6.000000
     5  C    6.000000
     6  N    7.000000
     7  C    6.000000
     8  C    6.000000
     9  C    6.000000
    10  C    6.000000
    11  C    6.000000
    12  C    6.000000
    13  C    6.000000
    14  H    1.000000
    15  N    7.000000
    16  C    6.000000
    17  C    6.000000
    18  C    6.000000
    19  C    6.000000
    20  C    6.000000
    21  C    6.000000
    22  O    8.000000
    23  C    6.000000
    24  N    7.000000
    25  C    6.000000
    26  C    6.000000
    27  C    6.000000
    28  C    6.000000
    29  C    6.000000
    30  C    6.000000
    31  C    6.000000
    32  N    7.000000
    33  C    6.000000
    34  C    6.000000
    35  C    6.000000
    36  C    6.000000
    37  C    6.000000
    38  C    6.000000
    39  O    8.000000
    40  C    6.000000
    41  C    6.000000
    42  O    8.000000
    43  O    8.000000
    44  C    6.000000
    45  H    1.000000
    46  H    1.000000
    47  H    1.000000
    48  H    1.000000
    49  H    1.000000
    50  H    1.000000
    51  H    1.000000
    52  H    1.000000
    53  H    1.000000
    54  H    1.000000
    55  H    1.000000
    56  H    1.000000
    57  H    1.000000
    58  H    1.000000
    59  H    1.000000
    60  H    1.000000
    61  H    1.000000
    62  H    1.000000
    63  H    1.000000
    64  H    1.000000
    65  H    1.000000
    66  H    1.000000
    67  H    1.000000
    68  H    1.000000
    69  H    1.000000
    70  H    1.000000
    71  H    1.000000
    72  H    1.000000
    73  H    1.000000
    74  H    1.000000
    75  H    1.000000
    76  H    1.000000
    77  H    1.000000
    78  H    1.000000
    79  H    1.000000
    80  Mg  12.000000
    81  C    6.000000
    82  C    6.000000
    83  C    6.000000
    84  C    6.000000
    85  N    7.000000
    86  C    6.000000
    87  C    6.000000
    88  C    6.000000
    89  C    6.000000
    90  C    6.000000
    91  C    6.000000
    92  C    6.000000
    93  H    1.000000
    94  N    7.000000
    95  C    6.000000
    96  C    6.000000
    97  C    6.000000
    98  C    6.000000
    99  C    6.000000
   100  C    6.000000
   101  O    8.000000
   102  C    6.000000
   103  N    7.000000
   104  C    6.000000
   105  C    6.000000
   106  C    6.000000
   107  C    6.000000
   108  C    6.000000
   109  C    6.000000
   110  C    6.000000
   111  N    7.000000
   112  C    6.000000
   113  C    6.000000
   114  C    6.000000
   115  C    6.000000
   116  C    6.000000
   117  C    6.000000
   118  O    8.000000
   119  C    6.000000
   120  C    6.000000
   121  O    8.000000
   122  O    8.000000
   123  C    6.000000
   124  H    1.000000
   125  H    1.000000
   126  H    1.000000
   127  H    1.000000
   128  H    1.000000
   129  H    1.000000
   130  H    1.000000
   131  H    1.000000
   132  H    1.000000
   133  H    1.000000
   134  H    1.000000
   135  H    1.000000
   136  H    1.000000
   137  H    1.000000
   138  H    1.000000
   139  H    1.000000
   140  H    1.000000
   141  H    1.000000
   142  H    1.000000
   143  H    1.000000
   144  H    1.000000
   145  H    1.000000
   146  H    1.000000
   147  H    1.000000
   148  H    1.000000
   149  H    1.000000
   150  H    1.000000
   151  H    1.000000
   152  H    1.000000
   153  H    1.000000
   154  H    1.000000
   155  H    1.000000
   156  H    1.000000
   157  H    1.000000
   158  H    1.000000
 Sum of Mulliken charges = 624.00000

 Dipole moment (field-independent basis, Debye):
    X=             -0.0000    Y=              0.0000    Z=              0.0000  Tot=              0.0000
 Quadrupole moment (field-independent basis, Debye-Ang):
   XX=              0.0000   YY=             -0.0000   ZZ=             -0.0000
   XY=             -0.0000   XZ=             -0.0000   YZ=             -0.0000

 Normal termination of Gaussian 16 at Thu Oct 14 09:55:47 2021.
