 Gaussian 16, Revision A.03,
 Gaussian 16:  ES64L-G16RevA.03 25-Dec-2016

 --------------------------------------------------------
 #p PBE1PBE/Def2SVP td=(nstates=5) density=(transition=1)
 --------------------------------------------------------

 --------------------------------
 TDDFT excited states in gaussian
 --------------------------------
 Symbolic Z-matrix:
 Charge =  0 Multiplicity = 1

                         Standard orientation:
 ---------------------------------------------------------------------
 Center     Atomic      Atomic             Coordinates (Angstroms)
 Number     Number       Type             X           Y           Z
 ---------------------------------------------------------------------
      1         12           0      -16.270695    0.597152    0.230734
      2          6           0      -15.856760   -2.237254   -1.666269
      3          6           0      -13.892028    2.216380   -1.862031
      4          6           0      -16.155006    3.271407    2.295835
      5          6           0      -18.252892   -1.031210    2.391747
      6          7           0      -15.013922    0.036577   -1.564377
      7          6           0      -15.032279   -1.208736   -2.132903
      8          6           0      -14.166619   -1.250354   -3.394188
      9          6           0      -13.410516    0.153227   -3.281802
     10          6           0      -14.137745    0.853732   -2.171579
     11          6           0      -11.853404    0.033279   -3.095490
     12          6           0      -15.007689   -1.382070   -4.745125
     13          6           0      -14.605815   -2.308521   -5.867433
     14          1           0      -13.185898   -2.309097   -6.310599
     15          7           0      -15.215411    2.536795    0.218939
     16          6           0      -14.463326    3.053638   -0.777522
     17          6           0      -14.162273    4.426490   -0.544940
     18          6           0      -14.843398    4.782119    0.661807
     19          6           0      -15.382784    3.472877    1.136451
     20          6           0      -13.250081    5.130714   -1.496777
     21          6           0      -14.816588    6.100430    1.416305
     22          8           0      -15.211637    6.203693    2.581789
     23          6           0      -14.272292    7.352056    0.750420
     24          7           0      -16.977143    1.020284    2.194882
     25          6           0      -16.903901    2.250233    2.768363
     26          6           0      -17.767336    2.311326    4.027242
     27          6           0      -18.577526    0.962388    3.939302
     28          6           0      -17.909449    0.268090    2.768925
     29          6           0      -17.141203    2.602792    5.423021
     30          6           0      -20.155116    1.082864    3.833925
     31          6           0      -20.833707    1.107916    2.480694
     32          7           0      -16.856420   -1.252188    0.429269
     33          6           0      -17.788957   -1.812439    1.264955
     34          6           0      -17.996707   -3.195002    1.031320
     35          6           0      -17.293634   -3.407448   -0.150385
     36          6           0      -16.639623   -2.193826   -0.485017
     37          6           0      -18.845769   -4.253733    1.722785
     38          6           0      -16.929184   -4.343825   -1.121214
     39          8           0      -17.210159   -5.527284   -1.168409
     40          6           0      -15.922643   -3.655481   -2.203707
     41          6           0      -14.660909   -4.384523   -2.166614
     42          8           0      -13.876113   -4.439994   -1.199142
     43          8           0      -14.404782   -5.080828   -3.305652
     44          6           0      -13.347627   -6.098170   -3.291702
     45          1           0      -13.221792    2.630500   -2.617678
     46          1           0      -16.364016    4.202654    2.826058
     47          1           0      -19.148435   -1.470874    2.834113
     48          1           0      -13.542524   -2.143947   -3.352603
     49          1           0      -13.501050    0.728332   -4.203455
     50          1           0      -11.380601    0.546576   -3.932095
     51          1           0      -11.670199   -1.038118   -3.012147
     52          1           0      -11.442704    0.575035   -2.242936
     53          1           0      -14.980564   -0.354759   -5.108864
     54          1           0      -16.072510   -1.475253   -4.534271
     55          1           0      -15.284814   -2.187338   -6.711427
     56          1           0      -14.720535   -3.314380   -5.465084
     57          1           0      -13.732922    6.088827   -1.685600
     58          1           0      -13.214085    4.611231   -2.454670
     59          1           0      -12.225312    5.286723   -1.157994
     60          1           0      -14.587410    7.476446   -0.286017
     61          1           0      -13.205551    7.443587    0.959389
     62          1           0      -14.753699    8.168467    1.289620
     63          1           0      -18.365201    3.209091    3.868696
     64          1           0      -18.528423    0.380353    4.858821
     65          1           0      -17.163721    1.705692    6.041565
     66          1           0      -17.769579    3.364576    5.884162
     67          1           0      -16.128892    2.952649    5.223722
     68          1           0      -20.428010    2.000248    4.353721
     69          1           0      -20.623382    0.252090    4.362275
     70          1           0      -21.505391    1.960693    2.379357
     71          1           0      -21.400569    0.202586    2.259529
     72          1           0      -20.016979    1.186350    1.763103
     73          1           0      -19.402141   -3.787662    2.536910
     74          1           0      -18.196243   -5.048190    2.091146
     75          1           0      -19.536215   -4.673495    0.991763
     76          1           0      -16.447502   -3.894348   -3.129130
     77          1           0      -13.462029   -6.868305   -4.054653
     78          1           0      -13.125961   -6.532739   -2.317426
     79          1           0      -12.461579   -5.582648   -3.662511
     80         12           0       16.112916    0.437082   -0.670084
     81          6           0       15.375426   -2.798700    0.830174
     82          6           0       12.726782    0.871162   -1.037834
     83          6           0       16.607906    3.743682   -0.608526
     84          6           0       19.431213   -0.223242   -0.355089
     85          7           0       14.252785   -0.781341    0.038694
     86          6           0       14.210395   -2.122040    0.566576
     87          6           0       12.764545   -2.626222    0.556826
     88          6           0       12.010585   -1.623304   -0.365423
     89          6           0       13.022383   -0.403366   -0.513445
     90          6           0       11.645611   -2.224128   -1.804691
     91          6           0       12.136003   -2.936410    1.883885
     92          6           0       12.811095   -2.353300    3.147737
     93          1           0       12.313343   -2.476994    4.599425
     94          7           0       14.838157    2.104299   -0.947137
     95          6           0       13.466163    2.061338   -1.061023
     96          6           0       12.980008    3.448701   -1.339578
     97          6           0       14.092604    4.249496   -1.094574
     98          6           0       15.257138    3.413459   -0.812653
     99          6           0       11.549029    3.709360   -1.651861
    100          6           0       14.076845    5.805855   -1.107677
    101          8           0       13.003754    6.362345   -1.258936
    102          6           0       15.255325    6.668836   -0.799655
    103          7           0       17.808659    1.546607   -0.340797
    104          6           0       17.736950    2.927633   -0.519752
    105          6           0       19.131403    3.554014   -0.513981
    106          6           0       20.066448    2.310583   -0.737224
    107          6           0       19.075116    1.166154   -0.514793
    108          6           0       19.434950    4.693315   -1.520729
    109          6           0       21.336663    2.233249    0.169220
    110          6           0       22.728572    2.540622   -0.550801
    111          7           0       17.238402   -1.196860    0.000963
    112          6           0       18.618575   -1.336372   -0.014159
    113          6           0       18.957662   -2.697899    0.319649
    114          6           0       17.723583   -3.228916    0.718695
    115          6           0       16.716882   -2.262564    0.473756
    116          6           0       20.399963   -3.230939    0.371198
    117          6           0       17.051875   -4.400887    1.190396
    118          8           0       17.598635   -5.498053    1.422109
    119          6           0       15.465916   -4.255628    1.162335
    120          6           0       15.036756   -4.669299    2.513197
    121          8           0       15.504427   -4.279843    3.588425
    122          8           0       13.948677   -5.460252    2.346007
    123          6           0       13.443496   -6.160394    3.568413
    124          1           0       11.649320    1.014536   -1.137981
    125          1           0       16.755187    4.825933   -0.604319
    126          1           0       20.499796   -0.444613   -0.384091
    127          1           0       12.945244   -3.548310    0.004319
    128          1           0       11.154523   -1.157114    0.122674
    129          1           0       10.557984   -2.279030   -1.780547
    130          1           0       12.146925   -3.183534   -1.934695
    131          1           0       11.964677   -1.469662   -2.524653
    132          1           0       12.022737   -4.019872    1.916290
    133          1           0       11.140816   -2.514632    1.739205
    134          1           0       12.905393   -1.286820    2.940790
    135          1           0       13.813294   -2.769950    3.250209
    136          1           0       11.150429    4.247723   -0.792482
    137          1           0       11.055287    2.750303   -1.805543
    138          1           0       11.478832    4.258347   -2.591551
    139          1           0       15.670690    6.633318    0.206756
    140          1           0       15.023846    7.732032   -0.856856
    141          1           0       15.925818    6.381683   -1.609525
    142          1           0       19.105803    3.923814    0.511707
    143          1           0       20.313215    2.344285   -1.798621
    144          1           0       19.384782    5.689123   -1.079164
    145          1           0       18.678561    4.696818   -2.304854
    146          1           0       20.403275    4.477942   -1.973780
    147          1           0       21.457630    1.283580    0.691118
    148          1           0       21.132123    2.949276    0.965289
    149          1           0       23.219364    3.184487    0.178606
    150          1           0       22.647448    3.042584   -1.515053
    151          1           0       23.188069    1.576789   -0.766947
    152          1           0       20.511696   -4.293965    0.156535
    153          1           0       20.641577   -3.056522    1.419114
    154          1           0       20.997677   -2.776120   -0.418422
    155          1           0       15.061891   -4.886656    0.369346
    156          1           0       12.567872   -6.754893    3.305439
    157          1           0       13.138683   -5.446825    4.334161
    158          1           0       14.303298   -6.766205    3.851005
 ---------------------------------------------------------------------

 SCF Done:  E(RPBE1PBE) =  -4067.36498610     A.U. after   16 cycles

 Excitation energies and oscillator strengths:

 Excited State   1:      Singlet-A      1.7879 eV  693.46 nm  f=0.0000  <S**2>=0.000
     312 -> 313        0.70710
 This state for optimization and/or second-order correction.
 Total Energy, E(TD-HF/TD-DFT) =  -4067.29928136
 Copying the excited state density for this state as the 1-particle RhoCI density.

 Excited State   2:      Singlet-A      1.8047 eV  687.02 nm  f=0.3417  <S**2>=0.000
     309 -> 315       -0.15285
     312 -> 314        0.69759
     312 <- 314       -0.11783

 Excited State   3:      Singlet-A      1.8776 eV  660.33 nm  f=0.3968  <S**2>=0.000
     310 -> 316       -0.17171
     311 -> 313        0.69328
     311 <- 313       -0.11025

 Excited State   4:      Singlet-A      2.0611 eV  601.55 nm  f=0.0000  <S**2>=0.000
     311 -> 314        0.70710

 Excited State   5:      Singlet-A      2.2058 eV  562.08 nm  f=0.1667  <S**2>=0.000
     310 -> 313        0.67020
     311 -> 316        0.21433

 The electronic state is 1-A.
 Alpha  occ. eigenvalues --  -46.92680 -46.92515 -19.26056 -19.25709 -19.19732
 Alpha  occ. eigenvalues --  -19.19085 -19.19056 -19.18933 -19.18761 -19.17598
 Alpha  occ. eigenvalues --  -14.41965 -14.41635 -14.41148 -14.41054 -14.39259
 Alpha  occ. eigenvalues --  -14.39189 -14.39162 -14.38496 -10.36217 -10.35931
 Alpha  occ. eigenvalues --  -10.32492 -10.32451 -10.31744 -10.30956 -10.29459
 Alpha  occ. eigenvalues --  -10.29357 -10.29259 -10.29012 -10.28869 -10.28835
 Alpha  occ. eigenvalues --  -10.28540 -10.28388 -10.28281 -10.28208 -10.28172
 Alpha  occ. eigenvalues --  -10.27797 -10.27701 -10.27700 -10.27690 -10.27105
 Alpha  occ. eigenvalues --  -10.26752 -10.26479 -10.26439 -10.26385 -10.26308
 Alpha  occ. eigenvalues --  -10.26216 -10.26211 -10.26077 -10.25940 -10.25924
 Alpha  occ. eigenvalues --  -10.25833 -10.25825 -10.25805 -10.25760 -10.25607
 Alpha  occ. eigenvalues --  -10.25566 -10.25460 -10.25376 -10.25366 -10.25151
 Alpha  occ. eigenvalues --  -10.25149 -10.25105 -10.25064 -10.24948 -10.24894
 Alpha  occ. eigenvalues --  -10.24835 -10.24740 -10.24499 -10.24381 -10.24326
 Alpha  occ. eigenvalues --  -10.24303 -10.24283 -10.23986 -10.23902 -10.23899
 Alpha  occ. eigenvalues --  -10.23893 -10.23641 -10.23567 -10.23528 -10.23511
 Alpha  occ. eigenvalues --  -10.23410 -10.23209 -10.22839 -10.22461 -10.22427
 Alpha  occ. eigenvalues --  -10.22017  -3.14749  -3.14704  -1.87560  -1.87527
 Alpha  occ. eigenvalues --   -1.87146  -1.87038  -1.86976  -1.86952  -1.10886
 Alpha  occ. eigenvalues --   -1.10629  -1.05243  -1.04726  -1.04140  -1.02365
 Alpha  occ. eigenvalues --   -1.01612  -1.00635  -1.00104  -0.99680  -0.99336
 Alpha  occ. eigenvalues --   -0.98791  -0.98775  -0.98142  -0.97268  -0.94864
 Alpha  occ. eigenvalues --   -0.87006  -0.86398  -0.83649  -0.83331  -0.83221
 Alpha  occ. eigenvalues --   -0.82882  -0.82545  -0.82471  -0.82184  -0.81703
 Alpha  occ. eigenvalues --   -0.81090  -0.80901  -0.80749  -0.80509  -0.78594
 Alpha  occ. eigenvalues --   -0.78594  -0.78073  -0.78051  -0.76948  -0.76766
 Alpha  occ. eigenvalues --   -0.76590  -0.76019  -0.75509  -0.75339  -0.74618
 Alpha  occ. eigenvalues --   -0.74526  -0.72679  -0.72283  -0.72079  -0.71813
 Alpha  occ. eigenvalues --   -0.71420  -0.70842  -0.70562  -0.70349  -0.69862
 Alpha  occ. eigenvalues --   -0.69533  -0.68026  -0.67540  -0.66082  -0.66004
 Alpha  occ. eigenvalues --   -0.64031  -0.64027  -0.63663  -0.63325  -0.62576
 Alpha  occ. eigenvalues --   -0.62154  -0.61549  -0.61319  -0.60563  -0.60054
 Alpha  occ. eigenvalues --   -0.59797  -0.59695  -0.59258  -0.59248  -0.58781
 Alpha  occ. eigenvalues --   -0.58128  -0.56860  -0.56752  -0.54735  -0.54423
 Alpha  occ. eigenvalues --   -0.54106  -0.53758  -0.53680  -0.53666  -0.52884
 Alpha  occ. eigenvalues --   -0.52512  -0.52454  -0.52039  -0.51898  -0.51803
 Alpha  occ. eigenvalues --   -0.51358  -0.50862  -0.50719  -0.49880  -0.49732
 Alpha  occ. eigenvalues --   -0.49600  -0.49344  -0.49179  -0.48783  -0.48622
 Alpha  occ. eigenvalues --   -0.48306  -0.47873  -0.47782  -0.47771  -0.47452
 Alpha  occ. eigenvalues --   -0.47246  -0.47135  -0.47133  -0.46971  -0.46773
 Alpha  occ. eigenvalues --   -0.46630  -0.46476  -0.46002  -0.45919  -0.45802
 Alpha  occ. eigenvalues --   -0.45503  -0.45401  -0.45323  -0.45075  -0.44834
 Alpha  occ. eigenvalues --   -0.44594  -0.44478  -0.44330  -0.44164  -0.43988
 Alpha  occ. eigenvalues --   -0.43889  -0.43684  -0.43639  -0.43428  -0.43387
 Alpha  occ. eigenvalues --   -0.43351  -0.43183  -0.42988  -0.42825  -0.42806
 Alpha  occ. eigenvalues --   -0.42542  -0.42463  -0.42275  -0.42146  -0.41866
 Alpha  occ. eigenvalues --   -0.41831  -0.41611  -0.41560  -0.41369  -0.41237
 Alpha  occ. eigenvalues --   -0.41222  -0.40997  -0.40946  -0.40733  -0.40625
 Alpha  occ. eigenvalues --   -0.40489  -0.40221  -0.40112  -0.39935  -0.39774
 Alpha  occ. eigenvalues --   -0.39703  -0.39305  -0.39247  -0.38850  -0.38815
 Alpha  occ. eigenvalues --   -0.38787  -0.38726  -0.38406  -0.38344  -0.38225
 Alpha  occ. eigenvalues --   -0.38216  -0.37983  -0.37752  -0.37660  -0.37566
 Alpha  occ. eigenvalues --   -0.37369  -0.37137  -0.37071  -0.37037  -0.36791
 Alpha  occ. eigenvalues --   -0.36789  -0.36658  -0.36584  -0.36379  -0.36200
 Alpha  occ. eigenvalues --   -0.36018  -0.35958  -0.35745  -0.35480  -0.34972
 Alpha  occ. eigenvalues --   -0.34898  -0.34763  -0.34491  -0.34325  -0.34036
 Alpha  occ. eigenvalues --   -0.33446  -0.33378  -0.33221  -0.32411  -0.32339
 Alpha  occ. eigenvalues --   -0.32152  -0.31684  -0.31581  -0.31385  -0.31128
 Alpha  occ. eigenvalues --   -0.30858  -0.30595  -0.29757  -0.29266  -0.29045
 Alpha  occ. eigenvalues --   -0.28654  -0.28300  -0.28017  -0.27094  -0.26996
 Alpha  occ. eigenvalues --   -0.26550  -0.26134  -0.25836  -0.25564  -0.25408
 Alpha  occ. eigenvalues --   -0.25402  -0.25274  -0.24291  -0.21264  -0.20838
 Alpha  occ. eigenvalues --   -0.19084  -0.18455
 Alpha virt. eigenvalues --   -0.11477  -0.11096  -0.05300  -0.04793  -0.03951
 Alpha virt. eigenvalues --   -0.03124  -0.02010  -0.01941  -0.01399  -0.00982
 Alpha virt. eigenvalues --    0.00143   0.00169   0.01024   0.01805   0.02161

 Mulliken charges:
               1
     1  Mg  12.000000
     2  C    6.000000
     3  C    6.000000
     4  C    6.000000
     5  C    6.000000
     6  N    7.000000
     7  C    6.000000
     8  C    6.000000
     9  C    6.000000
    10  C    6.000000
    11  C    6.000000
    12  C    6.000000
    13  C    6.000000
    14  H    1.000000
    15  N    7.000000
    16  C    6.000000
    17  C    6.000000
    18  C    6.000000
    19  C    6.000000
    20  C    6.000000
    21  C    6.000000
    22  O    8.000000
    23  C    6.000000
    24  N    7.000000
    25  C    6.000000
    26  C    6.000000
    27  C    6.000000
    28  C    6.000000
    29  C    6.000000
    30  C    6.000000
    31  C    6.000000
    32  N    7.000000
    33  C    6.000000
    34  C    6.000000
    35  C    6.000000
    36  C    6.000000
    37  C    6.000000
    38  C    6.000000
    39  O    8.000000
    40  C    6.000000
    41  C    6.000000
    42  O    8.000000
    43  O    8.000000
    44  C    6.000000
    45  H    1.000000
    46  H    1.000000
    47  H    1.000000
    48  H    1.000000
    49  H    1.000000
    50  H    1.000000
    51  H    1.000000
    52  H    1.000000
    53  H    1.000000
    54  H    1.000000
    55  H    1.000000
    56  H    1.000000
    57  H    1.000000
    58  H    1.000000
    59  H    1.000000
    60  H    1.000000
    61  H    1.000000
    62  H    1.000000
    63  H    1.000000
    64  H    1.000000
    65  H    1.000000
    66  H    1.000000
    67  H    1.000000
    68  H    1.000000
    69  H    1.000000
    70  H    1.000000
    71  H    1.000000
    72  H    1.000000
    73  H    1.000000
    74  H    1.000000
    75  H    1.000000
    76  H    1.000000
    77  H    1.000000
    78  H    1.000000
    79  H    1.000000
    80  Mg  12.000000
    81  C    6.000000
    82  C    6.000000
    83  C    6.000000
    84  C    6.000000
    85  N    7.000000
    86  C    6.000000
    87  C    6.000000
    88  C    6.000000
    89  C    6.000000
    90  C    6.000000
    91  C    6.000000
    92  C    6.000000
    93  H    1.000000
    94  N    7.000000
    95  C    6.000000
    96  C    6.000000
    97  C    6.000000
    98  C    6.000000
    99  C    6.000000
   100  C    6.000000
   101  O    8.000000
   102  C    6.000000
   103  N    7.000000
   104  C    6.000000
   105  C    6.000000
   106  C    6.000000
   107  C    6.000000
   108  C    6.000000
   109  C    6.000000
   110  C    6.000000
   111  N    7.000000
   112  C    6.000000
   113  C    6.000000
   114  C    6.000000
   115  C    6.000000
   116  C    6.000000
   117  C    6.000000
   118  O    8.000000
   119  C    6.000000
   120  C    6.000000
   121  O    8.000000
   122  O    8.000000
   123  C    6.000000
   124  H    1.000000
   125  H    1.000000
   126  H    1.000000
   127  H    1.000000
   128  H    1.000000
   129  H    1.000000
   130  H    1.000000
   131  H    1.000000
   132  H    1.000000
   133  H    1.000000
   134  H    1.000000
   135  H    1.000000
   136  H    1.000000
   137  H    1.000000
   138  H    1.000000
   139  H    1.000000
   140  H    1.000000
   141  H    1.000000
   142  H    1.000000
   143  H    1.000000
   144  H    1.000000
   145  H    1.000000
   146  H    1.000000
   147  H    1.000000
   148  H    1.000000
   149  H    1.000000
   150  H    1.000000
   151  H    1.000000
   152  H    1.000000
   153  H    1.000000
   154  H    1.000000
   155  H    1.000000
   156  H    1.000000
   157  H    1.000000
   158  H    1.000000
 Sum of Mulliken charges = 624.00000

 Dipole moment (field-independent basis, Debye):
    X=              0.0000    Y=             -0.0000    Z=              0.0000  Tot=              0.0000
 Quadrupole moment (field-independent basis, Debye-Ang):
   XX=              0.0000   YY=             -0.0000   ZZ=             -0.0000
   XY=             -0.0000   XZ=              0.0000   YZ=              0.0000

 Normal termination of Gaussian 16 at Fri Oct 15 17:19:43 2021.
