 Gaussian 16, Revision A.03,
 Gaussian 16:  ES64L-G16RevA.03 25-Dec-2016

 --------------------------------------------------------
 #p PBE1PBE/Def2SVP td=(nstates=5) density=(transition=1)
 --------------------------------------------------------

 --------------------------------
 TDDFT excited states in gaussian
 --------------------------------
 Symbolic Z-matrix:
 Charge =  0 Multiplicity = 1

                         Standard orientation:
 ---------------------------------------------------------------------
 Center     Atomic      Atomic             Coordinates (Angstroms)
 Number     Number       Type             X           Y           Z
 ---------------------------------------------------------------------
      1         12           0       -9.383182   -1.047600    0.568824
      2          6           0      -10.189733    2.157489   -0.675003
      3          6           0       -8.233079    0.372212    3.456653
      4          6           0       -8.062029   -3.966950    1.344737
      5          6           0      -10.147650   -2.345319   -2.643241
      6          7           0       -9.349426    1.041245    1.325468
      7          6           0       -9.728494    2.115766    0.662233
      8          6           0       -9.857732    3.262530    1.648452
      9          6           0       -8.857306    2.861222    2.799918
     10          6           0       -8.779305    1.311982    2.531682
     11          6           0       -7.516530    3.684587    2.709696
     12          6           0      -11.287582    3.383310    2.235314
     13          6           0      -11.662190    4.801124    2.854489
     14          1           0      -10.658668    5.956621    2.898396
     15          7           0       -8.498501   -1.741879    2.232554
     16          6           0       -8.144968   -1.030728    3.407889
     17          6           0       -7.594136   -1.997716    4.385963
     18          6           0       -7.469232   -3.269506    3.719799
     19          6           0       -8.014924   -3.079458    2.358294
     20          6           0       -7.249543   -1.649719    5.791049
     21          6           0       -6.934845   -4.678532    4.188840
     22          8           0       -6.987255   -5.705868    3.499013
     23          6           0       -6.193505   -4.759671    5.491747
     24          7           0       -9.030175   -2.894427   -0.550678
     25          6           0       -8.520997   -3.958859    0.010460
     26          6           0       -8.469427   -5.181806   -0.861810
     27          6           0       -9.142934   -4.669554   -2.183284
     28          6           0       -9.562049   -3.226221   -1.758683
     29          6           0       -7.057648   -5.771090   -0.933445
     30          6           0      -10.348556   -5.481056   -2.640539
     31          6           0      -10.484319   -5.733136   -4.184959
     32          7           0      -10.120958   -0.322141   -1.338545
     33          6           0      -10.419395   -0.996328   -2.538862
     34          6           0      -11.061752   -0.087313   -3.424652
     35          6           0      -10.850735    1.202660   -2.841350
     36          6           0      -10.335680    1.004653   -1.585330
     37          6           0      -11.821902   -0.461303   -4.664710
     38          6           0      -11.085422    2.666011   -2.885680
     39          8           0      -11.574449    3.351543   -3.759384
     40          6           0      -10.415432    3.308326   -1.579414
     41          6           0      -11.155426    4.534379   -1.154800
     42          8           0      -12.299841    4.596288   -0.813990
     43          8           0      -10.359006    5.686458   -1.293655
     44          6           0      -11.067294    6.946568   -1.603334
     45          1           0       -7.675254    0.762389    4.310997
     46          1           0       -7.786435   -5.002764    1.550598
     47          1           0      -10.443494   -2.792333   -3.594692
     48          1           0       -9.685350    4.138737    1.023525
     49          1           0       -9.289874    3.035070    3.785765
     50          1           0       -7.544248    4.358075    1.853760
     51          1           0       -6.777213    2.932003    2.435516
     52          1           0       -7.297805    4.298586    3.583436
     53          1           0      -11.311941    2.638585    3.031910
     54          1           0      -11.981971    3.097968    1.445139
     55          1           0      -11.993881    4.573927    3.868778
     56          1           0      -12.553175    5.112441    2.308669
     57          1           0       -7.560788   -0.685541    6.191414
     58          1           0       -6.173331   -1.630016    5.960448
     59          1           0       -7.756741   -2.416710    6.376879
     60          1           0       -6.835044   -4.912628    6.359449
     61          1           0       -5.695447   -3.789617    5.468340
     62          1           0       -5.461602   -5.557574    5.369209
     63          1           0       -9.135427   -5.860747   -0.329441
     64          1           0       -8.464980   -4.618321   -3.034367
     65          1           0       -6.265684   -5.044843   -0.747952
     66          1           0       -6.941943   -6.105087   -1.963785
     67          1           0       -6.912186   -6.601146   -0.241755
     68          1           0      -11.280479   -5.007893   -2.331586
     69          1           0      -10.325324   -6.364103   -2.002130
     70          1           0       -9.748294   -5.160616   -4.749138
     71          1           0      -11.478423   -5.360931   -4.431713
     72          1           0      -10.433957   -6.756758   -4.557575
     73          1           0      -11.158153   -1.137076   -5.204247
     74          1           0      -12.065247    0.376488   -5.318410
     75          1           0      -12.711183   -1.032633   -4.396613
     76          1           0       -9.456171    3.740935   -1.861808
     77          1           0      -10.926618    7.622740   -0.759935
     78          1           0      -12.126715    6.787407   -1.807312
     79          1           0      -10.573579    7.338767   -2.492413
     80         12           0        9.591218   -0.498382   -0.121212
     81          6           0        7.835104    2.586566   -0.005577
     82          6           0       12.383668    1.328175    1.052640
     83          6           0       11.422113   -3.169525   -0.517643
     84          6           0        6.783636   -1.982155   -1.539836
     85          7           0       10.068432    1.754818    0.460943
     86          6           0        9.119247    2.746660    0.498242
     87          6           0        9.633167    4.044028    1.099117
     88          6           0       11.152539    3.630110    1.309891
     89          6           0       11.217019    2.135314    0.960458
     90          6           0       12.085568    4.570169    0.552290
     91          6           0        8.894380    4.367503    2.416341
     92          6           0        8.589133    5.875517    2.758745
     93          1           0        9.423882    6.967237    2.048706
     94          7           0       11.613012   -0.906487    0.290591
     95          6           0       12.596263    0.000466    0.687026
     96          6           0       13.863883   -0.733593    0.827062
     97          6           0       13.562436   -2.085889    0.460832
     98          6           0       12.131261   -2.076246    0.102134
     99          6           0       15.104798   -0.104114    1.176883
    100          6           0       14.498494   -3.289528    0.418364
    101          8           0       14.111637   -4.385827   -0.016630
    102          6           0       15.831989   -3.232619    1.053872
    103          7           0        9.191299   -2.293361   -1.014210
    104          6           0       10.090431   -3.279481   -0.959211
    105          6           0        9.555932   -4.567494   -1.665760
    106          6           0        8.036017   -4.235975   -1.803193
    107          6           0        7.960924   -2.779796   -1.466135
    108          6           0       10.306922   -4.934879   -2.995986
    109          6           0        7.321613   -5.115282   -0.706990
    110          6           0        7.027865   -4.523196    0.714459
    111          7           0        7.665449    0.088311   -0.580249
    112          6           0        6.628265   -0.649172   -1.179476
    113          6           0        5.473624    0.259272   -1.389013
    114          6           0        5.941909    1.508307   -0.998323
    115          6           0        7.219944    1.409251   -0.490374
    116          6           0        4.330624   -0.175762   -2.173055
    117          6           0        5.565216    2.919518   -1.023448
    118          8           0        4.532689    3.415940   -1.459514
    119          6           0        6.805849    3.710151   -0.392931
    120          6           0        7.337840    4.718614   -1.341464
    121          8           0        8.266675    4.555356   -2.127424
    122          8           0        6.616507    5.917631   -1.187454
    123          6           0        6.874393    7.067766   -2.024117
    124          1           0       13.209313    1.744852    1.633963
    125          1           0       11.971788   -4.102941   -0.658358
    126          1           0        5.958151   -2.568797   -1.947627
    127          1           0        9.536378    4.889930    0.418050
    128          1           0       11.377604    3.850217    2.353085
    129          1           0       12.850442    5.049046    1.162630
    130          1           0       11.607047    5.370937   -0.011576
    131          1           0       12.660353    3.945192   -0.132468
    132          1           0        9.426444    3.950693    3.271404
    133          1           0        7.980882    3.788888    2.274804
    134          1           0        8.799532    6.074651    3.809013
    135          1           0        7.502387    5.955520    2.733056
    136          1           0       15.505500   -0.669538    2.018461
    137          1           0       14.990740    0.977909    1.235090
    138          1           0       15.654185   -0.236960    0.244347
    139          1           0       16.551265   -2.625146    0.503752
    140          1           0       16.258289   -4.235034    1.088085
    141          1           0       15.721085   -2.712143    2.004701
    142          1           0        9.817311   -5.285491   -0.888382
    143          1           0        7.643179   -4.526499   -2.777876
    144          1           0       11.075940   -5.681156   -2.796088
    145          1           0       10.658881   -3.997002   -3.424436
    146          1           0        9.549462   -5.354172   -3.658005
    147          1           0        7.770704   -6.108603   -0.695402
    148          1           0        6.289977   -5.146887   -1.058719
    149          1           0        7.311346   -5.333933    1.384986
    150          1           0        5.971406   -4.305329    0.876294
    151          1           0        7.614673   -3.651718    1.002751
    152          1           0        4.695378   -0.628554   -3.094146
    153          1           0        3.776112    0.725959   -2.434870
    154          1           0        3.629658   -0.743298   -1.561569
    155          1           0        6.364882    4.220615    0.463828
    156          1           0        6.197781    7.144436   -2.874897
    157          1           0        7.941815    7.198330   -2.202703
    158          1           0        6.704929    7.875071   -1.311055
 ---------------------------------------------------------------------

 SCF Done:  E(RPBE1PBE) =  -4067.36440972     A.U. after   16 cycles

 Excitation energies and oscillator strengths:

 Excited State   1:      Singlet-A      1.8517 eV  669.57 nm  f=0.0000  <S**2>=0.000
     312 -> 313        0.70709
 This state for optimization and/or second-order correction.
 Total Energy, E(TD-HF/TD-DFT) =  -4067.29636136
 Copying the excited state density for this state as the 1-particle RhoCI density.

 Excited State   2:      Singlet-A      1.8851 eV  657.72 nm  f=0.4904  <S**2>=0.000
     309 -> 316        0.17873
     311 -> 313       -0.17598
     312 -> 314        0.66568

 Excited State   3:      Singlet-A      1.8893 eV  656.24 nm  f=0.2373  <S**2>=0.000
     310 -> 315        0.18099
     311 -> 313        0.66270
     312 -> 314        0.17654

 Excited State   4:      Singlet-A      2.0151 eV  615.26 nm  f=0.0000  <S**2>=0.000
     311 -> 314        0.70707

 Excited State   5:      Singlet-A      2.1342 eV  580.94 nm  f=0.0900  <S**2>=0.000
     310 -> 313        0.65954
     311 -> 315       -0.23086

 The electronic state is 1-A.
 Alpha  occ. eigenvalues --  -46.91951 -46.91849 -19.24678 -19.23965 -19.20129
 Alpha  occ. eigenvalues --  -19.20108 -19.19787 -19.19688 -19.18849 -19.18822
 Alpha  occ. eigenvalues --  -14.41478 -14.41390 -14.41052 -14.41019 -14.39242
 Alpha  occ. eigenvalues --  -14.39224 -14.38755 -14.37825 -10.36483 -10.35598
 Alpha  occ. eigenvalues --  -10.33560 -10.32669 -10.32290 -10.32190 -10.29561
 Alpha  occ. eigenvalues --  -10.28724 -10.28717 -10.28587 -10.28421 -10.28147
 Alpha  occ. eigenvalues --  -10.28104 -10.28095 -10.28065 -10.27964 -10.27911
 Alpha  occ. eigenvalues --  -10.27900 -10.27809 -10.27772 -10.27696 -10.27175
 Alpha  occ. eigenvalues --  -10.26796 -10.26573 -10.26424 -10.26390 -10.26208
 Alpha  occ. eigenvalues --  -10.26189 -10.25850 -10.25846 -10.25840 -10.25768
 Alpha  occ. eigenvalues --  -10.25697 -10.25516 -10.25461 -10.25453 -10.25360
 Alpha  occ. eigenvalues --  -10.25348 -10.25162 -10.25149 -10.25093 -10.25057
 Alpha  occ. eigenvalues --  -10.25050 -10.25031 -10.25015 -10.24810 -10.24699
 Alpha  occ. eigenvalues --  -10.24490 -10.24481 -10.24293 -10.24172 -10.23875
 Alpha  occ. eigenvalues --  -10.23855 -10.23747 -10.23685 -10.23582 -10.23416
 Alpha  occ. eigenvalues --  -10.23334 -10.23287 -10.23248 -10.23173 -10.23132
 Alpha  occ. eigenvalues --  -10.22824 -10.22794 -10.22765 -10.22727 -10.22604
 Alpha  occ. eigenvalues --  -10.22496  -3.14076  -3.13892  -1.86924  -1.86745
 Alpha  occ. eigenvalues --   -1.86463  -1.86285  -1.86266  -1.86112  -1.09971
 Alpha  occ. eigenvalues --   -1.09415  -1.04815  -1.04539  -1.04510  -1.03804
 Alpha  occ. eigenvalues --   -1.02082  -1.01865  -0.99624  -0.99318  -0.99037
 Alpha  occ. eigenvalues --   -0.98634  -0.97805  -0.96593  -0.96223  -0.95210
 Alpha  occ. eigenvalues --   -0.86415  -0.86276  -0.83993  -0.83501  -0.83023
 Alpha  occ. eigenvalues --   -0.82958  -0.82774  -0.81903  -0.81629  -0.81538
 Alpha  occ. eigenvalues --   -0.81404  -0.81156  -0.80670  -0.79986  -0.78373
 Alpha  occ. eigenvalues --   -0.78112  -0.78038  -0.77654  -0.76733  -0.76719
 Alpha  occ. eigenvalues --   -0.76296  -0.75847  -0.75230  -0.74977  -0.74852
 Alpha  occ. eigenvalues --   -0.74138  -0.73125  -0.72651  -0.71507  -0.71447
 Alpha  occ. eigenvalues --   -0.71237  -0.70719  -0.70124  -0.69689  -0.69333
 Alpha  occ. eigenvalues --   -0.69170  -0.66938  -0.66669  -0.66072  -0.65800
 Alpha  occ. eigenvalues --   -0.64148  -0.63696  -0.63246  -0.62913  -0.62396
 Alpha  occ. eigenvalues --   -0.61685  -0.61079  -0.60896  -0.60355  -0.59510
 Alpha  occ. eigenvalues --   -0.59386  -0.59232  -0.59041  -0.58979  -0.58808
 Alpha  occ. eigenvalues --   -0.57982  -0.56152  -0.55650  -0.54802  -0.54449
 Alpha  occ. eigenvalues --   -0.53966  -0.53681  -0.53615  -0.53030  -0.52614
 Alpha  occ. eigenvalues --   -0.52597  -0.52492  -0.52128  -0.51789  -0.51422
 Alpha  occ. eigenvalues --   -0.50861  -0.50850  -0.50108  -0.49968  -0.49821
 Alpha  occ. eigenvalues --   -0.49666  -0.48848  -0.48699  -0.48459  -0.48226
 Alpha  occ. eigenvalues --   -0.47846  -0.47744  -0.47705  -0.47667  -0.47601
 Alpha  occ. eigenvalues --   -0.47389  -0.47301  -0.46941  -0.46700  -0.46543
 Alpha  occ. eigenvalues --   -0.46368  -0.46254  -0.46201  -0.46009  -0.45860
 Alpha  occ. eigenvalues --   -0.45650  -0.45366  -0.45289  -0.45185  -0.44983
 Alpha  occ. eigenvalues --   -0.44767  -0.44495  -0.44459  -0.44347  -0.44120
 Alpha  occ. eigenvalues --   -0.43948  -0.43701  -0.43637  -0.43491  -0.43153
 Alpha  occ. eigenvalues --   -0.43016  -0.42911  -0.42886  -0.42724  -0.42589
 Alpha  occ. eigenvalues --   -0.42376  -0.42265  -0.42098  -0.42089  -0.41883
 Alpha  occ. eigenvalues --   -0.41681  -0.41672  -0.41313  -0.41010  -0.40975
 Alpha  occ. eigenvalues --   -0.40944  -0.40836  -0.40788  -0.40312  -0.40241
 Alpha  occ. eigenvalues --   -0.40229  -0.39785  -0.39761  -0.39676  -0.39439
 Alpha  occ. eigenvalues --   -0.39102  -0.39059  -0.39008  -0.38843  -0.38795
 Alpha  occ. eigenvalues --   -0.38585  -0.38517  -0.38463  -0.38265  -0.38193
 Alpha  occ. eigenvalues --   -0.37956  -0.37892  -0.37793  -0.37548  -0.37443
 Alpha  occ. eigenvalues --   -0.37331  -0.36916  -0.36847  -0.36783  -0.36693
 Alpha  occ. eigenvalues --   -0.36490  -0.36378  -0.36212  -0.36091  -0.35952
 Alpha  occ. eigenvalues --   -0.35952  -0.35778  -0.35441  -0.35244  -0.35050
 Alpha  occ. eigenvalues --   -0.34857  -0.34831  -0.34259  -0.33895  -0.33577
 Alpha  occ. eigenvalues --   -0.33495  -0.32754  -0.32674  -0.32458  -0.32451
 Alpha  occ. eigenvalues --   -0.32188  -0.31746  -0.31379  -0.31063  -0.30774
 Alpha  occ. eigenvalues --   -0.30743  -0.30316  -0.29325  -0.29310  -0.29106
 Alpha  occ. eigenvalues --   -0.28948  -0.28721  -0.28355  -0.26645  -0.26584
 Alpha  occ. eigenvalues --   -0.26306  -0.25886  -0.25811  -0.25709  -0.25688
 Alpha  occ. eigenvalues --   -0.25267  -0.25151  -0.24175  -0.20810  -0.20501
 Alpha  occ. eigenvalues --   -0.18809  -0.18482
 Alpha virt. eigenvalues --   -0.10957  -0.10718  -0.05424  -0.05205  -0.04114
 Alpha virt. eigenvalues --   -0.04018  -0.02224  -0.01677   0.00071   0.00223
 Alpha virt. eigenvalues --    0.00335   0.00493   0.01039   0.01413   0.01579

 Mulliken charges:
               1
     1  Mg  12.000000
     2  C    6.000000
     3  C    6.000000
     4  C    6.000000
     5  C    6.000000
     6  N    7.000000
     7  C    6.000000
     8  C    6.000000
     9  C    6.000000
    10  C    6.000000
    11  C    6.000000
    12  C    6.000000
    13  C    6.000000
    14  H    1.000000
    15  N    7.000000
    16  C    6.000000
    17  C    6.000000
    18  C    6.000000
    19  C    6.000000
    20  C    6.000000
    21  C    6.000000
    22  O    8.000000
    23  C    6.000000
    24  N    7.000000
    25  C    6.000000
    26  C    6.000000
    27  C    6.000000
    28  C    6.000000
    29  C    6.000000
    30  C    6.000000
    31  C    6.000000
    32  N    7.000000
    33  C    6.000000
    34  C    6.000000
    35  C    6.000000
    36  C    6.000000
    37  C    6.000000
    38  C    6.000000
    39  O    8.000000
    40  C    6.000000
    41  C    6.000000
    42  O    8.000000
    43  O    8.000000
    44  C    6.000000
    45  H    1.000000
    46  H    1.000000
    47  H    1.000000
    48  H    1.000000
    49  H    1.000000
    50  H    1.000000
    51  H    1.000000
    52  H    1.000000
    53  H    1.000000
    54  H    1.000000
    55  H    1.000000
    56  H    1.000000
    57  H    1.000000
    58  H    1.000000
    59  H    1.000000
    60  H    1.000000
    61  H    1.000000
    62  H    1.000000
    63  H    1.000000
    64  H    1.000000
    65  H    1.000000
    66  H    1.000000
    67  H    1.000000
    68  H    1.000000
    69  H    1.000000
    70  H    1.000000
    71  H    1.000000
    72  H    1.000000
    73  H    1.000000
    74  H    1.000000
    75  H    1.000000
    76  H    1.000000
    77  H    1.000000
    78  H    1.000000
    79  H    1.000000
    80  Mg  12.000000
    81  C    6.000000
    82  C    6.000000
    83  C    6.000000
    84  C    6.000000
    85  N    7.000000
    86  C    6.000000
    87  C    6.000000
    88  C    6.000000
    89  C    6.000000
    90  C    6.000000
    91  C    6.000000
    92  C    6.000000
    93  H    1.000000
    94  N    7.000000
    95  C    6.000000
    96  C    6.000000
    97  C    6.000000
    98  C    6.000000
    99  C    6.000000
   100  C    6.000000
   101  O    8.000000
   102  C    6.000000
   103  N    7.000000
   104  C    6.000000
   105  C    6.000000
   106  C    6.000000
   107  C    6.000000
   108  C    6.000000
   109  C    6.000000
   110  C    6.000000
   111  N    7.000000
   112  C    6.000000
   113  C    6.000000
   114  C    6.000000
   115  C    6.000000
   116  C    6.000000
   117  C    6.000000
   118  O    8.000000
   119  C    6.000000
   120  C    6.000000
   121  O    8.000000
   122  O    8.000000
   123  C    6.000000
   124  H    1.000000
   125  H    1.000000
   126  H    1.000000
   127  H    1.000000
   128  H    1.000000
   129  H    1.000000
   130  H    1.000000
   131  H    1.000000
   132  H    1.000000
   133  H    1.000000
   134  H    1.000000
   135  H    1.000000
   136  H    1.000000
   137  H    1.000000
   138  H    1.000000
   139  H    1.000000
   140  H    1.000000
   141  H    1.000000
   142  H    1.000000
   143  H    1.000000
   144  H    1.000000
   145  H    1.000000
   146  H    1.000000
   147  H    1.000000
   148  H    1.000000
   149  H    1.000000
   150  H    1.000000
   151  H    1.000000
   152  H    1.000000
   153  H    1.000000
   154  H    1.000000
   155  H    1.000000
   156  H    1.000000
   157  H    1.000000
   158  H    1.000000
 Sum of Mulliken charges = 624.00000

 Dipole moment (field-independent basis, Debye):
    X=             -0.0000    Y=              0.0000    Z=             -0.0000  Tot=              0.0000
 Quadrupole moment (field-independent basis, Debye-Ang):
   XX=             -0.0000   YY=              0.0000   ZZ=              0.0000
   XY=              0.0000   XZ=             -0.0000   YZ=             -0.0000

 Normal termination of Gaussian 16 at Thu Oct 14 07:01:19 2021.
