 Gaussian 16, Revision A.03,
 Gaussian 16:  ES64L-G16RevA.03 25-Dec-2016

 ---------------------------------------------------
 #p PBE1PBE/Def2SVP td=(nstates=5) density=(current)
 ---------------------------------------------------

 --------------------------------
 TDDFT excited states in gaussian
 --------------------------------
 Symbolic Z-matrix:
 Charge =  0 Multiplicity = 1

                         Standard orientation:
 ---------------------------------------------------------------------
 Center     Atomic      Atomic             Coordinates (Angstroms)
 Number     Number       Type             X           Y           Z
 ---------------------------------------------------------------------
      1         12           0        0.797515   -0.014105   -0.026802
      2          6           0       -2.704184   -0.035363    0.202810
      3          6           0        0.922928   -3.302137    0.515989
      4          6           0        4.021285    0.218823   -0.190114
      5          6           0        0.548400    3.566057    0.430428
      6          7           0       -0.752325   -1.442534    0.420266
      7          6           0       -2.080497   -1.317003    0.306201
      8          6           0       -2.798600   -2.599946    0.636685
      9          6           0       -1.620718   -3.528254    1.138285
     10          6           0       -0.415424   -2.741659    0.660655
     11          6           0       -1.549409   -3.885683    2.658387
     12          6           0       -3.466875   -3.231792   -0.689064
     13          6           0       -4.954777   -3.669247   -0.487745
     14          1           0       -5.675843   -4.002691   -1.903820
     15          7           0        2.208733   -1.348535   -0.110145
     16          6           0        2.088057   -2.712218    0.096174
     17          6           0        3.322731   -3.341261   -0.284542
     18          6           0        4.329086   -2.325530   -0.553179
     19          6           0        3.527185   -1.050898   -0.406156
     20          6           0        3.441265   -4.888940   -0.179765
     21          6           0        5.804526   -2.322907   -0.936564
     22          8           0        6.492620   -1.325094   -1.217918
     23          6           0        6.363266   -3.695753   -1.064716
     24          7           0        2.027005    1.669521    0.266352
     25          6           0        3.370418    1.417340    0.136399
     26          6           0        4.193082    2.674250    0.422014
     27          6           0        3.111203    3.779570    0.302828
     28          6           0        1.804911    2.988977    0.399100
     29          6           0        4.967156    2.514215    1.790351
     30          6           0        3.172967    4.678515   -1.004327
     31          6           0        2.541635    6.076968   -0.912941
     32          7           0       -0.735566    1.508071    0.223975
     33          6           0       -0.652427    2.857871    0.385622
     34          6           0       -1.963382    3.467456    0.375595
     35          6           0       -2.787418    2.336330    0.230886
     36          6           0       -2.010982    1.168940    0.207312
     37          6           0       -2.423638    4.939271    0.485660
     38          6           0       -4.162127    1.943100    0.094807
     39          8           0       -5.181489    2.552087   -0.099164
     40          6           0       -4.152582    0.333767    0.241799
     41          6           0       -5.080801   -0.042567   -0.827715
     42          8           0       -4.858769   -0.177878   -2.057528
     43          8           0       -6.266288   -0.206271   -0.215608
     44          6           0       -7.427606   -0.553319   -1.035945
     45          1           0        0.967139   -4.389989    0.601853
     46          1           0        5.102078    0.306952   -0.320386
     47          1           0        0.532562    4.657167    0.471443
     48          1           0       -3.606874   -2.506030    1.362457
     49          1           0       -1.521545   -4.490147    0.634912
     50          1           0       -0.685648   -3.370777    3.078932
     51          1           0       -1.392109   -4.963749    2.687138
     52          1           0       -2.390258   -3.619734    3.298011
     53          1           0       -2.922675   -4.057261   -1.149437
     54          1           0       -3.348993   -2.482724   -1.472151
     55          1           0       -5.521998   -2.880119    0.005421
     56          1           0       -5.095105   -4.594581    0.070454
     57          1           0        3.134396   -5.312861   -1.134924
     58          1           0        2.673501   -5.345638    0.445996
     59          1           0        4.343488   -5.287237    0.283816
     60          1           0        5.888501   -4.310006   -1.829008
     61          1           0        6.246124   -4.081368   -0.051222
     62          1           0        7.436007   -3.715966   -1.258926
     63          1           0        4.926494    2.723730   -0.382929
     64          1           0        3.225040    4.482306    1.128188
     65          1           0        4.510916    3.140593    2.556796
     66          1           0        6.023954    2.777297    1.827700
     67          1           0        4.914852    1.537558    2.271955
     68          1           0        2.520651    4.140668   -1.692832
     69          1           0        4.147851    4.828246   -1.468812
     70          1           0        1.664625    6.174489   -1.554134
     71          1           0        3.150947    6.951469   -1.142086
     72          1           0        2.132585    6.140510    0.094419
     73          1           0       -1.624315    5.458617    1.014306
     74          1           0       -3.366318    5.016502    1.029021
     75          1           0       -2.495265    5.313311   -0.535591
     76          1           0       -4.601099    0.051433    1.194445
     77          1           0       -7.715894   -1.579477   -0.808599
     78          1           0       -7.268816   -0.332074   -2.090841
     79          1           0       -8.274584    0.040570   -0.692624
 ---------------------------------------------------------------------

 SCF Done:  E(RPBE1PBE) =  -2033.68136839     A.U. after   16 cycles

 Excitation energies and oscillator strengths:

 Excited State   1:      Singlet-A      1.8754 eV  661.10 nm  f=0.3712  <S**2>=0.000
     155 ->158        -0.18965
     156 ->157         0.68801
 This state for optimization and/or second-order correction.
 Total Energy, E(TD-HF/TD-DFT) =  -2033.61244765
 Copying the excited state density for this state as the 1-particle RhoCI density.

 Excited State   2:      Singlet-A      2.2462 eV  551.98 nm  f=0.0674  <S**2>=0.000
     155 ->157         0.63541
     156 ->158         0.29955

 Excited State   3:      Singlet-A      3.0033 eV  412.83 nm  f=0.0001  <S**2>=0.000
     153 ->157         0.31625
     154 ->157         0.60214

 Excited State   4:      Singlet-A      3.1370 eV  395.23 nm  f=0.0028  <S**2>=0.000
     153 ->157         0.60603
     154 ->157        -0.32928

 Excited State   5:      Singlet-A      3.2051 eV  386.83 nm  f=0.0392  <S**2>=0.000
     151 ->157         0.49476
     151 ->159        -0.18707
     152 ->157        -0.34331
     156 ->158         0.24777

 The electronic state is 1-A.
 Alpha  occ. eigenvalues --  -46.90990 -19.25517 -19.19817 -19.19294 -19.18685
 Alpha  occ. eigenvalues --  -14.42067 -14.41288 -14.39122 -14.38095 -10.35558
 Alpha  occ. eigenvalues --  -10.33031 -10.31843 -10.29445 -10.28987 -10.28490
 Alpha  occ. eigenvalues --  -10.28228 -10.28223 -10.28073 -10.27725 -10.27607
 Alpha  occ. eigenvalues --  -10.27027 -10.26963 -10.26574 -10.26221 -10.26181
 Alpha  occ. eigenvalues --  -10.25670 -10.25608 -10.25580 -10.25547 -10.25510
 Alpha  occ. eigenvalues --  -10.25200 -10.25055 -10.24933 -10.24450 -10.24134
 Alpha  occ. eigenvalues --  -10.24107 -10.23980 -10.23943 -10.23498 -10.23378
 Alpha  occ. eigenvalues --  -10.23261 -10.22839 -10.22235  -3.13404  -1.86231
 Alpha  occ. eigenvalues --   -1.85791  -1.85643  -1.10709  -1.05567  -1.04029
 Alpha  occ. eigenvalues --   -1.00316  -0.99851  -0.98990  -0.98275  -0.97039
 Alpha  occ. eigenvalues --   -0.87106  -0.83428  -0.82534  -0.82357  -0.81796
 Alpha  occ. eigenvalues --   -0.81174  -0.80623  -0.78817  -0.78121  -0.76694
 Alpha  occ. eigenvalues --   -0.76462  -0.75633  -0.74628  -0.72463  -0.71638
 Alpha  occ. eigenvalues --   -0.71212  -0.70240  -0.69739  -0.67250  -0.66600
 Alpha  occ. eigenvalues --   -0.63598  -0.63208  -0.62308  -0.61624  -0.60482
 Alpha  occ. eigenvalues --   -0.60008  -0.59435  -0.59015  -0.56356  -0.54781
 Alpha  occ. eigenvalues --   -0.54379  -0.53764  -0.53267  -0.52630  -0.51563
 Alpha  occ. eigenvalues --   -0.50910  -0.50397  -0.50048  -0.48882  -0.48494
 Alpha  occ. eigenvalues --   -0.47937  -0.47669  -0.47460  -0.47098  -0.46771
 Alpha  occ. eigenvalues --   -0.46229  -0.45955  -0.45593  -0.45226  -0.45040
 Alpha  occ. eigenvalues --   -0.44766  -0.44574  -0.44029  -0.43722  -0.43520
 Alpha  occ. eigenvalues --   -0.43081  -0.42710  -0.42641  -0.42123  -0.41968
 Alpha  occ. eigenvalues --   -0.41596  -0.41203  -0.41103  -0.40603  -0.40480
 Alpha  occ. eigenvalues --   -0.40274  -0.39946  -0.39651  -0.38916  -0.38582
 Alpha  occ. eigenvalues --   -0.38395  -0.38284  -0.37936  -0.37709  -0.37657
 Alpha  occ. eigenvalues --   -0.37427  -0.37043  -0.36866  -0.36687  -0.36232
 Alpha  occ. eigenvalues --   -0.36016  -0.35695  -0.35521  -0.35201  -0.34518
 Alpha  occ. eigenvalues --   -0.33680  -0.32831  -0.32440  -0.32018  -0.30475
 Alpha  occ. eigenvalues --   -0.30357  -0.29457  -0.29182  -0.27870  -0.26983
 Alpha  occ. eigenvalues --   -0.26407  -0.25971  -0.25573  -0.25211  -0.21111
 Alpha  occ. eigenvalues --   -0.18791
 Alpha virt. eigenvalues --   -0.11008  -0.05744  -0.04469  -0.01950   0.00171
 Alpha virt. eigenvalues --    0.00842   0.00956   0.01490   0.03186   0.03925
 Alpha virt. eigenvalues --    0.04559   0.05453   0.06369   0.06825   0.07291

 Mulliken charges:
               1
     1  Mg   0.998256
     2  C    0.049190
     3  C   -0.075054
     4  C   -0.059411
     5  C   -0.099268
     6  N   -0.388828
     7  C    0.092316
     8  C   -0.149469
     9  C   -0.104920
    10  C    0.055869
    11  C    0.019950
    12  C    0.016670
    13  C   -0.165769
    14  H    0.029195
    15  N   -0.591089
    16  C    0.197175
    17  C   -0.138656
    18  C   -0.129295
    19  C    0.198241
    20  C    0.033925
    21  C    0.080626
    22  O   -0.255384
    23  C   -0.029824
    24  N   -0.407782
    25  C    0.092401
    26  C   -0.110353
    27  C   -0.091276
    28  C    0.090700
    29  C    0.010285
    30  C   -0.023675
    31  C   -0.080362
    32  N   -0.404117
    33  C    0.137666
    34  C   -0.198052
    35  C   -0.019806
    36  C    0.113023
    37  C    0.084142
    38  C    0.110830
    39  O   -0.197053
    40  C   -0.172884
    41  C    0.288733
    42  O   -0.294245
    43  O   -0.352206
    44  C    0.122961
    45  H   -0.007591
    46  H    0.031414
    47  H   -0.007583
    48  H    0.051508
    49  H    0.043634
    50  H    0.051385
    51  H    0.044709
    52  H    0.048837
    53  H    0.039380
    54  H    0.069567
    55  H    0.068240
    56  H    0.062600
    57  H    0.056536
    58  H    0.030203
    59  H    0.057282
    60  H    0.075734
    61  H    0.055921
    62  H    0.045785
    63  H    0.056230
    64  H    0.042405
    65  H    0.028635
    66  H    0.050727
    67  H    0.050198
    68  H    0.048629
    69  H    0.051385
    70  H    0.042047
    71  H    0.049655
    72  H    0.037011
    73  H    0.039751
    74  H    0.070280
    75  H    0.068825
    76  H    0.079128
    77  H    0.052049
    78  H    0.078968
    79  H    0.053137
 Sum of Mulliken charges =  -0.00000

 Dipole moment (field-independent basis, Debye):
    X=              1.3103    Y=             -2.8988    Z=              3.3385  Tot=              4.6115
 Quadrupole moment (field-independent basis, Debye-Ang):
   XX=           -273.5899   YY=           -218.2575   ZZ=           -260.1334
   XY=             17.9963   XZ=             -2.2594   YZ=             -3.2168

 Normal termination of Gaussian 16 at Wed Oct 13 17:20:02 2021.
