 Gaussian 16, Revision A.03,
 Gaussian 16:  ES64L-G16RevA.03 25-Dec-2016

 --------------------------------------------------------
 #p PBE1PBE/Def2SVP td=(nstates=5) density=(transition=1)
 --------------------------------------------------------

 --------------------------------
 TDDFT excited states in gaussian
 --------------------------------
 Symbolic Z-matrix:
 Charge =  0 Multiplicity = 1

                         Standard orientation:
 ---------------------------------------------------------------------
 Center     Atomic      Atomic             Coordinates (Angstroms)
 Number     Number       Type             X           Y           Z
 ---------------------------------------------------------------------
      1         12           0       -9.329460   -1.005782    0.858906
      2          6           0      -10.373312    1.937662   -0.802695
      3          6           0       -7.647483    0.920164    2.916786
      4          6           0       -7.630590   -3.735547    1.629781
      5          6           0      -10.671486   -2.757422   -1.926610
      6          7           0       -9.241464    1.248369    1.065145
      7          6           0       -9.764321    2.210405    0.396264
      8          6           0       -9.597649    3.551681    1.139695
      9          6           0       -8.313236    3.287219    2.078776
     10          6           0       -8.325532    1.705085    1.979380
     11          6           0       -6.948054    3.926740    1.606042
     12          6           0      -10.887885    3.858478    2.064926
     13          6           0      -11.357601    5.329361    2.307821
     14          1           0      -10.237926    6.433335    2.258605
     15          7           0       -7.983829   -1.406785    2.252250
     16          6           0       -7.443371   -0.425941    3.070174
     17          6           0       -6.476938   -1.083388    4.018869
     18          6           0       -6.511851   -2.490669    3.641766
     19          6           0       -7.370970   -2.676473    2.469232
     20          6           0       -5.693579   -0.270791    5.032501
     21          6           0       -5.788762   -3.632607    4.321375
     22          8           0       -5.815068   -4.810290    3.937744
     23          6           0       -5.021848   -3.353564    5.549976
     24          7           0       -9.251092   -3.069136    0.005340
     25          6           0       -8.416176   -3.952985    0.521202
     26          6           0       -8.756525   -5.409970   -0.026348
     27          6           0       -9.766302   -5.026013   -1.238789
     28          6           0       -9.939317   -3.525357   -1.020230
     29          6           0       -7.497008   -6.245829   -0.429517
     30          6           0      -11.145096   -5.761056   -1.307252
     31          6           0      -11.352535   -6.721646   -2.449911
     32          7           0      -10.524993   -0.584522   -0.920078
     33          6           0      -10.964037   -1.431434   -1.918261
     34          6           0      -11.561629   -0.690751   -2.949495
     35          6           0      -11.312421    0.641075   -2.567494
     36          6           0      -10.658155    0.695388   -1.359566
     37          6           0      -12.192143   -1.179146   -4.154952
     38          6           0      -11.601205    1.959412   -2.980730
     39          8           0      -12.269732    2.491045   -3.908426
     40          6           0      -10.755995    2.866750   -1.978042
     41          6           0      -11.541796    4.060814   -1.576700
     42          8           0      -12.597490    4.093703   -0.947770
     43          8           0      -10.781965    5.211224   -1.958537
     44          6           0      -11.367880    6.526407   -1.669783
     45          1           0       -7.220157    1.600152    3.657269
     46          1           0       -7.106978   -4.642489    1.937113
     47          1           0      -11.149250   -3.311082   -2.738390
     48          1           0       -9.222976    4.272732    0.413657
     49          1           0       -8.489236    3.771546    3.038660
     50          1           0       -7.000662    4.285893    0.578483
     51          1           0       -6.141828    3.193423    1.599698
     52          1           0       -6.759217    4.755747    2.287999
     53          1           0      -10.791383    3.376404    3.037878
     54          1           0      -11.734541    3.311351    1.649809
     55          1           0      -11.857038    5.478035    3.265731
     56          1           0      -11.939262    5.617236    1.431211
     57          1           0       -5.687067   -0.738534    6.017675
     58          1           0       -6.060771    0.749831    5.140440
     59          1           0       -4.702311   -0.057732    4.633143
     60          1           0       -4.249552   -2.605125    5.370267
     61          1           0       -4.563414   -4.272395    5.915733
     62          1           0       -5.606088   -3.005441    6.401786
     63          1           0       -9.347724   -5.995785    0.677409
     64          1           0       -9.265672   -5.034236   -2.208106
     65          1           0       -6.597002   -5.634985   -0.356838
     66          1           0       -7.803062   -6.608571   -1.410975
     67          1           0       -7.495702   -7.133314    0.201985
     68          1           0      -11.915029   -4.994638   -1.398879
     69          1           0      -11.326200   -6.279145   -0.365293
     70          1           0      -10.361884   -6.793544   -2.896885
     71          1           0      -12.014386   -6.240468   -3.170929
     72          1           0      -11.656077   -7.717564   -2.129631
     73          1           0      -12.922056   -1.926554   -3.845117
     74          1           0      -11.575831   -1.811063   -4.794502
     75          1           0      -12.698878   -0.357782   -4.661929
     76          1           0       -9.842979    3.174401   -2.488799
     77          1           0      -10.748277    7.323669   -2.081183
     78          1           0      -11.295581    6.707815   -0.597258
     79          1           0      -12.346987    6.593210   -2.142937
     80         12           0        9.738488   -0.402647   -0.243980
     81          6           0        7.725102    2.532466   -0.185083
     82          6           0       12.422236    1.522207    0.712586
     83          6           0       11.462271   -3.216573   -0.415066
     84          6           0        6.988168   -2.185265   -1.719561
     85          7           0       10.078435    1.862950    0.163893
     86          6           0        9.049482    2.785703    0.209680
     87          6           0        9.693831    4.131559    0.688796
     88          6           0       11.262442    3.816162    0.947590
     89          6           0       11.256720    2.330200    0.574528
     90          6           0       12.268753    4.712489    0.196311
     91          6           0        8.960906    4.904225    1.862081
     92          6           0        8.521350    6.303871    1.544226
     93          1           0        9.206239    7.185017    0.533133
     94          7           0       11.735946   -0.833633    0.242742
     95          6           0       12.658132    0.099065    0.599733
     96          6           0       13.833312   -0.637830    0.987665
     97          6           0       13.623381   -1.973093    0.580695
     98          6           0       12.220589   -2.101849    0.067923
     99          6           0       15.058341    0.105657    1.546228
    100          6           0       14.641610   -3.071224    0.521593
    101          8           0       14.370106   -4.192038    0.029341
    102          6           0       16.020646   -2.811324    1.003416
    103          7           0        9.242841   -2.412966   -1.050892
    104          6           0       10.094220   -3.369901   -0.920269
    105          6           0        9.607982   -4.851635   -1.362092
    106          6           0        8.178735   -4.490955   -1.794890
    107          6           0        8.106198   -3.007881   -1.525430
    108          6           0       10.541849   -5.393578   -2.505478
    109          6           0        7.008880   -5.268696   -1.095720
    110          6           0        6.719691   -4.903554    0.379667
    111          7           0        7.873151    0.083728   -0.925858
    112          6           0        6.902312   -0.757123   -1.519202
    113          6           0        5.674835    0.030527   -1.697059
    114          6           0        5.951874    1.318941   -1.180241
    115          6           0        7.297354    1.292044   -0.679569
    116          6           0        4.338971   -0.500546   -2.297923
    117          6           0        5.369156    2.536197   -0.967495
    118          8           0        4.275919    2.979884   -1.254139
    119          6           0        6.439085    3.408561   -0.253416
    120          6           0        6.600496    4.635472   -0.998910
    121          8           0        7.381096    4.788875   -1.945116
    122          8           0        5.586815    5.535880   -0.650248
    123          6           0        5.540030    6.758164   -1.490438
    124          1           0       13.381552    2.042103    0.763962
    125          1           0       12.086861   -4.089169   -0.617752
    126          1           0        6.120832   -2.679908   -2.161618
    127          1           0        9.463817    4.730597   -0.191361
    128          1           0       11.490672    4.012366    1.994270
    129          1           0       12.958810    5.186779    0.895317
    130          1           0       11.851719    5.481763   -0.453391
    131          1           0       12.810536    4.014803   -0.442290
    132          1           0        9.595748    4.925758    2.748083
    133          1           0        8.050002    4.336560    2.052267
    134          1           0        8.792315    6.912159    2.407898
    135          1           0        7.451742    6.277643    1.339042
    136          1           0       14.809254    1.111806    1.884232
    137          1           0       15.832555    0.162386    0.782141
    138          1           0       15.385120   -0.505981    2.386575
    139          1           0       15.937387   -2.499885    2.044671
    140          1           0       16.483167   -1.986327    0.460251
    141          1           0       16.654568   -3.682339    0.842304
    142          1           0        9.596195   -5.535259   -0.512840
    143          1           0        8.110053   -4.520681   -2.882559
    144          1           0       10.910871   -4.535172   -3.066714
    145          1           0        9.932968   -5.991273   -3.184720
    146          1           0       11.403644   -5.997275   -2.219778
    147          1           0        7.119296   -6.338069   -1.272784
    148          1           0        6.103016   -5.075529   -1.669497
    149          1           0        7.571520   -4.597046    0.985820
    150          1           0        6.165614   -5.728374    0.829169
    151          1           0        6.002476   -4.084487    0.328758
    152          1           0        3.469850   -0.268667   -1.682240
    153          1           0        4.356689   -1.568729   -2.511232
    154          1           0        4.059963    0.125622   -3.145745
    155          1           0        5.959740    3.595975    0.706858
    156          1           0        5.213235    6.515903   -2.501361
    157          1           0        6.500890    7.255502   -1.617675
    158          1           0        4.967812    7.494755   -0.926174
 ---------------------------------------------------------------------

 SCF Done:  E(RPBE1PBE) =  -4067.34329644     A.U. after   16 cycles

 Excitation energies and oscillator strengths:

 Excited State   1:      Singlet-A      1.8676 eV  663.88 nm  f=0.3910  <S**2>=0.000
     310 -> 316        0.18686
     312 -> 313        0.68741
 This state for optimization and/or second-order correction.
 Total Energy, E(TD-HF/TD-DFT) =  -4067.27466412
 Copying the excited state density for this state as the 1-particle RhoCI density.

 Excited State   2:      Singlet-A      1.9300 eV  642.40 nm  f=0.0000  <S**2>=0.000
     312 -> 314        0.70708

 Excited State   3:      Singlet-A      1.9488 eV  636.22 nm  f=0.3349  <S**2>=0.000
     309 -> 315        0.20403
     311 -> 314        0.68049

 Excited State   4:      Singlet-A      2.0170 eV  614.69 nm  f=0.0000  <S**2>=0.000
     311 -> 313        0.70706

 Excited State   5:      Singlet-A      2.2068 eV  561.84 nm  f=0.0669  <S**2>=0.000
     309 -> 314        0.12278
     310 -> 313        0.64222
     312 -> 316       -0.25378

 The electronic state is 1-A.
 Alpha  occ. eigenvalues --  -46.93258 -46.92700 -19.25088 -19.24518 -19.20310
 Alpha  occ. eigenvalues --  -19.19674 -19.19112 -19.18743 -19.18672 -19.18206
 Alpha  occ. eigenvalues --  -14.42114 -14.41561 -14.41489 -14.41066 -14.39591
 Alpha  occ. eigenvalues --  -14.39574 -14.39352 -14.38210 -10.36200 -10.35758
 Alpha  occ. eigenvalues --  -10.32137 -10.31933 -10.31574 -10.30758 -10.29484
 Alpha  occ. eigenvalues --  -10.29228 -10.29146 -10.29080 -10.28858 -10.28580
 Alpha  occ. eigenvalues --  -10.28311 -10.28301 -10.28279 -10.28266 -10.28225
 Alpha  occ. eigenvalues --  -10.28206 -10.28167 -10.28127 -10.27989 -10.27842
 Alpha  occ. eigenvalues --  -10.26818 -10.26745 -10.26671 -10.26616 -10.26404
 Alpha  occ. eigenvalues --  -10.26368 -10.26226 -10.26206 -10.26189 -10.26098
 Alpha  occ. eigenvalues --  -10.26037 -10.26035 -10.25986 -10.25982 -10.25582
 Alpha  occ. eigenvalues --  -10.25556 -10.25424 -10.25387 -10.25377 -10.25359
 Alpha  occ. eigenvalues --  -10.25327 -10.25317 -10.25183 -10.25069 -10.25029
 Alpha  occ. eigenvalues --  -10.25014 -10.24969 -10.24937 -10.24614 -10.24527
 Alpha  occ. eigenvalues --  -10.24298 -10.23882 -10.23834 -10.23797 -10.23731
 Alpha  occ. eigenvalues --  -10.23703 -10.23546 -10.23470 -10.23430 -10.23374
 Alpha  occ. eigenvalues --  -10.23274 -10.23254 -10.23006 -10.22803 -10.22301
 Alpha  occ. eigenvalues --  -10.22076  -3.15182  -3.14737  -1.88036  -1.87590
 Alpha  occ. eigenvalues --   -1.87580  -1.87360  -1.87120  -1.86946  -1.09245
 Alpha  occ. eigenvalues --   -1.08582  -1.04392  -1.04032  -1.02914  -1.01945
 Alpha  occ. eigenvalues --   -1.01443  -1.01280  -1.00793  -1.00340  -0.99777
 Alpha  occ. eigenvalues --   -0.98246  -0.98139  -0.97654  -0.96661  -0.95998
 Alpha  occ. eigenvalues --   -0.87277  -0.86937  -0.84107  -0.83754  -0.82856
 Alpha  occ. eigenvalues --   -0.82439  -0.82115  -0.82106  -0.81825  -0.81540
 Alpha  occ. eigenvalues --   -0.81458  -0.81165  -0.81032  -0.79993  -0.78621
 Alpha  occ. eigenvalues --   -0.78501  -0.78200  -0.77749  -0.76922  -0.76907
 Alpha  occ. eigenvalues --   -0.76268  -0.76134  -0.75703  -0.75096  -0.74927
 Alpha  occ. eigenvalues --   -0.74457  -0.73192  -0.72495  -0.71976  -0.71936
 Alpha  occ. eigenvalues --   -0.71176  -0.70850  -0.70175  -0.70114  -0.69501
 Alpha  occ. eigenvalues --   -0.69378  -0.67617  -0.67135  -0.66653  -0.66051
 Alpha  occ. eigenvalues --   -0.64832  -0.63603  -0.63320  -0.62893  -0.62334
 Alpha  occ. eigenvalues --   -0.62218  -0.61536  -0.61285  -0.60346  -0.60014
 Alpha  occ. eigenvalues --   -0.59925  -0.59842  -0.59490  -0.59188  -0.59075
 Alpha  occ. eigenvalues --   -0.58850  -0.56168  -0.55734  -0.54994  -0.54652
 Alpha  occ. eigenvalues --   -0.54640  -0.54184  -0.53817  -0.53328  -0.52939
 Alpha  occ. eigenvalues --   -0.52773  -0.52528  -0.52242  -0.52191  -0.51787
 Alpha  occ. eigenvalues --   -0.51397  -0.50885  -0.50622  -0.50262  -0.49931
 Alpha  occ. eigenvalues --   -0.49917  -0.49498  -0.48744  -0.48467  -0.48243
 Alpha  occ. eigenvalues --   -0.47987  -0.47716  -0.47666  -0.47627  -0.47467
 Alpha  occ. eigenvalues --   -0.47372  -0.47260  -0.46993  -0.46938  -0.46657
 Alpha  occ. eigenvalues --   -0.46575  -0.46170  -0.45999  -0.45886  -0.45643
 Alpha  occ. eigenvalues --   -0.45565  -0.45427  -0.44985  -0.44911  -0.44883
 Alpha  occ. eigenvalues --   -0.44518  -0.44397  -0.44165  -0.44142  -0.43895
 Alpha  occ. eigenvalues --   -0.43820  -0.43680  -0.43591  -0.43414  -0.43334
 Alpha  occ. eigenvalues --   -0.43268  -0.43184  -0.42963  -0.42715  -0.42549
 Alpha  occ. eigenvalues --   -0.42542  -0.42401  -0.42253  -0.42211  -0.42081
 Alpha  occ. eigenvalues --   -0.41911  -0.41580  -0.41490  -0.41445  -0.41393
 Alpha  occ. eigenvalues --   -0.41287  -0.40980  -0.40944  -0.40805  -0.40661
 Alpha  occ. eigenvalues --   -0.40341  -0.40221  -0.40064  -0.39863  -0.39653
 Alpha  occ. eigenvalues --   -0.39545  -0.39177  -0.38901  -0.38714  -0.38707
 Alpha  occ. eigenvalues --   -0.38660  -0.38538  -0.38311  -0.38122  -0.38060
 Alpha  occ. eigenvalues --   -0.38050  -0.37715  -0.37704  -0.37452  -0.37383
 Alpha  occ. eigenvalues --   -0.37255  -0.36832  -0.36759  -0.36665  -0.36556
 Alpha  occ. eigenvalues --   -0.36367  -0.36304  -0.36264  -0.36121  -0.36017
 Alpha  occ. eigenvalues --   -0.35884  -0.35785  -0.35590  -0.35564  -0.35441
 Alpha  occ. eigenvalues --   -0.35201  -0.35074  -0.34923  -0.34734  -0.34117
 Alpha  occ. eigenvalues --   -0.33869  -0.33427  -0.32790  -0.32351  -0.31995
 Alpha  occ. eigenvalues --   -0.31763  -0.31557  -0.31471  -0.31155  -0.30941
 Alpha  occ. eigenvalues --   -0.30648  -0.30575  -0.29699  -0.29197  -0.28868
 Alpha  occ. eigenvalues --   -0.28735  -0.28699  -0.28532  -0.27331  -0.26918
 Alpha  occ. eigenvalues --   -0.25970  -0.25871  -0.25814  -0.25674  -0.25570
 Alpha  occ. eigenvalues --   -0.25260  -0.25201  -0.24925  -0.21020  -0.20772
 Alpha  occ. eigenvalues --   -0.19223  -0.18901
 Alpha virt. eigenvalues --   -0.11121  -0.11084  -0.05981  -0.05327  -0.04337
 Alpha virt. eigenvalues --   -0.04098  -0.02134  -0.02058  -0.00461  -0.00236
 Alpha virt. eigenvalues --    0.00064   0.00289   0.01244   0.01417   0.01512

 Mulliken charges:
               1
     1  Mg  11.999954
     2  C    6.000502
     3  C    5.999956
     4  C    5.999774
     5  C    6.000047
     6  N    7.000501
     7  C    5.999198
     8  C    6.000251
     9  C    5.999379
    10  C    6.001276
    11  C    5.999828
    12  C    6.000116
    13  C    5.999983
    14  H    0.999981
    15  N    6.999443
    16  C    6.001130
    17  C    6.001241
    18  C    6.000459
    19  C    6.001087
    20  C    5.999708
    21  C    6.000703
    22  O    8.000517
    23  C    5.999837
    24  N    6.999916
    25  C    6.001201
    26  C    5.999379
    27  C    6.000265
    28  C    5.999009
    29  C    6.000025
    30  C    6.000300
    31  C    5.999955
    32  N    7.000247
    33  C    5.999179
    34  C    5.998695
    35  C    6.000226
    36  C    5.998985
    37  C    6.000140
    38  C    5.999569
    39  O    7.998647
    40  C    5.999975
    41  C    5.999803
    42  O    7.999432
    43  O    8.000217
    44  C    6.000104
    45  H    1.000428
    46  H    1.000115
    47  H    0.999372
    48  H    1.000198
    49  H    0.999910
    50  H    1.000788
    51  H    1.001004
    52  H    1.000088
    53  H    0.999464
    54  H    0.999961
    55  H    0.999535
    56  H    0.999980
    57  H    1.000076
    58  H    1.000371
    59  H    1.001916
    60  H    1.000998
    61  H    1.000050
    62  H    0.999661
    63  H    0.999648
    64  H    1.000279
    65  H    1.000679
    66  H    1.000083
    67  H    0.999569
    68  H    0.999932
    69  H    0.999318
    70  H    1.000044
    71  H    0.999938
    72  H    0.999405
    73  H    0.998945
    74  H    0.999197
    75  H    0.999340
    76  H    1.000212
    77  H    0.999951
    78  H    0.999757
    79  H    0.999651
    80  Mg  12.000470
    81  C    6.009449
    82  C    5.983771
    83  C    5.999377
    84  C    6.015652
    85  N    7.002859
    86  C    5.978159
    87  C    6.006573
    88  C    5.984385
    89  C    6.033986
    90  C    6.000653
    91  C    6.001342
    92  C    6.002056
    93  H    0.995396
    94  N    6.987298
    95  C    6.039125
    96  C    6.017704
    97  C    6.014868
    98  C    6.026303
    99  C    5.999035
   100  C    6.012368
   101  O    8.028449
   102  C    5.995951
   103  N    7.009466
   104  C    6.026088
   105  C    5.993269
   106  C    6.007786
   107  C    5.961565
   108  C    5.995724
   109  C    6.004063
   110  C    6.003113
   111  N    7.001220
   112  C    5.957685
   113  C    5.973736
   114  C    5.998479
   115  C    5.974257
   116  C    6.000980
   117  C    5.985418
   118  O    7.971933
   119  C    5.999137
   120  C    5.995170
   121  O    7.991428
   122  O    8.000158
   123  C    6.002670
   124  H    1.004615
   125  H    1.006938
   126  H    0.992372
   127  H    1.002692
   128  H    1.003783
   129  H    1.001987
   130  H    1.010004
   131  H    0.996662
   132  H    0.992189
   133  H    1.005206
   134  H    0.996167
   135  H    1.004724
   136  H    1.015925
   137  H    1.016387
   138  H    1.013462
   139  H    1.007024
   140  H    1.006981
   141  H    1.013732
   142  H    1.000319
   143  H    0.998219
   144  H    0.999656
   145  H    1.010401
   146  H    0.995990
   147  H    0.991132
   148  H    1.002997
   149  H    0.989352
   150  H    0.995433
   151  H    1.007938
   152  H    0.982669
   153  H    0.982840
   154  H    0.983167
   155  H    0.992457
   156  H    0.998968
   157  H    0.993990
   158  H    0.995043
 Sum of Mulliken charges = 624.00000

 Dipole moment (field-independent basis, Debye):
    X=              9.8419    Y=             -2.5361    Z=              2.6695  Tot=             10.5081
 Quadrupole moment (field-independent basis, Debye-Ang):
   XX=            180.7021   YY=             -1.4324   ZZ=             -2.2145
   XY=            -27.6966   XZ=             17.2418   YZ=             -0.0372

 Normal termination of Gaussian 16 at Thu Oct 14 07:01:58 2021.
