 Gaussian 16, Revision A.03,
 Gaussian 16:  ES64L-G16RevA.03 25-Dec-2016

 --------------------------------------------------------
 #p PBE1PBE/Def2SVP td=(nstates=5) density=(transition=1)
 --------------------------------------------------------

 --------------------------------
 TDDFT excited states in gaussian
 --------------------------------
 Symbolic Z-matrix:
 Charge =  0 Multiplicity = 1

                         Standard orientation:
 ---------------------------------------------------------------------
 Center     Atomic      Atomic             Coordinates (Angstroms)
 Number     Number       Type             X           Y           Z
 ---------------------------------------------------------------------
      1         12           0      -15.029299    0.253386   -0.107331
      2          6           0      -11.905345    1.437020   -0.984458
      3          6           0      -14.933863   -1.777668   -2.885106
      4          6           0      -17.831306   -1.351093    1.064680
      5          6           0      -14.998601    2.231461    2.710021
      6          7           0      -13.519666   -0.269875   -1.618234
      7          6           0      -12.336530    0.418794   -1.799920
      8          6           0      -11.574839   -0.073003   -3.027835
      9          6           0      -12.709907   -0.844992   -3.798405
     10          6           0      -13.749382   -1.010811   -2.699503
     11          6           0      -13.239852   -0.202491   -5.159499
     12          6           0      -10.274032   -0.893888   -2.755818
     13          6           0       -9.072750   -0.520873   -3.598639
     14          1           0       -8.714934   -1.608203   -4.599881
     15          7           0      -16.167099   -1.331214   -0.823194
     16          6           0      -15.990147   -2.001221   -1.967514
     17          6           0      -17.061185   -2.960523   -2.174486
     18          6           0      -17.944506   -2.931296   -1.108254
     19          6           0      -17.323342   -1.884344   -0.188263
     20          6           0      -17.097098   -3.955552   -3.430152
     21          6           0      -19.280025   -3.736440   -0.964646
     22          8           0      -19.579606   -4.576468   -1.859752
     23          6           0      -20.169168   -3.577956    0.208779
     24          7           0      -16.163873    0.242204    1.819120
     25          6           0      -17.325663   -0.351694    1.967133
     26          6           0      -18.122453    0.197392    3.132064
     27          6           0      -17.239197    1.310237    3.791620
     28          6           0      -16.073246    1.353614    2.691736
     29          6           0      -19.649247    0.484394    2.968550
     30          6           0      -16.672014    1.121817    5.228515
     31          6           0      -16.214094    2.420815    5.858834
     32          7           0      -13.692989    1.588322    0.730728
     33          6           0      -13.847678    2.410771    1.870601
     34          6           0      -12.716069    3.295142    1.932285
     35          6           0      -11.912194    2.990118    0.806913
     36          6           0      -12.555303    1.930370    0.173412
     37          6           0      -12.552049    4.493946    2.854672
     38          6           0      -10.759868    3.378238    0.158361
     39          8           0       -9.858247    4.136108    0.392408
     40          6           0      -10.600501    2.264713   -1.002437
     41          6           0       -9.547514    1.306186   -0.448367
     42          8           0       -9.748523    0.422996    0.362898
     43          8           0       -8.341566    1.657850   -1.032993
     44          6           0       -7.167564    0.932798   -0.557956
     45          1           0      -15.056692   -2.292564   -3.840054
     46          1           0      -18.727989   -1.893774    1.370119
     47          1           0      -14.918241    3.006910    3.474644
     48          1           0      -11.331813    0.801107   -3.631268
     49          1           0      -12.360428   -1.871227   -3.917280
     50          1           0      -14.236101   -0.638568   -5.232335
     51          1           0      -12.743406   -0.577124   -6.054993
     52          1           0      -13.256238    0.885806   -5.216555
     53          1           0      -10.579467   -1.917949   -2.971506
     54          1           0       -9.984142   -1.029899   -1.714118
     55          1           0       -8.243820   -0.335471   -2.915176
     56          1           0       -9.238049    0.383654   -4.184299
     57          1           0      -16.241923   -3.885167   -4.103652
     58          1           0      -18.001533   -3.796462   -4.018290
     59          1           0      -17.021169   -5.004405   -3.146739
     60          1           0      -20.503855   -2.543159    0.274232
     61          1           0      -19.728339   -4.008247    1.108108
     62          1           0      -21.092582   -4.068723   -0.096205
     63          1           0      -18.181900   -0.449894    4.007286
     64          1           0      -17.637831    2.311587    3.627162
     65          1           0      -19.943359    0.006082    2.033286
     66          1           0      -19.911593    1.539480    3.054552
     67          1           0      -20.276074    0.018775    3.729204
     68          1           0      -15.886668    0.370744    5.144609
     69          1           0      -17.482845    0.638885    5.773789
     70          1           0      -16.369345    2.334835    6.934580
     71          1           0      -16.745537    3.313616    5.527200
     72          1           0      -15.133033    2.506182    5.748447
     73          1           0      -11.714464    5.140744    2.593357
     74          1           0      -12.455009    4.115465    3.871411
     75          1           0      -13.443631    5.121076    2.850382
     76          1           0      -10.400499    2.725175   -1.970436
     77          1           0       -6.989826    1.176420    0.489628
     78          1           0       -6.291699    1.130553   -1.174952
     79          1           0       -7.371416   -0.137453   -0.575650
     80         12           0       14.354629   -1.041605   -0.095667
     81          6           0       14.639829    2.427031   -0.721907
     82          6           0       10.972717   -0.746779   -0.548239
     83          6           0       14.021132   -4.104615    1.118651
     84          6           0       17.737788   -1.057947    0.801790
     85          7           0       12.947354    0.690870   -0.421639
     86          6           0       13.335049    1.990913   -0.756782
     87          6           0       12.125719    2.770697   -1.329233
     88          6           0       10.951576    1.728413   -1.242796
     89          6           0       11.634016    0.426363   -0.739383
     90          6           0        9.671122    2.181524   -0.563361
     91          6           0       12.297019    3.366829   -2.735125
     92          6           0       12.018872    4.893275   -2.810503
     93          1           0       10.967631    5.314078   -3.813394
     94          7           0       12.703239   -2.273238    0.149701
     95          6           0       11.384064   -1.990271   -0.050623
     96          6           0       10.643152   -3.218905    0.108405
     97          6           0       11.518225   -4.195844    0.750654
     98          6           0       12.793534   -3.497610    0.698808
     99          6           0        9.044516   -3.303110   -0.110232
    100          6           0       11.228953   -5.401971    1.536023
    101          8           0       12.017180   -6.158414    2.027699
    102          6           0        9.751958   -5.713278    1.758722
    103          7           0       15.687038   -2.315917    1.032318
    104          6           0       15.307925   -3.566686    1.359502
    105          6           0       16.513463   -4.399592    1.801391
    106          6           0       17.704548   -3.537632    1.352982
    107          6           0       17.034758   -2.228796    0.998444
    108          6           0       16.504492   -4.647479    3.379396
    109          6           0       18.353274   -4.207340    0.036861
    110          6           0       17.521495   -4.072225   -1.267790
    111          7           0       15.980734    0.312970   -0.065016
    112          6           0       17.261390    0.150428    0.304719
    113          6           0       17.942604    1.404390    0.125677
    114          6           0       16.978034    2.291112   -0.314730
    115          6           0       15.756379    1.614113   -0.363920
    116          6           0       19.397814    1.748367    0.380281
    117          6           0       16.822029    3.706386   -0.661084
    118          8           0       17.475636    4.711182   -0.648961
    119          6           0       15.317654    3.840529   -1.016412
    120          6           0       14.780838    4.869519   -0.091548
    121          8           0       14.905920    4.768052    1.103029
    122          8           0       14.223806    5.959704   -0.740497
    123          6           0       13.934602    7.163970    0.107944
    124          1           0        9.939470   -0.685279   -0.896547
    125          1           0       13.989643   -5.154475    1.418714
    126          1           0       18.827908   -1.018213    0.852505
    127          1           0       11.859824    3.563023   -0.629196
    128          1           0       10.578099    1.562017   -2.253395
    129          1           0        9.836732    3.079176    0.030532
    130          1           0        9.208705    1.414756    0.058712
    131          1           0        9.002070    2.487371   -1.367285
    132          1           0       11.659551    2.986870   -3.533495
    133          1           0       13.305331    3.189558   -3.108581
    134          1           0       12.942414    5.463026   -2.912728
    135          1           0       11.599929    5.196234   -1.851762
    136          1           0        8.840259   -4.171923   -0.735868
    137          1           0        8.585313   -2.468471   -0.638608
    138          1           0        8.397097   -3.338612    0.765915
    139          1           0        9.375474   -5.871999    0.747922
    140          1           0        9.346246   -4.812435    2.218051
    141          1           0        9.558152   -6.628924    2.318268
    142          1           0       16.604065   -5.349624    1.273696
    143          1           0       18.495133   -3.280434    2.058261
    144          1           0       17.014476   -5.595603    3.551936
    145          1           0       15.544242   -4.730761    3.889523
    146          1           0       17.105574   -3.829804    3.776849
    147          1           0       18.598834   -5.259953    0.176232
    148          1           0       19.240805   -3.646289   -0.256057
    149          1           0       17.872314   -4.666957   -2.110524
    150          1           0       17.562975   -3.026964   -1.574491
    151          1           0       16.488906   -4.325607   -1.025463
    152          1           0       20.104743    1.201999   -0.243673
    153          1           0       19.551157    1.452950    1.417891
    154          1           0       19.589476    2.820779    0.344686
    155          1           0       15.337480    4.238549   -2.030793
    156          1           0       12.945884    7.405457   -0.282209
    157          1           0       14.616283    7.993136   -0.080607
    158          1           0       13.915245    7.079665    1.194219
 ---------------------------------------------------------------------

 SCF Done:  E(RPBE1PBE) =  -4067.38180295     A.U. after   18 cycles

 Excitation energies and oscillator strengths:

 Excited State   1:      Singlet-A      1.8679 eV  663.77 nm  f=0.4132  <S**2>=0.000
     309 -> 316        0.16799
     311 -> 313        0.69420
     311 <- 313       -0.11160
 This state for optimization and/or second-order correction.
 Total Energy, E(TD-HF/TD-DFT) =  -4067.31316010
 Copying the excited state density for this state as the 1-particle RhoCI density.

 Excited State   2:      Singlet-A      1.8859 eV  657.43 nm  f=0.3367  <S**2>=0.000
     310 -> 315        0.14491
     312 -> 314        0.69196

 Excited State   3:      Singlet-A      1.8968 eV  653.66 nm  f=0.0000  <S**2>=0.000
     312 -> 313        0.70710

 Excited State   4:      Singlet-A      2.0620 eV  601.27 nm  f=0.0000  <S**2>=0.000
     311 -> 314        0.70710

 Excited State   5:      Singlet-A      2.2023 eV  562.98 nm  f=0.1278  <S**2>=0.000
     309 -> 313        0.66414
     311 -> 316       -0.22440

 The electronic state is 1-A.
 Alpha  occ. eigenvalues --  -46.92901 -46.92837 -19.25731 -19.25386 -19.20332
 Alpha  occ. eigenvalues --  -19.20113 -19.19748 -19.19423 -19.18604 -19.18522
 Alpha  occ. eigenvalues --  -14.41762 -14.41659 -14.41630 -14.41353 -14.40019
 Alpha  occ. eigenvalues --  -14.39405 -14.38836 -14.38462 -10.36360 -10.35741
 Alpha  occ. eigenvalues --  -10.33867 -10.32242 -10.31466 -10.30992 -10.30264
 Alpha  occ. eigenvalues --  -10.29725 -10.29198 -10.29057 -10.28981 -10.28581
 Alpha  occ. eigenvalues --  -10.28550 -10.28508 -10.28476 -10.28432 -10.28163
 Alpha  occ. eigenvalues --  -10.27936 -10.27893 -10.27676 -10.27390 -10.26970
 Alpha  occ. eigenvalues --  -10.26907 -10.26883 -10.26771 -10.26497 -10.26405
 Alpha  occ. eigenvalues --  -10.26174 -10.26086 -10.26053 -10.25900 -10.25820
 Alpha  occ. eigenvalues --  -10.25806 -10.25790 -10.25712 -10.25570 -10.25509
 Alpha  occ. eigenvalues --  -10.25458 -10.25370 -10.25352 -10.25307 -10.25294
 Alpha  occ. eigenvalues --  -10.25190 -10.24852 -10.24725 -10.24688 -10.24597
 Alpha  occ. eigenvalues --  -10.24594 -10.24584 -10.24570 -10.24552 -10.24488
 Alpha  occ. eigenvalues --  -10.24321 -10.24184 -10.24173 -10.24073 -10.23909
 Alpha  occ. eigenvalues --  -10.23876 -10.23687 -10.23537 -10.23463 -10.23392
 Alpha  occ. eigenvalues --  -10.23373 -10.23160 -10.23012 -10.22675 -10.22331
 Alpha  occ. eigenvalues --  -10.21486  -3.14889  -3.14858  -1.87711  -1.87682
 Alpha  occ. eigenvalues --   -1.87276  -1.87236  -1.87104  -1.87085  -1.10430
 Alpha  occ. eigenvalues --   -1.10361  -1.06368  -1.05813  -1.05086  -1.03521
 Alpha  occ. eigenvalues --   -1.02952  -1.02384  -0.99786  -0.99210  -0.98936
 Alpha  occ. eigenvalues --   -0.98505  -0.98419  -0.97943  -0.97253  -0.96578
 Alpha  occ. eigenvalues --   -0.86660  -0.86282  -0.83510  -0.83155  -0.83036
 Alpha  occ. eigenvalues --   -0.82814  -0.82548  -0.82219  -0.82051  -0.81421
 Alpha  occ. eigenvalues --   -0.80828  -0.80617  -0.80577  -0.80403  -0.78691
 Alpha  occ. eigenvalues --   -0.78678  -0.77976  -0.77729  -0.77275  -0.76729
 Alpha  occ. eigenvalues --   -0.76404  -0.75454  -0.75238  -0.75152  -0.74654
 Alpha  occ. eigenvalues --   -0.74393  -0.72641  -0.72024  -0.71668  -0.71391
 Alpha  occ. eigenvalues --   -0.71011  -0.70978  -0.70415  -0.69805  -0.69556
 Alpha  occ. eigenvalues --   -0.69524  -0.67520  -0.66985  -0.66198  -0.66160
 Alpha  occ. eigenvalues --   -0.64124  -0.63664  -0.63602  -0.63528  -0.62533
 Alpha  occ. eigenvalues --   -0.62478  -0.61659  -0.61595  -0.60076  -0.59950
 Alpha  occ. eigenvalues --   -0.59876  -0.59807  -0.59616  -0.59262  -0.59024
 Alpha  occ. eigenvalues --   -0.58761  -0.56802  -0.56453  -0.54986  -0.54399
 Alpha  occ. eigenvalues --   -0.54239  -0.54194  -0.53822  -0.53614  -0.53322
 Alpha  occ. eigenvalues --   -0.53032  -0.52582  -0.52577  -0.52126  -0.52118
 Alpha  occ. eigenvalues --   -0.50875  -0.50583  -0.50176  -0.49864  -0.49745
 Alpha  occ. eigenvalues --   -0.49680  -0.49189  -0.48767  -0.48629  -0.48393
 Alpha  occ. eigenvalues --   -0.48149  -0.48067  -0.47980  -0.47813  -0.47526
 Alpha  occ. eigenvalues --   -0.47253  -0.47056  -0.46910  -0.46665  -0.46649
 Alpha  occ. eigenvalues --   -0.46511  -0.46238  -0.46092  -0.45750  -0.45688
 Alpha  occ. eigenvalues --   -0.45530  -0.45291  -0.45273  -0.44801  -0.44610
 Alpha  occ. eigenvalues --   -0.44587  -0.44354  -0.44308  -0.44033  -0.44025
 Alpha  occ. eigenvalues --   -0.43998  -0.43887  -0.43793  -0.43621  -0.43432
 Alpha  occ. eigenvalues --   -0.43303  -0.43031  -0.42906  -0.42904  -0.42526
 Alpha  occ. eigenvalues --   -0.42294  -0.42230  -0.42068  -0.42006  -0.41645
 Alpha  occ. eigenvalues --   -0.41632  -0.41311  -0.41088  -0.41065  -0.40865
 Alpha  occ. eigenvalues --   -0.40863  -0.40747  -0.40645  -0.40559  -0.40282
 Alpha  occ. eigenvalues --   -0.40130  -0.40070  -0.40058  -0.39977  -0.39773
 Alpha  occ. eigenvalues --   -0.39617  -0.39495  -0.39285  -0.38928  -0.38881
 Alpha  occ. eigenvalues --   -0.38845  -0.38564  -0.38471  -0.38286  -0.38125
 Alpha  occ. eigenvalues --   -0.38067  -0.37902  -0.37775  -0.37678  -0.37547
 Alpha  occ. eigenvalues --   -0.37424  -0.37306  -0.37222  -0.37125  -0.37110
 Alpha  occ. eigenvalues --   -0.36945  -0.36903  -0.36838  -0.36510  -0.36286
 Alpha  occ. eigenvalues --   -0.36266  -0.35895  -0.35703  -0.35401  -0.35210
 Alpha  occ. eigenvalues --   -0.35140  -0.34945  -0.34638  -0.34227  -0.34008
 Alpha  occ. eigenvalues --   -0.33968  -0.33262  -0.33077  -0.33019  -0.32786
 Alpha  occ. eigenvalues --   -0.32492  -0.32068  -0.31600  -0.31467  -0.31324
 Alpha  occ. eigenvalues --   -0.31158  -0.30531  -0.29696  -0.29565  -0.29319
 Alpha  occ. eigenvalues --   -0.29085  -0.28743  -0.28710  -0.27260  -0.27208
 Alpha  occ. eigenvalues --   -0.26807  -0.26436  -0.26119  -0.25965  -0.25720
 Alpha  occ. eigenvalues --   -0.25352  -0.25084  -0.24983  -0.21099  -0.20910
 Alpha  occ. eigenvalues --   -0.19161  -0.18989
 Alpha virt. eigenvalues --   -0.11557  -0.11135  -0.05513  -0.04969  -0.03958
 Alpha virt. eigenvalues --   -0.03656  -0.02560  -0.01901  -0.01093  -0.00972
 Alpha virt. eigenvalues --    0.00837   0.00848   0.01188   0.01209   0.01999

 Mulliken charges:
               1
     1  Mg  11.999978
     2  C    5.999674
     3  C    6.000603
     4  C    6.000211
     5  C    5.999595
     6  N    7.000092
     7  C    6.000920
     8  C    5.999712
     9  C    6.000310
    10  C    5.998840
    11  C    6.000016
    12  C    5.999770
    13  C    5.999802
    14  H    1.000611
    15  N    7.000117
    16  C    5.998891
    17  C    5.999228
    18  C    5.999608
    19  C    5.998823
    20  C    6.000069
    21  C    5.999540
    22  O    7.999253
    23  C    6.000193
    24  N    6.999846
    25  C    5.998948
    26  C    6.000622
    27  C    5.999814
    28  C    6.001098
    29  C    6.000019
    30  C    5.999851
    31  C    5.999958
    32  N    7.000052
    33  C    6.001338
    34  C    6.000902
    35  C    6.000124
    36  C    6.000718
    37  C    6.000016
    38  C    6.000502
    39  O    8.001221
    40  C    6.000128
    41  C    6.000136
    42  O    8.000315
    43  O    8.000010
    44  C    5.999751
    45  H    0.999769
    46  H    0.999628
    47  H    1.000048
    48  H    0.999902
    49  H    1.000129
    50  H    1.000104
    51  H    0.999826
    52  H    0.999546
    53  H    1.000449
    54  H    1.000062
    55  H    1.000174
    56  H    0.999859
    57  H    0.999433
    58  H    0.999364
    59  H    0.999488
    60  H    0.999619
    61  H    0.999697
    62  H    0.999466
    63  H    0.999685
    64  H    0.999795
    65  H    1.000194
    66  H    0.999560
    67  H    0.999782
    68  H    1.000192
    69  H    1.000252
    70  H    1.000061
    71  H    0.999902
    72  H    0.999858
    73  H    1.000385
    74  H    1.000625
    75  H    1.000475
    76  H    1.000355
    77  H    1.000148
    78  H    1.000513
    79  H    1.000430
    80  Mg  12.000670
    81  C    5.977037
    82  C    6.005698
    83  C    6.018669
    84  C    5.998107
    85  N    6.991445
    86  C    6.031775
    87  C    5.987668
    88  C    6.010200
    89  C    5.974499
    90  C    6.002701
    91  C    6.000146
    92  C    5.997229
    93  H    1.007298
    94  N    7.002864
    95  C    5.966423
    96  C    5.976741
    97  C    5.980079
    98  C    5.974979
    99  C    6.001081
   100  C    5.990154
   101  O    7.969988
   102  C    6.002157
   103  N    7.005427
   104  C    5.966006
   105  C    6.009193
   106  C    5.993498
   107  C    6.027319
   108  C    6.005206
   109  C    5.994921
   110  C    5.998512
   111  N    6.995268
   112  C    6.033737
   113  C    6.031809
   114  C    5.998380
   115  C    6.038507
   116  C    6.000957
   117  C    6.014716
   118  O    8.025366
   119  C    6.001076
   120  C    6.007185
   121  O    8.001550
   122  O    8.002259
   123  C    5.997696
   124  H    0.989204
   125  H    0.994939
   126  H    1.011148
   127  H    1.001564
   128  H    0.997462
   129  H    0.989706
   130  H    1.006121
   131  H    0.994368
   132  H    1.007532
   133  H    0.994345
   134  H    0.995690
   135  H    1.001773
   136  H    0.984178
   137  H    0.982619
   138  H    0.981188
   139  H    0.993956
   140  H    0.995269
   141  H    0.985180
   142  H    0.999661
   143  H    0.999293
   144  H    0.996339
   145  H    1.006274
   146  H    0.988211
   147  H    1.010433
   148  H    0.997308
   149  H    1.004263
   150  H    0.989456
   151  H    1.017190
   152  H    1.019578
   153  H    1.016854
   154  H    1.013438
   155  H    1.007700
   156  H    1.005864
   157  H    1.002385
   158  H    1.003315
 Sum of Mulliken charges = 624.00000

 Dipole moment (field-independent basis, Debye):
    X=              8.4429    Y=              6.7028    Z=             -0.6834  Tot=             10.8017
 Quadrupole moment (field-independent basis, Debye-Ang):
   XX=            223.3363   YY=             -9.0427   ZZ=             -1.0351
   XY=             78.7855   XZ=            -10.9085   YZ=              3.4796

 Normal termination of Gaussian 16 at Thu Oct 14 18:07:43 2021.
