 Gaussian 16, Revision A.03,
 Gaussian 16:  ES64L-G16RevA.03 25-Dec-2016

 --------------------------------------------------------
 #p PBE1PBE/Def2SVP td=(nstates=5) density=(transition=1)
 --------------------------------------------------------

 --------------------------------
 TDDFT excited states in gaussian
 --------------------------------
 Symbolic Z-matrix:
 Charge =  0 Multiplicity = 1

                         Standard orientation:
 ---------------------------------------------------------------------
 Center     Atomic      Atomic             Coordinates (Angstroms)
 Number     Number       Type             X           Y           Z
 ---------------------------------------------------------------------
      1         12           0       -8.754424   -0.448056   -0.135075
      2          6           0       -7.112864    2.519113    0.887276
      3          6           0      -11.096260    1.656822   -1.652932
      4          6           0      -10.342164   -3.092599   -1.259800
      5          6           0       -6.802926   -2.265322    2.096321
      6          7           0       -9.006580    1.812012   -0.357646
      7          6           0       -8.152998    2.809195    0.005884
      8          6           0       -8.594844    4.238359   -0.352810
      9          6           0       -9.983192    3.862865   -1.081003
     10          6           0      -10.010653    2.365388   -0.997351
     11          6           0      -11.267475    4.461444   -0.382088
     12          6           0       -7.588784    4.970279   -1.299786
     13          6           0       -6.741489    6.171377   -0.898240
     14          1           0       -6.428501    7.284752   -1.889165
     15          7           0      -10.443820   -0.719472   -1.364433
     16          6           0      -11.320769    0.268902   -1.834164
     17          6           0      -12.421765   -0.405462   -2.485014
     18          6           0      -12.150484   -1.770800   -2.528450
     19          6           0      -10.906200   -1.907981   -1.746606
     20          6           0      -13.459728    0.421576   -3.163693
     21          6           0      -12.946696   -2.943478   -3.099901
     22          8           0      -12.597314   -4.126160   -3.037756
     23          6           0      -14.143991   -2.614386   -3.901552
     24          7           0       -8.693345   -2.404313    0.401243
     25          6           0       -9.289496   -3.382657   -0.345213
     26          6           0       -8.658207   -4.784328   -0.044877
     27          6           0       -7.652860   -4.477277    1.057418
     28          6           0       -7.756859   -2.941102    1.267844
     29          6           0       -9.715308   -5.889746    0.280363
     30          6           0       -6.254704   -4.945919    0.626516
     31          6           0       -5.415292   -5.668438    1.616455
     32          7           0       -7.326865   -0.016620    1.305554
     33          6           0       -6.596212   -0.847674    2.116604
     34          6           0       -5.652175   -0.112309    2.903827
     35          6           0       -5.706565    1.280955    2.406327
     36          6           0       -6.763923    1.249305    1.413970
     37          6           0       -4.736405   -0.698595    3.991935
     38          6           0       -5.170564    2.662107    2.502993
     39          8           0       -4.185024    3.098539    3.121543
     40          6           0       -6.074390    3.499238    1.507079
     41          6           0       -6.635866    4.510744    2.456796
     42          8           0       -7.631199    4.421726    3.165428
     43          8           0       -5.984550    5.638279    2.371253
     44          6           0       -6.266971    6.726372    3.338666
     45          1           0      -11.653137    2.419667   -2.200432
     46          1           0      -10.798238   -4.048658   -1.523900
     47          1           0       -6.151782   -2.862056    2.737916
     48          1           0       -8.787125    4.768067    0.581057
     49          1           0      -10.085459    4.084061   -2.143864
     50          1           0      -11.151671    4.832878    0.635742
     51          1           0      -12.046141    3.701487   -0.327138
     52          1           0      -11.640607    5.280720   -0.996901
     53          1           0       -8.172738    5.323752   -2.149739
     54          1           0       -6.835191    4.271520   -1.660780
     55          1           0       -5.776295    5.686866   -0.750037
     56          1           0       -7.257949    6.512704   -0.001040
     57          1           0      -13.491174    0.235136   -4.236284
     58          1           0      -13.270384    1.485588   -3.019591
     59          1           0      -14.469315    0.226990   -2.803062
     60          1           0      -13.887327   -1.859041   -4.644412
     61          1           0      -14.901914   -2.087527   -3.321658
     62          1           0      -14.556601   -3.453817   -4.460293
     63          1           0       -8.191943   -5.020621   -1.001222
     64          1           0       -7.868195   -5.052222    1.957914
     65          1           0      -10.747342   -5.589752    0.099269
     66          1           0       -9.693516   -6.228232    1.315584
     67          1           0       -9.450319   -6.813842   -0.233166
     68          1           0       -5.769607   -4.009350    0.354498
     69          1           0       -6.245221   -5.632350   -0.219778
     70          1           0       -4.487930   -5.097445    1.655396
     71          1           0       -5.325487   -6.718850    1.339735
     72          1           0       -5.776511   -5.624857    2.644165
     73          1           0       -5.248506   -0.645088    4.951952
     74          1           0       -3.804233   -0.133861    3.992853
     75          1           0       -4.524192   -1.755077    3.826433
     76          1           0       -5.398135    3.968862    0.793004
     77          1           0       -7.293846    7.089211    3.310785
     78          1           0       -5.603423    7.586225    3.248817
     79          1           0       -6.104918    6.501358    4.392361
     80         12           0        7.997594   -0.859236   -0.141438
     81          6           0       10.585494    1.288038   -0.752934
     82          6           0        5.800998    1.645611   -0.196383
     83          6           0        5.707218   -3.031854    0.668775
     84          6           0       10.487559   -3.330572    0.487153
     85          7           0        8.189453    1.298396   -0.275198
     86          6           0        9.299883    1.887784   -0.784689
     87          6           0        9.005684    3.255471   -1.337455
     88          6           0        7.505226    3.445610   -0.875648
     89          6           0        7.140239    2.080032   -0.335131
     90          6           0        7.275859    4.616906    0.109450
     91          6           0        9.319063    3.419948   -2.947465
     92          6           0       10.103577    4.653264   -3.420450
     93          1           0       10.054089    5.916225   -2.504273
     94          7           0        6.085424   -0.751460    0.010636
     95          6           0        5.292378    0.350948   -0.027773
     96          6           0        3.911772    0.070183    0.282593
     97          6           0        3.836713   -1.289072    0.330948
     98          6           0        5.260537   -1.730140    0.457532
     99          6           0        2.990709    1.259456    0.484690
    100          6           0        2.589200   -2.183862    0.471239
    101          8           0        2.626722   -3.388456    0.567499
    102          6           0        1.297472   -1.422307    0.516539
    103          7           0        8.141528   -2.858649    0.656744
    104          6           0        6.992079   -3.547482    0.774379
    105          6           0        7.267038   -5.017959    1.104297
    106          6           0        8.779976   -5.182022    0.732984
    107          6           0        9.192065   -3.698455    0.640997
    108          6           0        6.921247   -5.542540    2.562711
    109          6           0        9.091193   -5.898419   -0.634877
    110          6           0        8.582576   -5.388212   -1.957466
    111          7           0       10.110895   -1.109418   -0.192973
    112          6           0       11.005355   -2.122526    0.167165
    113          6           0       12.400636   -1.700234   -0.009575
    114          6           0       12.284027   -0.353258   -0.384135
    115          6           0       10.881594   -0.085938   -0.473152
    116          6           0       13.652493   -2.529815    0.117603
    117          6           0       12.978750    0.807575   -0.708265
    118          8           0       14.166874    1.087407   -0.742213
    119          6           0       11.932837    1.846989   -1.188100
    120          6           0       12.345562    3.072031   -0.465586
    121          8           0       12.090344    3.327189    0.713814
    122          8           0       13.154823    3.852022   -1.239805
    123          6           0       13.907713    4.947371   -0.620550
    124          1           0        5.094723    2.450071   -0.412998
    125          1           0        4.992831   -3.825689    0.893394
    126          1           0       11.133902   -4.192676    0.668750
    127          1           0        9.561724    4.017999   -0.791938
    128          1           0        6.880917    3.582000   -1.758407
    129          1           0        7.150606    4.212831    1.113933
    130          1           0        6.354206    5.127242   -0.170260
    131          1           0        8.160940    5.250224    0.047938
    132          1           0        8.336539    3.418208   -3.419581
    133          1           0        9.913126    2.580705   -3.307828
    134          1           0        9.682553    5.032540   -4.351194
    135          1           0       11.126529    4.367714   -3.665373
    136          1           0        3.262424    1.921885    1.306702
    137          1           0        1.969763    1.114229    0.837283
    138          1           0        3.002357    1.698315   -0.513011
    139          1           0        1.192841   -0.789342   -0.364340
    140          1           0        1.365833   -0.928405    1.485590
    141          1           0        0.359648   -1.974922    0.472619
    142          1           0        6.579538   -5.525279    0.426550
    143          1           0        9.303611   -5.612143    1.587030
    144          1           0        6.500338   -4.727212    3.150587
    145          1           0        7.830248   -5.793638    3.108018
    146          1           0        6.274122   -6.418835    2.624048
    147          1           0        8.693063   -6.888505   -0.411324
    148          1           0       10.161462   -5.989796   -0.817251
    149          1           0        7.865750   -4.584046   -1.786332
    150          1           0        8.047138   -6.174268   -2.489718
    151          1           0        9.320315   -4.936407   -2.620274
    152          1           0       14.223200   -2.286474    1.012709
    153          1           0       14.276127   -2.393021   -0.766001
    154          1           0       13.262433   -3.537430    0.263532
    155          1           0       11.915362    1.934848   -2.274568
    156          1           0       14.810426    5.194730   -1.180389
    157          1           0       14.044774    4.794776    0.448886
    158          1           0       13.337285    5.875050   -0.578259
 ---------------------------------------------------------------------

 SCF Done:  E(RPBE1PBE) =  -4067.36410588     A.U. after   16 cycles

 Excitation energies and oscillator strengths:

 Excited State   1:      Singlet-A      1.6664 eV  744.03 nm  f=0.0000  <S**2>=0.000
     312 -> 313        0.70704
 This state for optimization and/or second-order correction.
 Total Energy, E(TD-HF/TD-DFT) =  -4067.30286700
 Copying the excited state density for this state as the 1-particle RhoCI density.

 Excited State   2:      Singlet-A      1.8602 eV  666.50 nm  f=0.5377  <S**2>=0.000
     309 -> 315        0.17418
     311 -> 313        0.66135
     312 -> 314        0.19708

 Excited State   3:      Singlet-A      1.8990 eV  652.89 nm  f=0.2293  <S**2>=0.000
     310 -> 316        0.18022
     311 -> 313       -0.19597
     312 -> 314        0.65919

 Excited State   4:      Singlet-A      2.1324 eV  581.43 nm  f=0.0000  <S**2>=0.000
     311 -> 314        0.70696

 Excited State   5:      Singlet-A      2.2114 eV  560.67 nm  f=0.0971  <S**2>=0.000
     309 -> 313        0.65044
     311 -> 315       -0.26697

 The electronic state is 1-A.
 Alpha  occ. eigenvalues --  -46.92148 -46.91221 -19.26182 -19.24509 -19.19761
 Alpha  occ. eigenvalues --  -19.19666 -19.19620 -19.18711 -19.18526 -19.17965
 Alpha  occ. eigenvalues --  -14.42143 -14.41733 -14.41037 -14.40430 -14.39537
 Alpha  occ. eigenvalues --  -14.39388 -14.39060 -14.38358 -10.35932 -10.35206
 Alpha  occ. eigenvalues --  -10.33103 -10.32965 -10.32722 -10.30700 -10.29422
 Alpha  occ. eigenvalues --  -10.29327 -10.29113 -10.29048 -10.28683 -10.28601
 Alpha  occ. eigenvalues --  -10.28225 -10.28176 -10.28150 -10.27938 -10.27829
 Alpha  occ. eigenvalues --  -10.27703 -10.27363 -10.27183 -10.27099 -10.27044
 Alpha  occ. eigenvalues --  -10.26797 -10.26791 -10.26669 -10.26628 -10.26592
 Alpha  occ. eigenvalues --  -10.26439 -10.26151 -10.26124 -10.26117 -10.26080
 Alpha  occ. eigenvalues --  -10.25872 -10.25802 -10.25601 -10.25566 -10.25530
 Alpha  occ. eigenvalues --  -10.25519 -10.25381 -10.25303 -10.25302 -10.25106
 Alpha  occ. eigenvalues --  -10.25105 -10.25095 -10.25025 -10.24997 -10.24914
 Alpha  occ. eigenvalues --  -10.24812 -10.24720 -10.24350 -10.24108 -10.24066
 Alpha  occ. eigenvalues --  -10.23931 -10.23884 -10.23706 -10.23590 -10.23588
 Alpha  occ. eigenvalues --  -10.23426 -10.23418 -10.23417 -10.23370 -10.23306
 Alpha  occ. eigenvalues --  -10.23046 -10.22997 -10.22596 -10.22564 -10.22423
 Alpha  occ. eigenvalues --  -10.21885  -3.14323  -3.13648  -1.87165  -1.86699
 Alpha  occ. eigenvalues --   -1.86551  -1.86456  -1.86039  -1.85905  -1.12869
 Alpha  occ. eigenvalues --   -1.09550  -1.05912  -1.04680  -1.03795  -1.03613
 Alpha  occ. eigenvalues --   -1.01569  -1.00670  -1.00232  -0.99999  -0.99133
 Alpha  occ. eigenvalues --   -0.98707  -0.98628  -0.97651  -0.97615  -0.96491
 Alpha  occ. eigenvalues --   -0.86690  -0.86529  -0.83975  -0.83630  -0.83404
 Alpha  occ. eigenvalues --   -0.83131  -0.82548  -0.82143  -0.82118  -0.82056
 Alpha  occ. eigenvalues --   -0.81683  -0.81257  -0.80882  -0.79718  -0.78871
 Alpha  occ. eigenvalues --   -0.78500  -0.78065  -0.77780  -0.77357  -0.76834
 Alpha  occ. eigenvalues --   -0.76753  -0.76528  -0.75393  -0.75274  -0.75027
 Alpha  occ. eigenvalues --   -0.74684  -0.73049  -0.73008  -0.72042  -0.71730
 Alpha  occ. eigenvalues --   -0.71404  -0.71193  -0.70776  -0.69898  -0.69660
 Alpha  occ. eigenvalues --   -0.69423  -0.67020  -0.66991  -0.66409  -0.65980
 Alpha  occ. eigenvalues --   -0.63889  -0.63669  -0.63289  -0.62783  -0.62502
 Alpha  occ. eigenvalues --   -0.62451  -0.61514  -0.61443  -0.60420  -0.59880
 Alpha  occ. eigenvalues --   -0.59710  -0.59570  -0.59361  -0.59115  -0.58971
 Alpha  occ. eigenvalues --   -0.58218  -0.57294  -0.56239  -0.55433  -0.55358
 Alpha  occ. eigenvalues --   -0.54202  -0.53814  -0.53788  -0.53671  -0.53294
 Alpha  occ. eigenvalues --   -0.52634  -0.52503  -0.52441  -0.52261  -0.51998
 Alpha  occ. eigenvalues --   -0.51303  -0.50679  -0.50408  -0.49820  -0.49751
 Alpha  occ. eigenvalues --   -0.49479  -0.49081  -0.49066  -0.48985  -0.48613
 Alpha  occ. eigenvalues --   -0.48527  -0.48079  -0.48077  -0.47696  -0.47613
 Alpha  occ. eigenvalues --   -0.47422  -0.47176  -0.47060  -0.46914  -0.46910
 Alpha  occ. eigenvalues --   -0.46780  -0.46632  -0.46282  -0.46006  -0.45664
 Alpha  occ. eigenvalues --   -0.45530  -0.45129  -0.45126  -0.44837  -0.44812
 Alpha  occ. eigenvalues --   -0.44707  -0.44545  -0.44391  -0.44103  -0.43841
 Alpha  occ. eigenvalues --   -0.43792  -0.43752  -0.43696  -0.43605  -0.43330
 Alpha  occ. eigenvalues --   -0.43276  -0.43074  -0.43019  -0.42758  -0.42596
 Alpha  occ. eigenvalues --   -0.42556  -0.42525  -0.42396  -0.42234  -0.41716
 Alpha  occ. eigenvalues --   -0.41460  -0.41346  -0.41214  -0.41159  -0.41117
 Alpha  occ. eigenvalues --   -0.40966  -0.40841  -0.40509  -0.40411  -0.40396
 Alpha  occ. eigenvalues --   -0.40222  -0.40132  -0.39971  -0.39916  -0.39726
 Alpha  occ. eigenvalues --   -0.39542  -0.39367  -0.39140  -0.39022  -0.38961
 Alpha  occ. eigenvalues --   -0.38751  -0.38595  -0.38469  -0.38262  -0.38090
 Alpha  occ. eigenvalues --   -0.37960  -0.37906  -0.37804  -0.37618  -0.37582
 Alpha  occ. eigenvalues --   -0.37545  -0.37032  -0.36947  -0.36908  -0.36635
 Alpha  occ. eigenvalues --   -0.36580  -0.36465  -0.36321  -0.36293  -0.35973
 Alpha  occ. eigenvalues --   -0.35894  -0.35793  -0.35499  -0.35468  -0.35294
 Alpha  occ. eigenvalues --   -0.35240  -0.34961  -0.34616  -0.34357  -0.34042
 Alpha  occ. eigenvalues --   -0.33597  -0.33357  -0.33103  -0.33060  -0.32425
 Alpha  occ. eigenvalues --   -0.31959  -0.31917  -0.31566  -0.31380  -0.31249
 Alpha  occ. eigenvalues --   -0.31069  -0.30010  -0.29873  -0.29451  -0.29053
 Alpha  occ. eigenvalues --   -0.28591  -0.28300  -0.27749  -0.27519  -0.27441
 Alpha  occ. eigenvalues --   -0.26486  -0.26222  -0.26135  -0.25965  -0.25953
 Alpha  occ. eigenvalues --   -0.25397  -0.25000  -0.24908  -0.21006  -0.20537
 Alpha  occ. eigenvalues --   -0.18972  -0.18139
 Alpha virt. eigenvalues --   -0.11253  -0.10300  -0.05577  -0.05089  -0.04594
 Alpha virt. eigenvalues --   -0.03779  -0.02473  -0.01729  -0.00375   0.00063
 Alpha virt. eigenvalues --    0.00847   0.01062   0.01418   0.01575   0.01783

 Mulliken charges:
               1
     1  Mg  12.000000
     2  C    6.000001
     3  C    6.000000
     4  C    6.000000
     5  C    6.000000
     6  N    7.000000
     7  C    6.000000
     8  C    6.000000
     9  C    6.000000
    10  C    6.000000
    11  C    6.000000
    12  C    6.000000
    13  C    6.000000
    14  H    1.000000
    15  N    7.000000
    16  C    6.000000
    17  C    6.000000
    18  C    6.000000
    19  C    6.000000
    20  C    6.000000
    21  C    6.000000
    22  O    8.000000
    23  C    6.000000
    24  N    7.000000
    25  C    6.000000
    26  C    6.000000
    27  C    6.000000
    28  C    6.000000
    29  C    6.000000
    30  C    6.000000
    31  C    6.000000
    32  N    7.000000
    33  C    6.000000
    34  C    6.000000
    35  C    6.000000
    36  C    6.000000
    37  C    6.000000
    38  C    6.000000
    39  O    8.000000
    40  C    6.000000
    41  C    6.000000
    42  O    8.000000
    43  O    8.000000
    44  C    6.000000
    45  H    1.000000
    46  H    1.000000
    47  H    1.000000
    48  H    1.000000
    49  H    1.000000
    50  H    1.000000
    51  H    1.000000
    52  H    1.000000
    53  H    1.000000
    54  H    1.000000
    55  H    1.000000
    56  H    1.000000
    57  H    1.000000
    58  H    1.000000
    59  H    1.000000
    60  H    1.000000
    61  H    1.000000
    62  H    1.000000
    63  H    1.000000
    64  H    1.000000
    65  H    1.000000
    66  H    1.000000
    67  H    1.000000
    68  H    1.000000
    69  H    1.000000
    70  H    1.000000
    71  H    1.000000
    72  H    1.000000
    73  H    1.000000
    74  H    1.000000
    75  H    1.000000
    76  H    1.000000
    77  H    1.000000
    78  H    1.000000
    79  H    1.000000
    80  Mg  12.000000
    81  C    6.000000
    82  C    6.000000
    83  C    6.000000
    84  C    6.000000
    85  N    7.000000
    86  C    6.000000
    87  C    6.000000
    88  C    6.000000
    89  C    6.000000
    90  C    6.000000
    91  C    6.000000
    92  C    6.000000
    93  H    1.000000
    94  N    7.000000
    95  C    5.999999
    96  C    6.000000
    97  C    5.999998
    98  C    6.000001
    99  C    6.000000
   100  C    6.000000
   101  O    7.999998
   102  C    5.999999
   103  N    7.000000
   104  C    6.000001
   105  C    6.000000
   106  C    6.000000
   107  C    6.000000
   108  C    6.000000
   109  C    6.000000
   110  C    6.000000
   111  N    7.000000
   112  C    6.000000
   113  C    6.000000
   114  C    6.000000
   115  C    6.000000
   116  C    6.000000
   117  C    6.000000
   118  O    8.000000
   119  C    6.000000
   120  C    6.000000
   121  O    8.000000
   122  O    8.000000
   123  C    6.000000
   124  H    1.000000
   125  H    1.000000
   126  H    1.000000
   127  H    1.000000
   128  H    1.000000
   129  H    1.000000
   130  H    1.000000
   131  H    1.000000
   132  H    1.000000
   133  H    1.000000
   134  H    1.000000
   135  H    1.000000
   136  H    1.000000
   137  H    1.000000
   138  H    1.000000
   139  H    1.000000
   140  H    1.000000
   141  H    1.000002
   142  H    1.000000
   143  H    1.000000
   144  H    1.000000
   145  H    1.000000
   146  H    1.000000
   147  H    1.000000
   148  H    1.000000
   149  H    1.000000
   150  H    1.000000
   151  H    1.000000
   152  H    1.000000
   153  H    1.000000
   154  H    1.000000
   155  H    1.000000
   156  H    1.000000
   157  H    1.000000
   158  H    1.000000
 Sum of Mulliken charges = 624.00000

 Dipole moment (field-independent basis, Debye):
    X=             -0.0001    Y=              0.0000    Z=             -0.0000  Tot=              0.0001
 Quadrupole moment (field-independent basis, Debye-Ang):
   XX=              0.0013   YY=              0.0000   ZZ=              0.0000
   XY=              0.0000   XZ=              0.0001   YZ=              0.0000

 Normal termination of Gaussian 16 at Fri Oct 15 11:58:37 2021.
