 Gaussian 16, Revision A.03,
 Gaussian 16:  ES64L-G16RevA.03 25-Dec-2016

 --------------------------------------------------------
 #p PBE1PBE/Def2SVP td=(nstates=5) density=(transition=1)
 --------------------------------------------------------

 --------------------------------
 TDDFT excited states in gaussian
 --------------------------------
 Symbolic Z-matrix:
 Charge =  0 Multiplicity = 1

                         Standard orientation:
 ---------------------------------------------------------------------
 Center     Atomic      Atomic             Coordinates (Angstroms)
 Number     Number       Type             X           Y           Z
 ---------------------------------------------------------------------
      1         12           0      -20.291772   -0.706284   -0.018766
      2          6           0      -20.133402    2.649297   -0.992385
      3          6           0      -20.603550    0.457354    3.234960
      4          6           0      -20.009863   -3.799671    0.941835
      5          6           0      -19.732871   -1.613009   -3.396510
      6          7           0      -19.956047    1.362341    1.067022
      7          6           0      -20.076518    2.535557    0.437361
      8          6           0      -20.150875    3.603581    1.476806
      9          6           0      -19.853393    2.884361    2.815387
     10          6           0      -20.180087    1.467581    2.386656
     11          6           0      -18.473549    3.017817    3.462058
     12          6           0      -21.545319    4.306532    1.492496
     13          6           0      -21.607035    5.868148    1.481080
     14          1           0      -20.446170    6.680307    2.135444
     15          7           0      -20.455826   -1.584378    1.864262
     16          6           0      -20.771823   -0.907436    3.034757
     17          6           0      -20.926418   -1.899909    4.048008
     18          6           0      -20.627322   -3.182806    3.436239
     19          6           0      -20.356429   -2.924963    2.029818
     20          6           0      -21.217008   -1.598715    5.534594
     21          6           0      -20.521004   -4.594091    4.082378
     22          8           0      -20.248004   -5.588553    3.488298
     23          6           0      -20.857916   -4.675287    5.558279
     24          7           0      -19.937538   -2.422948   -1.103341
     25          6           0      -19.798364   -3.597986   -0.449661
     26          6           0      -19.514923   -4.808218   -1.381635
     27          6           0      -19.701528   -4.110746   -2.797133
     28          6           0      -19.826930   -2.631417   -2.452604
     29          6           0      -18.034502   -5.435381   -1.078895
     30          6           0      -20.842620   -4.735431   -3.659967
     31          6           0      -22.193894   -4.043330   -3.658441
     32          7           0      -20.022084    0.260537   -1.894922
     33          6           0      -19.899231   -0.235180   -3.164854
     34          6           0      -19.831109    0.928651   -4.116788
     35          6           0      -19.923159    2.067985   -3.285732
     36          6           0      -19.998165    1.635328   -1.920377
     37          6           0      -19.531882    0.897335   -5.590993
     38          6           0      -19.944358    3.528574   -3.268668
     39          8           0      -19.858625    4.300408   -4.228093
     40          6           0      -20.241206    3.919020   -1.823853
     41          6           0      -19.205381    4.943411   -1.458668
     42          8           0      -18.049351    4.698614   -1.165957
     43          8           0      -19.756850    6.119014   -1.711389
     44          6           0      -18.882855    7.273277   -1.850471
     45          1           0      -20.557303    0.811274    4.266522
     46          1           0      -20.093082   -4.852754    1.217372
     47          1           0      -19.575657   -1.894624   -4.440088
     48          1           0      -19.400907    4.360819    1.250457
     49          1           0      -20.535834    3.318578    3.546140
     50          1           0      -17.761334    3.668356    2.954154
     51          1           0      -18.009370    2.036610    3.565265
     52          1           0      -18.648265    3.416610    4.461082
     53          1           0      -22.208438    3.940152    2.275889
     54          1           0      -21.942324    3.917275    0.555067
     55          1           0      -22.528112    6.086835    2.022825
     56          1           0      -21.705467    6.203360    0.448901
     57          1           0      -20.505063   -2.064898    6.215772
     58          1           0      -22.158269   -2.035257    5.868960
     59          1           0      -21.274805   -0.536896    5.777597
     60          1           0      -21.815427   -4.213254    5.799583
     61          1           0      -20.028020   -4.241065    6.115934
     62          1           0      -20.815404   -5.709484    5.899886
     63          1           0      -20.236982   -5.614184   -1.251830
     64          1           0      -18.839479   -4.237021   -3.451982
     65          1           0      -17.438166   -5.145285   -1.944059
     66          1           0      -18.008914   -6.524782   -1.112717
     67          1           0      -17.532821   -4.995935   -0.216005
     68          1           0      -21.041535   -5.689895   -3.172395
     69          1           0      -20.530609   -4.933733   -4.685155
     70          1           0      -22.360231   -3.795321   -2.609436
     71          1           0      -22.838062   -4.838937   -4.032086
     72          1           0      -22.334318   -3.090030   -4.167305
     73          1           0      -19.263278   -0.054000   -6.050347
     74          1           0      -18.697431    1.566769   -5.800403
     75          1           0      -20.399459    1.356329   -6.064007
     76          1           0      -21.166060    4.478582   -1.682348
     77          1           0      -17.801080    7.143691   -1.843469
     78          1           0      -19.099676    7.842807   -0.946220
     79          1           0      -19.364622    7.983587   -2.522493
     80         12           0       19.722006   -0.674816   -0.278445
     81          6           0       21.639040    2.245735   -0.102329
     82          6           0       17.454528    0.667441    1.677734
     83          6           0       18.294126   -3.773870    0.122583
     84          6           0       22.388233   -2.279049   -1.946733
     85          7           0       19.565086    1.252990    0.558378
     86          6           0       20.395954    2.349344    0.484999
     87          6           0       19.747081    3.591518    1.081808
     88          6           0       18.521499    2.974958    1.829428
     89          6           0       18.441678    1.602932    1.256234
     90          6           0       18.452008    3.045810    3.339616
     91          6           0       19.424275    4.722670    0.053931
     92          6           0       18.796348    5.986918    0.650718
     93          1           0       19.473702    7.301643    0.292689
     94          7           0       18.048650   -1.489865    0.864792
     95          6           0       17.153565   -0.703522    1.498201
     96          6           0       16.055410   -1.509821    1.954159
     97          6           0       16.344838   -2.838247    1.597733
     98          6           0       17.620630   -2.737806    0.838045
     99          6           0       14.875358   -0.966432    2.731831
    100          6           0       15.539624   -4.079865    1.800157
    101          8           0       15.923270   -5.260221    1.582365
    102          6           0       14.094432   -3.985323    2.273924
    103          7           0       20.275647   -2.693401   -0.801273
    104          6           0       19.549061   -3.783257   -0.460785
    105          6           0       20.145981   -5.090943   -1.213756
    106          6           0       21.163724   -4.448933   -2.220737
    107          6           0       21.261904   -3.047999   -1.707984
    108          6           0       20.780613   -6.058397   -0.139695
    109          6           0       20.543761   -4.362379   -3.663189
    110          6           0       19.176532   -3.723002   -3.849300
    111          7           0       21.671473   -0.136381   -0.988524
    112          6           0       22.588739   -0.916967   -1.636895
    113          6           0       23.692221   -0.115081   -1.898778
    114          6           0       23.450036    1.163479   -1.318999
    115          6           0       22.196139    1.100678   -0.770355
    116          6           0       24.982967   -0.479606   -2.543313
    117          6           0       23.962814    2.524090   -1.040103
    118          8           0       25.032592    3.083250   -1.252859
    119          6           0       22.739003    3.312897   -0.315817
    120          6           0       23.231044    4.063423    0.870094
    121          8           0       24.149269    3.666749    1.647559
    122          8           0       22.655677    5.257839    0.836676
    123          6           0       23.342979    6.267464    1.618946
    124          1           0       16.615690    1.096766    2.229755
    125          1           0       17.834152   -4.761066    0.210080
    126          1           0       23.134029   -2.769205   -2.574476
    127          1           0       20.528763    4.020593    1.708968
    128          1           0       17.573246    3.425827    1.534782
    129          1           0       19.076767    3.794574    3.826535
    130          1           0       18.666211    2.059557    3.752221
    131          1           0       17.395657    3.090336    3.605385
    132          1           0       18.787674    4.326875   -0.737805
    133          1           0       20.343570    5.011454   -0.454533
    134          1           0       19.035219    6.086419    1.709409
    135          1           0       17.720569    6.016151    0.475174
    136          1           0       14.969369    0.075120    3.038901
    137          1           0       14.722697   -1.393721    3.722600
    138          1           0       13.927364   -1.054676    2.200259
    139          1           0       14.104879   -3.643684    3.308576
    140          1           0       13.650765   -4.968537    2.428965
    141          1           0       13.455211   -3.417899    1.596550
    142          1           0       19.333839   -5.639740   -1.690593
    143          1           0       22.091180   -5.001483   -2.070498
    144          1           0       20.499289   -5.815372    0.885100
    145          1           0       21.870694   -6.061362   -0.130676
    146          1           0       20.451877   -7.092156   -0.236203
    147          1           0       20.522554   -5.426148   -3.900152
    148          1           0       21.179714   -3.878533   -4.403896
    149          1           0       18.694834   -3.579470   -2.881867
    150          1           0       18.510401   -4.201830   -4.566179
    151          1           0       19.425666   -2.786619   -4.348580
    152          1           0       24.880263   -0.936517   -3.527902
    153          1           0       25.420983   -1.231411   -1.887419
    154          1           0       25.674194    0.360579   -2.601129
    155          1           0       22.423835    4.038056   -1.065649
    156          1           0       23.394445    7.202218    1.059255
    157          1           0       24.376594    6.050191    1.887205
    158          1           0       22.733963    6.418071    2.510900
 ---------------------------------------------------------------------

 SCF Done:  E(RPBE1PBE) =  -4067.38530960     A.U. after   16 cycles

 Excitation energies and oscillator strengths:

 Excited State   1:      Singlet-A      1.8109 eV  684.66 nm  f=0.0000  <S**2>=0.000
     312 -> 313        0.70711
 This state for optimization and/or second-order correction.
 Total Energy, E(TD-HF/TD-DFT) =  -4067.31876040
 Copying the excited state density for this state as the 1-particle RhoCI density.

 Excited State   2:      Singlet-A      1.8527 eV  669.22 nm  f=0.3729  <S**2>=0.000
     309 -> 316        0.15648
     311 -> 313        0.69626
     311 <- 313       -0.11164

 Excited State   3:      Singlet-A      1.8764 eV  660.75 nm  f=0.3905  <S**2>=0.000
     310 -> 315       -0.18229
     312 -> 314        0.69068
     312 <- 314       -0.10328

 Excited State   4:      Singlet-A      2.1527 eV  575.94 nm  f=0.1522  <S**2>=0.000
     309 -> 313        0.66965
     311 -> 316       -0.19825

 Excited State   5:      Singlet-A      2.1695 eV  571.49 nm  f=0.0000  <S**2>=0.000
     311 -> 314        0.70711

 The electronic state is 1-A.
 Alpha  occ. eigenvalues --  -46.92768 -46.92216 -19.27346 -19.26847 -19.19792
 Alpha  occ. eigenvalues --  -19.19428 -19.19419 -19.19107 -19.19022 -19.18916
 Alpha  occ. eigenvalues --  -14.42345 -14.41425 -14.41383 -14.41020 -14.39243
 Alpha  occ. eigenvalues --  -14.38915 -14.38569 -14.37877 -10.36325 -10.36069
 Alpha  occ. eigenvalues --  -10.32664 -10.32434 -10.32212 -10.31829 -10.29604
 Alpha  occ. eigenvalues --  -10.29281 -10.29252 -10.28875 -10.28872 -10.28716
 Alpha  occ. eigenvalues --  -10.28703 -10.28701 -10.28179 -10.28143 -10.28035
 Alpha  occ. eigenvalues --  -10.27981 -10.27654 -10.27488 -10.27065 -10.26986
 Alpha  occ. eigenvalues --  -10.26980 -10.26866 -10.26793 -10.26771 -10.26355
 Alpha  occ. eigenvalues --  -10.26349 -10.26229 -10.26149 -10.26096 -10.26035
 Alpha  occ. eigenvalues --  -10.25996 -10.25907 -10.25829 -10.25792 -10.25675
 Alpha  occ. eigenvalues --  -10.25619 -10.25562 -10.25439 -10.25224 -10.24988
 Alpha  occ. eigenvalues --  -10.24918 -10.24876 -10.24750 -10.24692 -10.24524
 Alpha  occ. eigenvalues --  -10.24361 -10.24354 -10.24323 -10.24270 -10.24223
 Alpha  occ. eigenvalues --  -10.24216 -10.23984 -10.23884 -10.23811 -10.23792
 Alpha  occ. eigenvalues --  -10.23744 -10.23572 -10.23325 -10.23208 -10.23143
 Alpha  occ. eigenvalues --  -10.22940 -10.22865 -10.22670 -10.22537 -10.22492
 Alpha  occ. eigenvalues --  -10.22294  -3.14741  -3.14256  -1.87589  -1.87105
 Alpha  occ. eigenvalues --   -1.87084  -1.86977  -1.86665  -1.86439  -1.13063
 Alpha  occ. eigenvalues --   -1.12969  -1.06328  -1.04156  -1.03747  -1.03391
 Alpha  occ. eigenvalues --   -1.02844  -1.00793  -0.99899  -0.99636  -0.98942
 Alpha  occ. eigenvalues --   -0.98433  -0.98103  -0.97220  -0.97215  -0.96724
 Alpha  occ. eigenvalues --   -0.87607  -0.86299  -0.83836  -0.83565  -0.83056
 Alpha  occ. eigenvalues --   -0.82899  -0.82600  -0.82443  -0.82148  -0.81461
 Alpha  occ. eigenvalues --   -0.81448  -0.80468  -0.80225  -0.79894  -0.79108
 Alpha  occ. eigenvalues --   -0.78784  -0.78090  -0.78026  -0.77172  -0.76914
 Alpha  occ. eigenvalues --   -0.76054  -0.75779  -0.75645  -0.75148  -0.74854
 Alpha  occ. eigenvalues --   -0.74337  -0.72936  -0.72275  -0.71952  -0.71678
 Alpha  occ. eigenvalues --   -0.71648  -0.71370  -0.70634  -0.70515  -0.69583
 Alpha  occ. eigenvalues --   -0.69540  -0.67277  -0.67121  -0.66228  -0.66151
 Alpha  occ. eigenvalues --   -0.64181  -0.63905  -0.63579  -0.63349  -0.62640
 Alpha  occ. eigenvalues --   -0.62417  -0.62255  -0.60659  -0.59878  -0.59804
 Alpha  occ. eigenvalues --   -0.59761  -0.59484  -0.59288  -0.59212  -0.59067
 Alpha  occ. eigenvalues --   -0.58911  -0.57363  -0.57341  -0.55409  -0.54442
 Alpha  occ. eigenvalues --   -0.54282  -0.54232  -0.53877  -0.53801  -0.53162
 Alpha  occ. eigenvalues --   -0.53142  -0.52416  -0.52148  -0.51905  -0.51884
 Alpha  occ. eigenvalues --   -0.51430  -0.50791  -0.50618  -0.50549  -0.50330
 Alpha  occ. eigenvalues --   -0.50019  -0.49937  -0.49522  -0.49418  -0.49244
 Alpha  occ. eigenvalues --   -0.48934  -0.48191  -0.48036  -0.47875  -0.47514
 Alpha  occ. eigenvalues --   -0.47491  -0.47298  -0.47243  -0.47068  -0.46555
 Alpha  occ. eigenvalues --   -0.46315  -0.46312  -0.46155  -0.45950  -0.45786
 Alpha  occ. eigenvalues --   -0.45611  -0.45534  -0.45230  -0.44857  -0.44695
 Alpha  occ. eigenvalues --   -0.44693  -0.44320  -0.44108  -0.44000  -0.43821
 Alpha  occ. eigenvalues --   -0.43696  -0.43520  -0.43506  -0.43312  -0.43258
 Alpha  occ. eigenvalues --   -0.43109  -0.43055  -0.42918  -0.42860  -0.42717
 Alpha  occ. eigenvalues --   -0.42692  -0.42010  -0.41966  -0.41653  -0.41591
 Alpha  occ. eigenvalues --   -0.41513  -0.41184  -0.41176  -0.41024  -0.40890
 Alpha  occ. eigenvalues --   -0.40743  -0.40740  -0.40658  -0.40656  -0.40418
 Alpha  occ. eigenvalues --   -0.40303  -0.40204  -0.40006  -0.39975  -0.39724
 Alpha  occ. eigenvalues --   -0.39607  -0.39587  -0.39220  -0.39207  -0.39052
 Alpha  occ. eigenvalues --   -0.38648  -0.38535  -0.38517  -0.38175  -0.38165
 Alpha  occ. eigenvalues --   -0.38078  -0.38038  -0.37964  -0.37748  -0.37585
 Alpha  occ. eigenvalues --   -0.37570  -0.37476  -0.37288  -0.37061  -0.37036
 Alpha  occ. eigenvalues --   -0.36719  -0.36548  -0.36469  -0.36254  -0.36157
 Alpha  occ. eigenvalues --   -0.36134  -0.36031  -0.35691  -0.35598  -0.35333
 Alpha  occ. eigenvalues --   -0.35181  -0.34579  -0.34533  -0.34313  -0.34196
 Alpha  occ. eigenvalues --   -0.33635  -0.33309  -0.32840  -0.32338  -0.32216
 Alpha  occ. eigenvalues --   -0.32170  -0.31990  -0.31766  -0.31633  -0.31356
 Alpha  occ. eigenvalues --   -0.31353  -0.31228  -0.29487  -0.29289  -0.29209
 Alpha  occ. eigenvalues --   -0.29139  -0.28569  -0.28249  -0.27373  -0.26520
 Alpha  occ. eigenvalues --   -0.26358  -0.26054  -0.25608  -0.25446  -0.25408
 Alpha  occ. eigenvalues --   -0.25253  -0.24774  -0.24416  -0.20994  -0.20755
 Alpha  occ. eigenvalues --   -0.19319  -0.18744
 Alpha virt. eigenvalues --   -0.11757  -0.11019  -0.05046  -0.04908  -0.04112
 Alpha virt. eigenvalues --   -0.03982  -0.02055  -0.01653  -0.01035  -0.00262
 Alpha virt. eigenvalues --   -0.00027   0.00533   0.01045   0.01181   0.01464

 Mulliken charges:
               1
     1  Mg  12.000000
     2  C    6.000000
     3  C    6.000000
     4  C    6.000000
     5  C    6.000000
     6  N    7.000000
     7  C    6.000000
     8  C    6.000000
     9  C    6.000000
    10  C    6.000000
    11  C    6.000000
    12  C    6.000000
    13  C    6.000000
    14  H    1.000000
    15  N    7.000000
    16  C    6.000000
    17  C    6.000000
    18  C    6.000000
    19  C    6.000000
    20  C    6.000000
    21  C    6.000000
    22  O    8.000000
    23  C    6.000000
    24  N    7.000000
    25  C    6.000000
    26  C    6.000000
    27  C    6.000000
    28  C    6.000000
    29  C    6.000000
    30  C    6.000000
    31  C    6.000000
    32  N    7.000000
    33  C    6.000000
    34  C    6.000000
    35  C    6.000000
    36  C    6.000000
    37  C    6.000000
    38  C    6.000000
    39  O    8.000000
    40  C    6.000000
    41  C    6.000000
    42  O    8.000000
    43  O    8.000000
    44  C    6.000000
    45  H    1.000000
    46  H    1.000000
    47  H    1.000000
    48  H    1.000000
    49  H    1.000000
    50  H    1.000000
    51  H    1.000000
    52  H    1.000000
    53  H    1.000000
    54  H    1.000000
    55  H    1.000000
    56  H    1.000000
    57  H    1.000000
    58  H    1.000000
    59  H    1.000000
    60  H    1.000000
    61  H    1.000000
    62  H    1.000000
    63  H    1.000000
    64  H    1.000000
    65  H    1.000000
    66  H    1.000000
    67  H    1.000000
    68  H    1.000000
    69  H    1.000000
    70  H    1.000000
    71  H    1.000000
    72  H    1.000000
    73  H    1.000000
    74  H    1.000000
    75  H    1.000000
    76  H    1.000000
    77  H    1.000000
    78  H    1.000000
    79  H    1.000000
    80  Mg  12.000000
    81  C    6.000000
    82  C    6.000000
    83  C    6.000000
    84  C    6.000000
    85  N    7.000000
    86  C    6.000000
    87  C    6.000000
    88  C    6.000000
    89  C    6.000000
    90  C    6.000000
    91  C    6.000000
    92  C    6.000000
    93  H    1.000000
    94  N    7.000000
    95  C    6.000000
    96  C    6.000000
    97  C    6.000000
    98  C    6.000000
    99  C    6.000000
   100  C    6.000000
   101  O    8.000000
   102  C    6.000000
   103  N    7.000000
   104  C    6.000000
   105  C    6.000000
   106  C    6.000000
   107  C    6.000000
   108  C    6.000000
   109  C    6.000000
   110  C    6.000000
   111  N    7.000000
   112  C    6.000000
   113  C    6.000000
   114  C    6.000000
   115  C    6.000000
   116  C    6.000000
   117  C    6.000000
   118  O    8.000000
   119  C    6.000000
   120  C    6.000000
   121  O    8.000000
   122  O    8.000000
   123  C    6.000000
   124  H    1.000000
   125  H    1.000000
   126  H    1.000000
   127  H    1.000000
   128  H    1.000000
   129  H    1.000000
   130  H    1.000000
   131  H    1.000000
   132  H    1.000000
   133  H    1.000000
   134  H    1.000000
   135  H    1.000000
   136  H    1.000000
   137  H    1.000000
   138  H    1.000000
   139  H    1.000000
   140  H    1.000000
   141  H    1.000000
   142  H    1.000000
   143  H    1.000000
   144  H    1.000000
   145  H    1.000000
   146  H    1.000000
   147  H    1.000000
   148  H    1.000000
   149  H    1.000000
   150  H    1.000000
   151  H    1.000000
   152  H    1.000000
   153  H    1.000000
   154  H    1.000000
   155  H    1.000000
   156  H    1.000000
   157  H    1.000000
   158  H    1.000000
 Sum of Mulliken charges = 624.00000

 Dipole moment (field-independent basis, Debye):
    X=              0.0000    Y=             -0.0000    Z=              0.0000  Tot=              0.0000
 Quadrupole moment (field-independent basis, Debye-Ang):
   XX=              0.0000   YY=             -0.0000   ZZ=              0.0000
   XY=              0.0000   XZ=             -0.0000   YZ=             -0.0000

 Normal termination of Gaussian 16 at Fri Oct 15 18:25:45 2021.
