 Gaussian 16, Revision A.03,
 Gaussian 16:  ES64L-G16RevA.03 25-Dec-2016

 --------------------------------------------------------
 #p PBE1PBE/Def2SVP td=(nstates=5) density=(transition=1)
 --------------------------------------------------------

 --------------------------------
 TDDFT excited states in gaussian
 --------------------------------
 Symbolic Z-matrix:
 Charge =  0 Multiplicity = 1

                         Standard orientation:
 ---------------------------------------------------------------------
 Center     Atomic      Atomic             Coordinates (Angstroms)
 Number     Number       Type             X           Y           Z
 ---------------------------------------------------------------------
      1         12           0       20.572205   -0.850238    0.259891
      2          6           0       19.651818    1.960166   -1.906193
      3          6           0       20.957091    1.518560    2.812653
      4          6           0       21.740270   -3.233394    2.152976
      5          6           0       19.956817   -3.006091   -2.335398
      6          7           0       20.536282    1.458098    0.377794
      7          6           0       20.010362    2.414355   -0.588582
      8          6           0       20.018472    3.874563   -0.087638
      9          6           0       20.661351    3.638857    1.399524
     10          6           0       20.756637    2.111445    1.582546
     11          6           0       21.985519    4.346301    1.612622
     12          6           0       18.587902    4.488853   -0.162738
     13          6           0       18.407006    5.786384    0.566079
     14          1           0       17.643198    6.915615   -0.088981
     15          7           0       21.293664   -0.885219    2.237151
     16          6           0       21.369387    0.182952    3.138186
     17          6           0       21.868242   -0.294442    4.426566
     18          6           0       22.106622   -1.720389    4.262902
     19          6           0       21.717777   -2.042779    2.840240
     20          6           0       22.002138    0.584901    5.723607
     21          6           0       22.663263   -2.737767    5.192462
     22          8           0       22.785055   -3.928651    4.938079
     23          6           0       23.006510   -2.363929    6.574777
     24          7           0       20.724290   -2.792350   -0.001054
     25          6           0       21.353216   -3.583380    0.870165
     26          6           0       21.417569   -5.056026    0.401662
     27          6           0       20.473574   -5.024504   -0.782365
     28          6           0       20.412950   -3.486410   -1.129092
     29          6           0       22.825075   -5.509185    0.031387
     30          6           0       19.083805   -5.604958   -0.737209
     31          6           0       18.157714   -4.927622    0.250261
     32          7           0       20.035773   -0.618754   -1.739211
     33          6           0       19.723659   -1.639335   -2.655428
     34          6           0       19.315759   -1.038493   -3.901407
     35          6           0       19.224232    0.336402   -3.563993
     36          6           0       19.681612    0.558887   -2.251154
     37          6           0       18.876992   -1.713241   -5.168192
     38          6           0       18.779013    1.636846   -4.153682
     39          8           0       18.207595    1.892093   -5.235288
     40          6           0       19.084396    2.695394   -3.096260
     41          6           0       19.985334    3.781646   -3.687598
     42          8           0       21.171549    3.711522   -4.125610
     43          8           0       19.327080    4.966258   -3.536740
     44          6           0       20.066747    6.172379   -3.972656
     45          1           0       20.879105    2.219250    3.645394
     46          1           0       22.186939   -4.033828    2.746398
     47          1           0       19.767067   -3.629100   -3.212062
     48          1           0       20.621199    4.418799   -0.814647
     49          1           0       19.923754    3.923930    2.149741
     50          1           0       21.882726    5.023554    2.460963
     51          1           0       22.170075    4.927309    0.709732
     52          1           0       22.891389    3.741261    1.581604
     53          1           0       17.911034    3.684105    0.126286
     54          1           0       18.344102    4.667630   -1.210045
     55          1           0       19.310637    6.330331    0.840202
     56          1           0       17.806861    5.613320    1.458911
     57          1           0       21.317418    0.126894    6.437977
     58          1           0       21.708850    1.624155    5.575945
     59          1           0       23.043343    0.505069    6.036309
     60          1           0       23.538882   -1.416044    6.656141
     61          1           0       23.653910   -3.176074    6.903655
     62          1           0       22.038841   -2.172443    7.037513
     63          1           0       21.067846   -5.668879    1.232525
     64          1           0       20.875951   -5.562098   -1.641421
     65          1           0       22.968044   -6.524403    0.399710
     66          1           0       23.579056   -4.867188    0.485609
     67          1           0       22.912579   -5.620472   -1.049980
     68          1           0       19.176143   -6.679901   -0.579635
     69          1           0       18.553248   -5.419889   -1.671063
     70          1           0       17.601922   -5.647958    0.849399
     71          1           0       17.381623   -4.336809   -0.236795
     72          1           0       18.661539   -4.279171    0.967151
     73          1           0       17.910745   -1.315797   -5.477878
     74          1           0       18.772298   -2.797170   -5.214872
     75          1           0       19.615460   -1.462479   -5.929981
     76          1           0       18.151949    3.202580   -2.846821
     77          1           0       20.493350    6.675717   -3.105286
     78          1           0       19.257196    6.681449   -4.495721
     79          1           0       20.804083    5.952538   -4.745800
     80         12           0      -20.820594   -0.648346   -0.133102
     81          6           0      -18.850997    2.372340    0.291310
     82          6           0      -23.405115    1.151540    1.069208
     83          6           0      -22.519993   -3.333363   -0.457928
     84          6           0      -17.857890   -2.358734   -1.046245
     85          7           0      -21.072789    1.634621    0.593538
     86          6           0      -20.176921    2.636588    0.575204
     87          6           0      -20.864494    3.972415    0.916355
     88          6           0      -22.181860    3.360258    1.585937
     89          6           0      -22.261600    2.007455    1.013984
     90          6           0      -22.392515    3.559557    3.077538
     91          6           0      -21.057986    4.774593   -0.382101
     92          6           0      -21.136854    6.310524   -0.138528
     93          1           0      -20.749832    6.996387    1.252415
     94          7           0      -22.763660   -1.064226    0.210729
     95          6           0      -23.691383   -0.224962    0.797332
     96          6           0      -24.933136   -0.974358    0.962521
     97          6           0      -24.711889   -2.274827    0.445763
     98          6           0      -23.276201   -2.252967    0.046238
     99          6           0      -26.151487   -0.430875    1.565178
    100          6           0      -25.737287   -3.513567    0.272155
    101          8           0      -25.435292   -4.496895   -0.346931
    102          6           0      -27.230261   -3.376590    0.620746
    103          7           0      -20.186707   -2.634424   -0.419585
    104          6           0      -21.136297   -3.532998   -0.667245
    105          6           0      -20.623071   -4.861719   -1.153426
    106          6           0      -19.248087   -4.405731   -1.699848
    107          6           0      -19.042377   -3.098160   -0.860145
    108          6           0      -20.467218   -5.966611   -0.007544
    109          6           0      -19.150983   -4.205258   -3.270406
    110          6           0      -20.047108   -5.054400   -4.218268
    111          7           0      -18.773810   -0.187836   -0.240340
    112          6           0      -17.707766   -0.908586   -0.667918
    113          6           0      -16.566040   -0.121468   -0.794471
    114          6           0      -16.971154    1.116699   -0.384719
    115          6           0      -18.315082    1.078724   -0.069643
    116          6           0      -15.216148   -0.577392   -1.341542
    117          6           0      -16.455124    2.483545   -0.216855
    118          8           0      -15.328304    2.956083   -0.221761
    119          6           0      -17.733279    3.352434    0.160592
    120          6           0      -17.409681    4.104690    1.360165
    121          8           0      -17.389763    3.681206    2.520242
    122          8           0      -16.879202    5.277590    0.955539
    123          6           0      -16.169454    5.964028    2.020031
    124          1           0      -24.181800    1.681288    1.624849
    125          1           0      -23.122758   -4.241305   -0.518402
    126          1           0      -16.992621   -2.906449   -1.424936
    127          1           0      -20.328406    4.511905    1.697264
    128          1           0      -23.013100    3.917344    1.155899
    129          1           0      -23.236098    4.216085    3.288543
    130          1           0      -21.495883    3.981312    3.531320
    131          1           0      -22.534672    2.633302    3.634311
    132          1           0      -22.039544    4.514206   -0.778762
    133          1           0      -20.336925    4.535973   -1.163698
    134          1           0      -22.092809    6.722167   -0.463849
    135          1           0      -20.544716    6.694687   -0.969007
    136          1           0      -26.187447    0.656045    1.494737
    137          1           0      -26.123198   -0.759012    2.604370
    138          1           0      -27.072811   -0.782614    1.100394
    139          1           0      -27.768586   -2.674465   -0.015863
    140          1           0      -27.241826   -3.188869    1.694622
    141          1           0      -27.715435   -4.350848    0.555841
    142          1           0      -21.381183   -5.161261   -1.876663
    143          1           0      -18.438908   -5.089867   -1.445502
    144          1           0      -20.916376   -6.837624   -0.484169
    145          1           0      -21.007437   -5.741166    0.912604
    146          1           0      -19.444887   -6.227942    0.262992
    147          1           0      -18.108414   -4.306124   -3.568669
    148          1           0      -19.553488   -3.196602   -3.365403
    149          1           0      -21.015795   -4.574537   -4.355707
    150          1           0      -20.050456   -6.036494   -3.744137
    151          1           0      -19.582200   -5.215227   -5.190327
    152          1           0      -15.462815   -1.371653   -2.046502
    153          1           0      -14.578138   -1.034759   -0.585892
    154          1           0      -14.740136    0.274360   -1.827040
    155          1           0      -17.910092    4.019504   -0.684061
    156          1           0      -15.715821    6.902484    1.702532
    157          1           0      -15.499604    5.358242    2.630520
    158          1           0      -16.871136    6.319092    2.775584
 ---------------------------------------------------------------------

 SCF Done:  E(RPBE1PBE) =  -4067.36222091     A.U. after   16 cycles

 Excitation energies and oscillator strengths:

 Excited State   1:      Singlet-A      1.8174 eV  682.19 nm  f=0.3873  <S**2>=0.000
     309 -> 315       -0.16206
     311 -> 313        0.69598
     311 <- 313       -0.11405
 This state for optimization and/or second-order correction.
 Total Energy, E(TD-HF/TD-DFT) =  -4067.29543113
 Copying the excited state density for this state as the 1-particle RhoCI density.

 Excited State   2:      Singlet-A      1.8729 eV  661.98 nm  f=0.0000  <S**2>=0.000
     312 -> 313        0.70711

 Excited State   3:      Singlet-A      1.9474 eV  636.66 nm  f=0.3570  <S**2>=0.000
     310 -> 316        0.18519
     312 -> 314        0.68730

 Excited State   4:      Singlet-A      2.1767 eV  569.61 nm  f=0.0000  <S**2>=0.000
     311 -> 314        0.70711

 Excited State   5:      Singlet-A      2.1798 eV  568.78 nm  f=0.1277  <S**2>=0.000
     309 -> 313        0.66143
     311 -> 315        0.23367

 The electronic state is 1-A.
 Alpha  occ. eigenvalues --  -46.92756 -46.91141 -19.26490 -19.25569 -19.20503
 Alpha  occ. eigenvalues --  -19.19987 -19.19314 -19.19034 -19.18878 -19.18753
 Alpha  occ. eigenvalues --  -14.42065 -14.41637 -14.40777 -14.40738 -14.39498
 Alpha  occ. eigenvalues --  -14.39436 -14.38651 -14.38473 -10.37072 -10.35225
 Alpha  occ. eigenvalues --  -10.33943 -10.32184 -10.31965 -10.31591 -10.29891
 Alpha  occ. eigenvalues --  -10.29185 -10.29025 -10.28773 -10.28628 -10.28587
 Alpha  occ. eigenvalues --  -10.28552 -10.28235 -10.28122 -10.28117 -10.28036
 Alpha  occ. eigenvalues --  -10.27833 -10.27788 -10.27540 -10.27499 -10.27293
 Alpha  occ. eigenvalues --  -10.26811 -10.26780 -10.26738 -10.26666 -10.26548
 Alpha  occ. eigenvalues --  -10.26534 -10.26516 -10.26433 -10.26302 -10.25925
 Alpha  occ. eigenvalues --  -10.25802 -10.25796 -10.25739 -10.25686 -10.25454
 Alpha  occ. eigenvalues --  -10.25287 -10.25233 -10.25190 -10.25176 -10.25173
 Alpha  occ. eigenvalues --  -10.25122 -10.25104 -10.25072 -10.24822 -10.24821
 Alpha  occ. eigenvalues --  -10.24684 -10.24444 -10.24439 -10.24430 -10.24240
 Alpha  occ. eigenvalues --  -10.23915 -10.23670 -10.23584 -10.23525 -10.23463
 Alpha  occ. eigenvalues --  -10.23458 -10.23312 -10.23237 -10.23112 -10.23042
 Alpha  occ. eigenvalues --  -10.23019 -10.22905 -10.22902 -10.22701 -10.21953
 Alpha  occ. eigenvalues --  -10.21738  -3.14838  -3.13458  -1.87680  -1.87230
 Alpha  occ. eigenvalues --   -1.87046  -1.86305  -1.85845  -1.85683  -1.11299
 Alpha  occ. eigenvalues --   -1.10849  -1.07160  -1.04877  -1.04403  -1.02674
 Alpha  occ. eigenvalues --   -1.01463  -1.00633  -1.00442  -0.99763  -0.99638
 Alpha  occ. eigenvalues --   -0.99160  -0.98375  -0.97682  -0.96705  -0.95132
 Alpha  occ. eigenvalues --   -0.86801  -0.86743  -0.83971  -0.83221  -0.83106
 Alpha  occ. eigenvalues --   -0.82963  -0.82927  -0.82410  -0.81726  -0.81597
 Alpha  occ. eigenvalues --   -0.81247  -0.81058  -0.80316  -0.80173  -0.78994
 Alpha  occ. eigenvalues --   -0.78590  -0.78384  -0.77467  -0.77199  -0.76624
 Alpha  occ. eigenvalues --   -0.76286  -0.75899  -0.75789  -0.75080  -0.74458
 Alpha  occ. eigenvalues --   -0.74381  -0.72687  -0.72640  -0.71598  -0.71181
 Alpha  occ. eigenvalues --   -0.71148  -0.70980  -0.70304  -0.70110  -0.69786
 Alpha  occ. eigenvalues --   -0.69590  -0.67310  -0.67272  -0.66308  -0.66061
 Alpha  occ. eigenvalues --   -0.64564  -0.63969  -0.63794  -0.63158  -0.62193
 Alpha  occ. eigenvalues --   -0.62032  -0.61605  -0.61071  -0.59920  -0.59561
 Alpha  occ. eigenvalues --   -0.59535  -0.59208  -0.59133  -0.58731  -0.58356
 Alpha  occ. eigenvalues --   -0.58254  -0.56560  -0.56442  -0.55183  -0.54646
 Alpha  occ. eigenvalues --   -0.54001  -0.53838  -0.53772  -0.53687  -0.52965
 Alpha  occ. eigenvalues --   -0.52892  -0.52511  -0.52263  -0.52129  -0.51926
 Alpha  occ. eigenvalues --   -0.51001  -0.50793  -0.50428  -0.50017  -0.49966
 Alpha  occ. eigenvalues --   -0.49809  -0.49764  -0.49329  -0.49139  -0.48921
 Alpha  occ. eigenvalues --   -0.48550  -0.48217  -0.48033  -0.47837  -0.47559
 Alpha  occ. eigenvalues --   -0.47471  -0.47324  -0.47237  -0.47057  -0.46824
 Alpha  occ. eigenvalues --   -0.46785  -0.46075  -0.45931  -0.45800  -0.45744
 Alpha  occ. eigenvalues --   -0.45394  -0.45248  -0.45146  -0.44996  -0.44979
 Alpha  occ. eigenvalues --   -0.44788  -0.44746  -0.44471  -0.44277  -0.43920
 Alpha  occ. eigenvalues --   -0.43560  -0.43489  -0.43454  -0.43451  -0.43339
 Alpha  occ. eigenvalues --   -0.43302  -0.43195  -0.42918  -0.42876  -0.42729
 Alpha  occ. eigenvalues --   -0.42650  -0.42399  -0.42224  -0.42136  -0.42085
 Alpha  occ. eigenvalues --   -0.41728  -0.41709  -0.41461  -0.41453  -0.41305
 Alpha  occ. eigenvalues --   -0.40880  -0.40780  -0.40682  -0.40567  -0.40473
 Alpha  occ. eigenvalues --   -0.40274  -0.40178  -0.39834  -0.39671  -0.39433
 Alpha  occ. eigenvalues --   -0.39230  -0.39124  -0.39119  -0.39064  -0.38963
 Alpha  occ. eigenvalues --   -0.38825  -0.38822  -0.38670  -0.38413  -0.38337
 Alpha  occ. eigenvalues --   -0.38069  -0.38006  -0.37888  -0.37826  -0.37559
 Alpha  occ. eigenvalues --   -0.37456  -0.37398  -0.37329  -0.37153  -0.37061
 Alpha  occ. eigenvalues --   -0.37024  -0.36667  -0.36461  -0.36291  -0.36167
 Alpha  occ. eigenvalues --   -0.36060  -0.35713  -0.35347  -0.35332  -0.34822
 Alpha  occ. eigenvalues --   -0.34634  -0.34216  -0.34178  -0.33979  -0.33824
 Alpha  occ. eigenvalues --   -0.33609  -0.33173  -0.32990  -0.32431  -0.32311
 Alpha  occ. eigenvalues --   -0.32153  -0.31793  -0.31671  -0.31561  -0.31161
 Alpha  occ. eigenvalues --   -0.30858  -0.30698  -0.29511  -0.29418  -0.29109
 Alpha  occ. eigenvalues --   -0.28667  -0.28595  -0.27984  -0.27058  -0.26953
 Alpha  occ. eigenvalues --   -0.26572  -0.26157  -0.25832  -0.25764  -0.25526
 Alpha  occ. eigenvalues --   -0.25361  -0.25289  -0.24991  -0.21139  -0.20343
 Alpha  occ. eigenvalues --   -0.19084  -0.18880
 Alpha virt. eigenvalues --   -0.11674  -0.10767  -0.05213  -0.04639  -0.03850
 Alpha virt. eigenvalues --   -0.03618  -0.02181  -0.01825  -0.00439  -0.00302
 Alpha virt. eigenvalues --    0.00117   0.00122   0.01103   0.01495   0.01970

 Mulliken charges:
               1
     1  Mg  11.997778
     2  C    6.015908
     3  C    5.993803
     4  C    5.985426
     5  C    6.009685
     6  N    7.005735
     7  C    5.968786
     8  C    6.010516
     9  C    5.992355
    10  C    6.024218
    11  C    5.993294
    12  C    6.003001
    13  C    5.999617
    14  H    0.999478
    15  N    6.995467
    16  C    6.035524
    17  C    6.021876
    18  C    6.015086
    19  C    6.029435
    20  C    6.001470
    21  C    6.012041
    22  O    8.030012
    23  C    5.996838
    24  N    7.001554
    25  C    6.033094
    26  C    5.992493
    27  C    6.001596
    28  C    5.967487
    29  C    5.998373
    30  C    6.007018
    31  C    6.005016
    32  N    7.001571
    33  C    5.960495
    34  C    5.978468
    35  C    5.993844
    36  C    5.967584
    37  C    6.002733
    38  C    5.980837
    39  O    7.969411
    40  C    6.002042
    41  C    5.997413
    42  O    7.994191
    43  O    7.998217
    44  C    6.001010
    45  H    1.010828
    46  H    1.006286
    47  H    0.990659
    48  H    1.000013
    49  H    0.999966
    50  H    1.001295
    51  H    1.012765
    52  H    0.997986
    53  H    0.997576
    54  H    1.005728
    55  H    0.995377
    56  H    0.994901
    57  H    1.015321
    58  H    1.016909
    59  H    1.014894
    60  H    1.006905
    61  H    1.013820
    62  H    1.007878
    63  H    0.998481
    64  H    0.999645
    65  H    1.002415
    66  H    0.994745
    67  H    1.012502
    68  H    0.989926
    69  H    1.004395
    70  H    0.994281
    71  H    1.005502
    72  H    0.985291
    73  H    0.985666
    74  H    0.982546
    75  H    0.983266
    76  H    0.991843
    77  H    0.993539
    78  H    0.997140
    79  H    0.997915
    80  Mg  12.000017
    81  C    5.999872
    82  C    6.000000
    83  C    6.000166
    84  C    6.000013
    85  N    6.999940
    86  C    6.000126
    87  C    5.999972
    88  C    6.000022
    89  C    5.999924
    90  C    6.000027
    91  C    5.999992
    92  C    5.999996
    93  H    0.999967
    94  N    7.000056
    95  C    5.999896
    96  C    5.999918
    97  C    5.999972
    98  C    5.999848
    99  C    6.000019
   100  C    5.999954
   101  O    7.999918
   102  C    6.000016
   103  N    6.999986
   104  C    5.999823
   105  C    6.000049
   106  C    5.999974
   107  C    6.000063
   108  C    5.999992
   109  C    5.999995
   110  C    6.000002
   111  N    6.999966
   112  C    6.000053
   113  C    6.000110
   114  C    5.999960
   115  C    6.000185
   116  C    6.000016
   117  C    6.000063
   118  O    8.000156
   119  C    6.000034
   120  C    6.000008
   121  O    7.999980
   122  O    8.000026
   123  C    6.000008
   124  H    0.999938
   125  H    0.999951
   126  H    1.000059
   127  H    0.999991
   128  H    0.999986
   129  H    0.999965
   130  H    0.999946
   131  H    0.999973
   132  H    1.000030
   133  H    1.000016
   134  H    1.000001
   135  H    1.000032
   136  H    0.999949
   137  H    0.999909
   138  H    0.999932
   139  H    0.999976
   140  H    0.999953
   141  H    0.999942
   142  H    1.000003
   143  H    1.000019
   144  H    0.999990
   145  H    0.999973
   146  H    0.999971
   147  H    1.000049
   148  H    1.000007
   149  H    1.000004
   150  H    0.999993
   151  H    1.000054
   152  H    1.000085
   153  H    1.000070
   154  H    1.000108
   155  H    1.000046
   156  H    1.000036
   157  H    0.999990
   158  H    0.999975
 Sum of Mulliken charges = 624.00000

 Dipole moment (field-independent basis, Debye):
    X=              3.6980    Y=             -1.0681    Z=              9.8784  Tot=             10.6018
 Quadrupole moment (field-independent basis, Debye-Ang):
   XX=            149.4172   YY=             -2.0733   ZZ=              7.3370
   XY=            -25.4727   XZ=            206.0584   YZ=             -5.9547

 Normal termination of Gaussian 16 at Thu Oct 14 09:17:14 2021.
