 Gaussian 16, Revision A.03,
 Gaussian 16:  ES64L-G16RevA.03 25-Dec-2016

 --------------------------------------------------------
 #p PBE1PBE/Def2SVP td=(nstates=5) density=(transition=1)
 --------------------------------------------------------

 --------------------------------
 TDDFT excited states in gaussian
 --------------------------------
 Symbolic Z-matrix:
 Charge =  0 Multiplicity = 1

                         Standard orientation:
 ---------------------------------------------------------------------
 Center     Atomic      Atomic             Coordinates (Angstroms)
 Number     Number       Type             X           Y           Z
 ---------------------------------------------------------------------
      1         12           0      -25.806702   -0.461774   -0.203703
      2          6           0      -24.463980    2.534222   -1.216087
      3          6           0      -26.488795    1.032311    2.952574
      4          6           0      -26.660837   -3.453971    1.117994
      5          6           0      -24.860687   -1.951301   -3.056246
      6          7           0      -25.499778    1.564626    0.753193
      7          6           0      -24.906676    2.616312    0.107788
      8          6           0      -24.943316    3.881160    0.968460
      9          6           0      -25.425475    3.275098    2.366521
     10          6           0      -25.830010    1.872532    2.018208
     11          6           0      -24.367475    3.402464    3.523290
     12          6           0      -25.936189    5.003550    0.416896
     13          6           0      -25.568089    6.467164    0.375338
     14          1           0      -24.951069    7.076364    1.583942
     15          7           0      -26.541431   -1.150158    1.761566
     16          6           0      -26.909476   -0.384322    2.812152
     17          6           0      -27.577825   -1.152628    3.808378
     18          6           0      -27.675708   -2.480350    3.284723
     19          6           0      -26.872906   -2.401269    2.027904
     20          6           0      -27.963139   -0.484788    5.088824
     21          6           0      -28.231397   -3.727339    3.951176
     22          8           0      -28.010056   -4.862814    3.518990
     23          6           0      -29.076881   -3.611241    5.207324
     24          7           0      -25.628376   -2.492104   -0.821721
     25          6           0      -26.177243   -3.532937   -0.141697
     26          6           0      -26.153796   -4.803960   -0.989034
     27          6           0      -25.729350   -4.252017   -2.402888
     28          6           0      -25.389769   -2.808155   -2.089670
     29          6           0      -25.374064   -6.069764   -0.525405
     30          6           0      -26.763422   -4.454220   -3.587885
     31          6           0      -27.772030   -3.374453   -3.918278
     32          7           0      -24.781815    0.093626   -1.766932
     33          6           0      -24.558914   -0.538646   -2.963771
     34          6           0      -23.830872    0.249199   -3.890313
     35          6           0      -23.807762    1.494648   -3.270481
     36          6           0      -24.416752    1.351930   -1.997158
     37          6           0      -23.281396   -0.021778   -5.284799
     38          6           0      -23.386854    2.823175   -3.370415
     39          8           0      -22.754762    3.346837   -4.269296
     40          6           0      -23.765324    3.627889   -2.003693
     41          6           0      -22.524039    4.111971   -1.412317
     42          8           0      -21.605351    3.402599   -0.956480
     43          8           0      -22.405257    5.465912   -1.436516
     44          6           0      -21.093205    6.066981   -1.171960
     45          1           0      -26.725888    1.618540    3.842426
     46          1           0      -27.185257   -4.367345    1.405694
     47          1           0      -24.874627   -2.284106   -4.095494
     48          1           0      -23.952326    4.336549    0.951386
     49          1           0      -26.283292    3.819882    2.761169
     50          1           0      -24.822005    3.985916    4.323234
     51          1           0      -23.488296    3.832290    3.042982
     52          1           0      -24.125237    2.472259    4.038132
     53          1           0      -26.789297    4.873108    1.082929
     54          1           0      -26.388580    4.695504   -0.525142
     55          1           0      -26.416373    7.054567    0.024022
     56          1           0      -24.762761    6.540570   -0.354632
     57          1           0      -28.983092   -0.817143    5.278576
     58          1           0      -28.011544    0.597014    4.962024
     59          1           0      -27.332251   -0.696079    5.952885
     60          1           0      -29.804460   -2.799562    5.179404
     61          1           0      -28.435364   -3.672867    6.087460
     62          1           0      -29.674443   -4.523346    5.208464
     63          1           0      -27.184687   -5.153904   -0.931040
     64          1           0      -24.891463   -4.798192   -2.834547
     65          1           0      -24.494464   -6.221376   -1.150873
     66          1           0      -26.053038   -6.911233   -0.662323
     67          1           0      -25.123205   -5.893844    0.520069
     68          1           0      -27.319566   -5.362029   -3.358018
     69          1           0      -26.225106   -4.623938   -4.520635
     70          1           0      -28.788818   -3.766267   -3.954060
     71          1           0      -27.572593   -2.864391   -4.861639
     72          1           0      -27.677278   -2.650444   -3.108978
     73          1           0      -23.558528   -1.032696   -5.586152
     74          1           0      -22.198561    0.104986   -5.273107
     75          1           0      -23.713809    0.704115   -5.972846
     76          1           0      -24.313808    4.470559   -2.425611
     77          1           0      -20.968603    7.064804   -1.592810
     78          1           0      -20.233477    5.433480   -1.388168
     79          1           0      -21.105039    6.301490   -0.107439
     80         12           0       24.918141   -0.681205    0.069913
     81          6           0       26.423741    2.342051   -0.503368
     82          6           0       23.277040    0.615039    2.682557
     83          6           0       23.710300   -3.774327    0.650322
     84          6           0       27.112984   -2.140610   -2.434498
     85          7           0       25.087361    1.247755    1.148041
     86          6           0       25.661111    2.364492    0.684071
     87          6           0       25.316667    3.620613    1.637597
     88          6           0       24.288660    2.941180    2.617677
     89          6           0       24.214155    1.467352    2.170384
     90          6           0       24.609096    3.169893    4.107630
     91          6           0       24.735565    4.845856    0.876405
     92          6           0       24.034490    5.970264    1.706534
     93          1           0       24.835734    7.304254    1.955066
     94          7           0       23.690343   -1.485707    1.519138
     95          6           0       23.039804   -0.795542    2.432615
     96          6           0       22.183840   -1.704807    3.179440
     97          6           0       22.352118   -3.037550    2.696998
     98          6           0       23.280256   -2.806908    1.568226
     99          6           0       21.364772   -1.338325    4.406009
    100          6           0       21.789728   -4.360171    3.207359
    101          8           0       22.270177   -5.432165    2.850951
    102          6           0       20.642718   -4.331528    4.155875
    103          7           0       25.393295   -2.686691   -0.752645
    104          6           0       24.719832   -3.766252   -0.373417
    105          6           0       25.045108   -4.987610   -1.249193
    106          6           0       25.942738   -4.350018   -2.306475
    107          6           0       26.184419   -2.988090   -1.771242
    108          6           0       25.643053   -6.226509   -0.566076
    109          6           0       25.448812   -4.523606   -3.720425
    110          6           0       26.369875   -5.359176   -4.679329
    111          7           0       26.380909   -0.073605   -1.222633
    112          6           0       27.138075   -0.735912   -2.246369
    113          6           0       27.939447    0.206482   -2.995870
    114          6           0       27.637529    1.417167   -2.312432
    115          6           0       26.725363    1.184881   -1.275334
    116          6           0       28.734228    0.054544   -4.244686
    117          6           0       27.840555    2.833920   -2.481271
    118          8           0       28.340856    3.536111   -3.372607
    119          6           0       27.208590    3.517829   -1.294785
    120          6           0       28.335300    4.028735   -0.369914
    121          8           0       29.376176    3.436485   -0.046120
    122          8           0       27.984286    5.275882    0.054303
    123          6           0       28.943461    6.004683    0.943560
    124          1           0       22.595829    0.940637    3.471489
    125          1           0       23.531127   -4.824895    0.888363
    126          1           0       27.637592   -2.623230   -3.261054
    127          1           0       26.262198    3.832892    2.135285
    128          1           0       23.305836    3.359537    2.400685
    129          1           0       23.665270    3.397878    4.601728
    130          1           0       25.256407    4.033994    4.257748
    131          1           0       25.069805    2.285089    4.547082
    132          1           0       23.902234    4.448011    0.297309
    133          1           0       25.521429    5.331792    0.298255
    134          1           0       23.910577    5.582568    2.718213
    135          1           0       23.111469    6.252084    1.201039
    136          1           0       21.465276   -0.280750    4.649902
    137          1           0       21.704755   -1.923448    5.260148
    138          1           0       20.306506   -1.555876    4.267320
    139          1           0       19.914876   -3.659408    3.700477
    140          1           0       20.736656   -4.008578    5.192242
    141          1           0       20.186663   -5.310896    4.296548
    142          1           0       24.115750   -5.314301   -1.714491
    143          1           0       26.896717   -4.876157   -2.276673
    144          1           0       25.157960   -7.062785   -1.068886
    145          1           0       25.491478   -6.181432    0.512294
    146          1           0       26.730609   -6.283771   -0.610181
    147          1           0       25.471200   -3.511952   -4.124337
    148          1           0       24.459729   -4.976074   -3.785679
    149          1           0       27.270796   -5.672310   -4.151030
    150          1           0       26.668026   -4.699347   -5.494667
    151          1           0       25.885625   -6.196817   -5.181487
    152          1           0       28.552172   -0.923889   -4.688455
    153          1           0       29.772992    0.023967   -3.917872
    154          1           0       28.408859    0.877905   -4.882180
    155          1           0       26.638271    4.336946   -1.733240
    156          1           0       29.348779    5.418059    1.768355
    157          1           0       28.562419    6.944338    1.342140
    158          1           0       29.808508    6.220477    0.316713
 ---------------------------------------------------------------------

 SCF Done:  E(RPBE1PBE) =  -4067.40225175     A.U. after   16 cycles

 Excitation energies and oscillator strengths:

 Excited State   1:      Singlet-A      1.8775 eV  660.35 nm  f=0.3717  <S**2>=0.000
     309 -> 316        0.17163
     311 -> 313        0.69305
     311 <- 313       -0.11022
 This state for optimization and/or second-order correction.
 Total Energy, E(TD-HF/TD-DFT) =  -4067.33325325
 Copying the excited state density for this state as the 1-particle RhoCI density.

 Excited State   2:      Singlet-A      1.8791 eV  659.82 nm  f=0.4101  <S**2>=0.000
     310 -> 315       -0.16656
     312 -> 314        0.69037
     312 <- 314       -0.10560

 Excited State   3:      Singlet-A      1.8969 eV  653.62 nm  f=0.0000  <S**2>=0.000
     312 -> 313        0.70711

 Excited State   4:      Singlet-A      2.1272 eV  582.85 nm  f=0.0000  <S**2>=0.000
     311 -> 314        0.70711

 Excited State   5:      Singlet-A      2.2058 eV  562.09 nm  f=0.1667  <S**2>=0.000
     309 -> 313        0.67015
     311 -> 316       -0.21435

 The electronic state is 1-A.
 Alpha  occ. eigenvalues --  -46.92569 -46.92528 -19.26283 -19.25720 -19.19717
 Alpha  occ. eigenvalues --  -19.19651 -19.19072 -19.18946 -19.18772 -19.17989
 Alpha  occ. eigenvalues --  -14.41648 -14.41435 -14.41366 -14.41068 -14.39622
 Alpha  occ. eigenvalues --  -14.39203 -14.39176 -14.38950 -10.36621 -10.35942
 Alpha  occ. eigenvalues --  -10.33136 -10.32467 -10.31757 -10.30524 -10.29399
 Alpha  occ. eigenvalues --  -10.29397 -10.28878 -10.28847 -10.28636 -10.28552
 Alpha  occ. eigenvalues --  -10.28236 -10.28222 -10.28089 -10.27899 -10.27811
 Alpha  occ. eigenvalues --  -10.27792 -10.27784 -10.27715 -10.27714 -10.27704
 Alpha  occ. eigenvalues --  -10.26860 -10.26765 -10.26420 -10.26318 -10.26268
 Alpha  occ. eigenvalues --  -10.26189 -10.26130 -10.26084 -10.25954 -10.25936
 Alpha  occ. eigenvalues --  -10.25843 -10.25818 -10.25813 -10.25774 -10.25580
 Alpha  occ. eigenvalues --  -10.25568 -10.25391 -10.25379 -10.25173 -10.25166
 Alpha  occ. eigenvalues --  -10.25163 -10.24938 -10.24818 -10.24508 -10.24491
 Alpha  occ. eigenvalues --  -10.24431 -10.24347 -10.24317 -10.24297 -10.24036
 Alpha  occ. eigenvalues --  -10.23945 -10.23913 -10.23908 -10.23887 -10.23758
 Alpha  occ. eigenvalues --  -10.23636 -10.23618 -10.23576 -10.23426 -10.23226
 Alpha  occ. eigenvalues --  -10.23147 -10.23132 -10.22853 -10.22475 -10.22440
 Alpha  occ. eigenvalues --  -10.22189  -3.14717  -3.14675  -1.87540  -1.87507
 Alpha  occ. eigenvalues --   -1.87052  -1.87043  -1.86989  -1.86911  -1.10639
 Alpha  occ. eigenvalues --   -1.10337  -1.05024  -1.04739  -1.04156  -1.02739
 Alpha  occ. eigenvalues --   -1.01365  -1.00646  -1.00322  -1.00118  -0.99350
 Alpha  occ. eigenvalues --   -0.99030  -0.98805  -0.98555  -0.98156  -0.97663
 Alpha  occ. eigenvalues --   -0.87018  -0.85657  -0.84216  -0.83345  -0.82988
 Alpha  occ. eigenvalues --   -0.82559  -0.82482  -0.82472  -0.82197  -0.81768
 Alpha  occ. eigenvalues --   -0.81717  -0.81458  -0.81298  -0.80762  -0.78607
 Alpha  occ. eigenvalues --   -0.78455  -0.78064  -0.77588  -0.76961  -0.76490
 Alpha  occ. eigenvalues --   -0.76381  -0.76032  -0.75521  -0.75387  -0.74632
 Alpha  occ. eigenvalues --   -0.74409  -0.72850  -0.72693  -0.71827  -0.71826
 Alpha  occ. eigenvalues --   -0.71431  -0.71027  -0.70574  -0.70385  -0.69875
 Alpha  occ. eigenvalues --   -0.69689  -0.68039  -0.67093  -0.66133  -0.66017
 Alpha  occ. eigenvalues --   -0.64046  -0.63768  -0.63676  -0.63439  -0.62588
 Alpha  occ. eigenvalues --   -0.62200  -0.61976  -0.61562  -0.60283  -0.60065
 Alpha  occ. eigenvalues --   -0.59708  -0.59452  -0.59262  -0.58908  -0.58794
 Alpha  occ. eigenvalues --   -0.58421  -0.57199  -0.56871  -0.55223  -0.54749
 Alpha  occ. eigenvalues --   -0.54435  -0.54223  -0.53679  -0.53464  -0.53251
 Alpha  occ. eigenvalues --   -0.52896  -0.52606  -0.52467  -0.51912  -0.51867
 Alpha  occ. eigenvalues --   -0.50886  -0.50876  -0.50223  -0.49892  -0.49654
 Alpha  occ. eigenvalues --   -0.49614  -0.49358  -0.49103  -0.48634  -0.48633
 Alpha  occ. eigenvalues --   -0.48297  -0.47990  -0.47885  -0.47794  -0.47259
 Alpha  occ. eigenvalues --   -0.47148  -0.47134  -0.47076  -0.46784  -0.46762
 Alpha  occ. eigenvalues --   -0.46644  -0.46366  -0.46015  -0.45751  -0.45653
 Alpha  occ. eigenvalues --   -0.45414  -0.45320  -0.45089  -0.45009  -0.44846
 Alpha  occ. eigenvalues --   -0.44567  -0.44492  -0.44370  -0.44206  -0.44177
 Alpha  occ. eigenvalues --   -0.43953  -0.43900  -0.43698  -0.43598  -0.43548
 Alpha  occ. eigenvalues --   -0.43443  -0.43399  -0.43195  -0.43187  -0.42847
 Alpha  occ. eigenvalues --   -0.42838  -0.42555  -0.42450  -0.42279  -0.42161
 Alpha  occ. eigenvalues --   -0.41937  -0.41845  -0.41625  -0.41457  -0.41234
 Alpha  occ. eigenvalues --   -0.41161  -0.40960  -0.40892  -0.40748  -0.40659
 Alpha  occ. eigenvalues --   -0.40638  -0.40125  -0.39786  -0.39699  -0.39546
 Alpha  occ. eigenvalues --   -0.39262  -0.39259  -0.39127  -0.38864  -0.38844
 Alpha  occ. eigenvalues --   -0.38802  -0.38790  -0.38660  -0.38420  -0.38358
 Alpha  occ. eigenvalues --   -0.38229  -0.37997  -0.37765  -0.37748  -0.37666
 Alpha  occ. eigenvalues --   -0.37148  -0.36995  -0.36837  -0.36804  -0.36786
 Alpha  occ. eigenvalues --   -0.36728  -0.36599  -0.36390  -0.36370  -0.36212
 Alpha  occ. eigenvalues --   -0.36029  -0.35942  -0.35672  -0.35493  -0.35383
 Alpha  occ. eigenvalues --   -0.34986  -0.34776  -0.34502  -0.34212  -0.33997
 Alpha  occ. eigenvalues --   -0.33460  -0.33235  -0.33225  -0.32863  -0.32350
 Alpha  occ. eigenvalues --   -0.32079  -0.31696  -0.31656  -0.31196  -0.31140
 Alpha  occ. eigenvalues --   -0.31010  -0.30606  -0.29770  -0.29491  -0.29126
 Alpha  occ. eigenvalues --   -0.28668  -0.28665  -0.28028  -0.27009  -0.26768
 Alpha  occ. eigenvalues --   -0.26615  -0.26563  -0.26148  -0.26131  -0.25578
 Alpha  occ. eigenvalues --   -0.25421  -0.25355  -0.24784  -0.20852  -0.20850
 Alpha  occ. eigenvalues --   -0.19098  -0.18721
 Alpha virt. eigenvalues --   -0.11490  -0.11020  -0.05324  -0.04807  -0.03964
 Alpha virt. eigenvalues --   -0.03576  -0.01954  -0.01867  -0.00996  -0.00828
 Alpha virt. eigenvalues --    0.00132   0.00795   0.00958   0.01792   0.02250

 Mulliken charges:
               1
     1  Mg  12.001631
     2  C    5.979556
     3  C    6.004639
     4  C    6.025749
     5  C    6.005812
     6  N    6.992592
     7  C    6.028291
     8  C    5.990211
     9  C    6.012574
    10  C    5.969416
    11  C    6.003725
    12  C    5.995570
    13  C    5.999720
    14  H    1.006454
    15  N    7.003244
    16  C    5.963890
    17  C    5.980883
    18  C    5.982284
    19  C    5.967014
    20  C    6.004008
    21  C    5.987796
    22  O    7.968846
    23  C    6.006462
    24  N    7.014732
    25  C    5.963865
    26  C    6.009244
    27  C    5.990294
    28  C    6.020779
    29  C    5.999769
    30  C    5.997382
    31  C    5.995494
    32  N    6.999854
    33  C    6.026955
    34  C    6.029644
    35  C    6.000598
    36  C    6.026590
    37  C    5.999182
    38  C    6.015586
    39  O    8.029511
    40  C    6.008100
    41  C    6.003216
    42  O    8.005606
    43  O    8.002308
    44  C    5.996972
    45  H    0.986899
    46  H    0.998431
    47  H    1.012833
    48  H    0.997816
    49  H    0.997666
    50  H    0.996628
    51  H    0.986011
    52  H    1.002199
    53  H    1.011065
    54  H    0.995515
    55  H    1.001477
    56  H    0.994472
    57  H    0.984182
    58  H    0.984918
    59  H    0.979181
    60  H    0.993151
    61  H    0.990316
    62  H    0.985924
    63  H    1.003169
    64  H    1.002868
    65  H    0.991186
    66  H    0.998366
    67  H    1.005556
    68  H    1.011161
    69  H    0.999281
    70  H    1.009312
    71  H    0.997226
    72  H    1.001090
    73  H    1.015488
    74  H    1.016929
    75  H    1.016084
    76  H    1.005769
    77  H    1.003946
    78  H    1.000921
    79  H    1.006916
    80  Mg  11.999960
    81  C    6.000488
    82  C    5.999357
    83  C    5.999895
    84  C    6.000230
    85  N    7.000017
    86  C    5.999080
    87  C    6.000211
    88  C    5.999714
    89  C    6.000960
    90  C    5.999962
    91  C    6.000163
    92  C    5.999947
    93  H    1.000024
    94  N    6.999964
    95  C    6.001171
    96  C    6.000604
    97  C    6.000446
    98  C    6.000741
    99  C    5.999904
   100  C    6.000426
   101  O    8.000764
   102  C    5.999804
   103  N    7.000047
   104  C    6.000954
   105  C    5.999674
   106  C    6.000364
   107  C    5.999023
   108  C    5.999941
   109  C    5.999997
   110  C    6.000015
   111  N    7.000008
   112  C    5.998964
   113  C    5.999214
   114  C    5.999795
   115  C    5.999254
   116  C    6.000029
   117  C    5.999508
   118  O    7.998980
   119  C    6.000073
   120  C    5.999827
   121  O    7.999942
   122  O    7.999936
   123  C    6.000023
   124  H    1.000130
   125  H    1.000241
   126  H    0.999666
   127  H    1.000025
   128  H    1.000013
   129  H    0.999956
   130  H    1.000306
   131  H    0.999957
   132  H    0.999869
   133  H    1.000167
   134  H    0.999821
   135  H    0.999914
   136  H    1.000588
   137  H    1.000558
   138  H    1.000535
   139  H    1.000131
   140  H    1.000302
   141  H    1.000441
   142  H    0.999983
   143  H    1.000018
   144  H    1.000132
   145  H    0.999820
   146  H    1.000312
   147  H    1.000149
   148  H    0.999649
   149  H    0.999967
   150  H    1.000083
   151  H    0.999833
   152  H    0.999501
   153  H    0.999522
   154  H    0.999631
   155  H    0.999711
   156  H    0.999873
   157  H    0.999823
   158  H    0.999971
 Sum of Mulliken charges = 624.00000

 Dipole moment (field-independent basis, Debye):
    X=              4.2303    Y=              2.6146    Z=             -8.9261  Tot=             10.2179
 Quadrupole moment (field-independent basis, Debye-Ang):
   XX=           -236.5717   YY=             -0.5643   ZZ=             -1.0105
   XY=            -74.6384   XZ=            240.8029   YZ=              5.1699

 Normal termination of Gaussian 16 at Fri Oct 15 18:33:34 2021.
