 Gaussian 16, Revision A.03,
 Gaussian 16:  ES64L-G16RevA.03 25-Dec-2016

 --------------------------------------------------------
 #p PBE1PBE/Def2SVP td=(nstates=5) density=(transition=1)
 --------------------------------------------------------

 --------------------------------
 TDDFT excited states in gaussian
 --------------------------------
 Symbolic Z-matrix:
 Charge =  0 Multiplicity = 1

                         Standard orientation:
 ---------------------------------------------------------------------
 Center     Atomic      Atomic             Coordinates (Angstroms)
 Number     Number       Type             X           Y           Z
 ---------------------------------------------------------------------
      1         12           0       25.528492   -0.094680   -0.182909
      2          6           0       22.168219   -0.478356    0.548452
      3          6           0       24.688571    1.942324   -2.849163
      4          6           0       28.768327    0.835383   -0.365363
      5          6           0       26.167749   -1.909460    2.772691
      6          7           0       23.632836    0.877087   -0.876047
      7          6           0       22.436469    0.395147   -0.527822
      8          6           0       21.309459    1.167285   -1.281040
      9          6           0       22.117020    1.725553   -2.546200
     10          6           0       23.608440    1.443212   -2.120055
     11          6           0       21.637075    1.115220   -3.885100
     12          6           0       20.800181    2.313398   -0.436959
     13          6           0       19.295752    2.533079   -0.469270
     14          1           0       18.642113    3.966067   -0.448559
     15          7           0       26.588116    1.108096   -1.593328
     16          6           0       26.095888    1.911513   -2.551969
     17          6           0       27.204506    2.509346   -3.222583
     18          6           0       28.427422    2.066066   -2.633633
     19          6           0       27.985618    1.261763   -1.487617
     20          6           0       27.029045    3.289386   -4.472811
     21          6           0       29.772812    2.561666   -3.029516
     22          8           0       29.892500    3.319981   -3.977437
     23          6           0       31.037461    2.091839   -2.320638
     24          7           0       27.301197   -0.584876    1.051483
     25          6           0       28.485228    0.018454    0.750948
     26          6           0       29.476215   -0.187825    1.850038
     27          6           0       28.611728   -1.075528    2.864931
     28          6           0       27.272283   -1.294514    2.206362
     29          6           0       30.817648   -0.799277    1.404185
     30          6           0       28.480847   -0.510614    4.348400
     31          6           0       28.819197   -1.406240    5.563304
     32          7           0       24.453935   -1.021297    1.322894
     33          6           0       24.841068   -1.764530    2.393401
     34          6           0       23.757884   -2.491598    2.888999
     35          6           0       22.638708   -2.058645    2.191562
     36          6           0       23.100015   -1.116393    1.306839
     37          6           0       23.831365   -3.473638    4.094811
     38          6           0       21.268066   -2.194373    2.023107
     39          8           0       20.483476   -2.843190    2.706195
     40          6           0       20.790468   -1.118232    0.933190
     41          6           0       20.264874   -1.737775   -0.229491
     42          8           0       20.829606   -2.302100   -1.169550
     43          8           0       18.883857   -1.585428   -0.153060
     44          6           0       18.018418   -2.111888   -1.194553
     45          1           0       24.432811    2.454386   -3.778879
     46          1           0       29.838618    1.043453   -0.297820
     47          1           0       26.486457   -2.525377    3.616338
     48          1           0       20.507874    0.461025   -1.495492
     49          1           0       22.122087    2.812169   -2.625498
     50          1           0       20.900329    0.327335   -3.729677
     51          1           0       22.493473    0.719332   -4.431885
     52          1           0       21.235818    1.928434   -4.489456
     53          1           0       21.255213    3.292678   -0.586857
     54          1           0       21.174787    2.097576    0.563621
     55          1           0       18.878762    1.919174    0.328885
     56          1           0       19.034512    2.045272   -1.408350
     57          1           0       27.258266    2.555450   -5.245176
     58          1           0       27.698605    4.149071   -4.505936
     59          1           0       26.016502    3.671837   -4.602061
     60          1           0       31.093758    2.677284   -1.402805
     61          1           0       31.865470    2.456276   -2.928167
     62          1           0       31.010262    1.015140   -2.153562
     63          1           0       29.594702    0.840492    2.190010
     64          1           0       29.091966   -2.032544    3.068957
     65          1           0       31.541501    0.015586    1.439245
     66          1           0       30.769153   -1.255556    0.414929
     67          1           0       31.137638   -1.539249    2.137367
     68          1           0       27.449536   -0.192868    4.501141
     69          1           0       29.130771    0.344638    4.534756
     70          1           0       27.836973   -1.843947    5.741013
     71          1           0       29.090024   -0.793411    6.422092
     72          1           0       29.430291   -2.299278    5.433023
     73          1           0       23.923282   -2.888939    5.009222
     74          1           0       24.699999   -4.131650    4.125973
     75          1           0       22.925647   -4.077092    4.161046
     76          1           0       20.089767   -0.464402    1.452675
     77          1           0       17.078081   -2.385528   -0.717017
     78          1           0       18.454227   -2.903071   -1.805214
     79          1           0       17.747199   -1.280074   -1.844804
     80         12           0      -25.372010    0.409151    0.303733
     81          6           0      -22.324096   -1.299405   -0.158082
     82          6           0      -26.910237   -2.271838   -1.242481
     83          6           0      -28.381610    1.997900    0.573495
     84          6           0      -23.715176    3.083341    1.475435
     85          7           0      -24.685481   -1.601430   -0.576664
     86          6           0      -23.414151   -2.161352   -0.539163
     87          6           0      -23.468881   -3.624993   -0.928425
     88          6           0      -24.879750   -3.773824   -1.605512
     89          6           0      -25.518172   -2.498958   -1.101657
     90          6           0      -24.871302   -3.963507   -3.173059
     91          6           0      -23.365843   -4.575511    0.273679
     92          6           0      -22.580435   -5.867692    0.025139
     93          1           0      -23.195385   -6.939078   -0.917751
     94          7           0      -27.370801   -0.093539   -0.167198
     95          6           0      -27.721075   -1.221645   -0.826879
     96          6           0      -29.119300   -1.169103   -1.106350
     97          6           0      -29.672404   -0.001478   -0.475664
     98          6           0      -28.474477    0.699325   -0.047970
     99          6           0      -29.819461   -2.244145   -1.890344
    100          6           0      -31.103262    0.529681   -0.387715
    101          8           0      -31.404141    1.488939    0.356493
    102          6           0      -32.235580   -0.014841   -1.251091
    103          7           0      -25.961463    2.216328    1.010608
    104          6           0      -27.257044    2.722839    0.971648
    105          6           0      -27.242530    4.133994    1.462822
    106          6           0      -25.772919    4.538843    1.843089
    107          6           0      -25.080026    3.215854    1.478687
    108          6           0      -28.000780    5.147768    0.554071
    109          6           0      -25.549538    4.926457    3.320928
    110          6           0      -25.589477    6.446474    3.570743
    111          7           0      -23.468737    0.874704    0.571619
    112          6           0      -22.870006    2.001847    1.132679
    113          6           0      -21.372473    1.860467    1.263796
    114          6           0      -21.177568    0.579267    0.722802
    115          6           0      -22.443805    0.007821    0.375622
    116          6           0      -20.407149    2.882475    1.836020
    117          6           0      -20.120404   -0.375795    0.426777
    118          8           0      -18.898198   -0.293938    0.555462
    119          6           0      -20.877916   -1.687250   -0.049320
    120          6           0      -20.211639   -2.077324   -1.383375
    121          8           0      -19.859583   -1.318722   -2.263011
    122          8           0      -19.920180   -3.439701   -1.351543
    123          6           0      -19.275471   -3.914546   -2.576010
    124          1           0      -27.372624   -3.167807   -1.661422
    125          1           0      -29.286144    2.592658    0.715213
    126          1           0      -23.247674    4.031708    1.747100
    127          1           0      -22.719277   -3.929023   -1.658601
    128          1           0      -25.457006   -4.635357   -1.269789
    129          1           0      -23.887084   -4.082224   -3.627098
    130          1           0      -25.299575   -3.154665   -3.764571
    131          1           0      -25.389314   -4.880898   -3.452677
    132          1           0      -24.352047   -4.860437    0.639452
    133          1           0      -22.830432   -4.100331    1.095896
    134          1           0      -22.294462   -6.355465    0.956914
    135          1           0      -21.596422   -5.657376   -0.393376
    136          1           0      -29.167328   -2.344542   -2.758081
    137          1           0      -30.812685   -2.022593   -2.280615
    138          1           0      -29.873670   -3.211997   -1.392445
    139          1           0      -31.940933   -0.051649   -2.299996
    140          1           0      -33.030708    0.705152   -1.058035
    141          1           0      -32.498548   -1.031459   -0.958821
    142          1           0      -27.921991    4.171814    2.314836
    143          1           0      -25.325904    5.308075    1.212038
    144          1           0      -28.348348    4.606826   -0.326356
    145          1           0      -27.302808    5.919941    0.231631
    146          1           0      -28.828783    5.489011    1.176313
    147          1           0      -24.643476    4.420720    3.653934
    148          1           0      -26.379769    4.586813    3.940555
    149          1           0      -26.167053    6.934159    2.785215
    150          1           0      -24.636735    6.974339    3.525054
    151          1           0      -26.114762    6.617462    4.510860
    152          1           0      -20.558042    2.897288    2.915567
    153          1           0      -20.547920    3.907430    1.493441
    154          1           0      -19.411202    2.515896    1.587909
    155          1           0      -20.825989   -2.536185    0.632118
    156          1           0      -19.961516   -4.257106   -3.351256
    157          1           0      -18.622787   -4.715602   -2.229284
    158          1           0      -18.652170   -3.228426   -3.149428
 ---------------------------------------------------------------------

 SCF Done:  E(RPBE1PBE) =  -4067.38666695     A.U. after   16 cycles

 Excitation energies and oscillator strengths:

 Excited State   1:      Singlet-A      1.8492 eV  670.48 nm  f=0.3793  <S**2>=0.000
     310 -> 316        0.18095
     312 -> 314        0.69111
     312 <- 314       -0.10443
 This state for optimization and/or second-order correction.
 Total Energy, E(TD-HF/TD-DFT) =  -4067.31871095
 Copying the excited state density for this state as the 1-particle RhoCI density.

 Excited State   2:      Singlet-A      1.8505 eV  670.00 nm  f=0.0000  <S**2>=0.000
     312 -> 313        0.70711

 Excited State   3:      Singlet-A      1.8606 eV  666.38 nm  f=0.3761  <S**2>=0.000
     309 -> 315        0.17785
     311 -> 313        0.69206
     311 <- 313       -0.11022

 Excited State   4:      Singlet-A      2.1435 eV  578.43 nm  f=0.0000  <S**2>=0.000
     311 -> 314        0.70711

 Excited State   5:      Singlet-A      2.2265 eV  556.85 nm  f=0.0982  <S**2>=0.000
     310 -> 314        0.64902
     312 -> 316       -0.27347

 The electronic state is 1-A.
 Alpha  occ. eigenvalues --  -46.93052 -46.91073 -19.26406 -19.25248 -19.20615
 Alpha  occ. eigenvalues --  -19.20325 -19.19500 -19.19367 -19.19335 -19.18592
 Alpha  occ. eigenvalues --  -14.42032 -14.41866 -14.41491 -14.40965 -14.39595
 Alpha  occ. eigenvalues --  -14.39455 -14.39068 -14.38866 -10.36706 -10.36502
 Alpha  occ. eigenvalues --  -10.32896 -10.32345 -10.32276 -10.31774 -10.29300
 Alpha  occ. eigenvalues --  -10.29260 -10.29136 -10.29031 -10.28858 -10.28757
 Alpha  occ. eigenvalues --  -10.28707 -10.28614 -10.28459 -10.28368 -10.28225
 Alpha  occ. eigenvalues --  -10.28195 -10.28162 -10.27471 -10.27106 -10.27078
 Alpha  occ. eigenvalues --  -10.27073 -10.26626 -10.26600 -10.26460 -10.26397
 Alpha  occ. eigenvalues --  -10.26316 -10.26293 -10.26193 -10.26178 -10.26154
 Alpha  occ. eigenvalues --  -10.26137 -10.26135 -10.26107 -10.25989 -10.25972
 Alpha  occ. eigenvalues --  -10.25944 -10.25760 -10.25649 -10.25463 -10.25446
 Alpha  occ. eigenvalues --  -10.25115 -10.25060 -10.25040 -10.24978 -10.24611
 Alpha  occ. eigenvalues --  -10.24503 -10.24451 -10.24359 -10.24347 -10.24315
 Alpha  occ. eigenvalues --  -10.24047 -10.24023 -10.23941 -10.23936 -10.23783
 Alpha  occ. eigenvalues --  -10.23740 -10.23622 -10.23609 -10.23506 -10.23345
 Alpha  occ. eigenvalues --  -10.23341 -10.23295 -10.23169 -10.23034 -10.22522
 Alpha  occ. eigenvalues --  -10.22382  -3.14961  -3.13430  -1.87814  -1.87329
 Alpha  occ. eigenvalues --   -1.87175  -1.86270  -1.85781  -1.85698  -1.11048
 Alpha  occ. eigenvalues --   -1.10416  -1.04779  -1.04742  -1.04003  -1.03542
 Alpha  occ. eigenvalues --   -1.02996  -1.02250  -1.00183  -0.99258  -0.98697
 Alpha  occ. eigenvalues --   -0.98471  -0.98241  -0.97811  -0.97298  -0.96098
 Alpha  occ. eigenvalues --   -0.88265  -0.86937  -0.83800  -0.83678  -0.83373
 Alpha  occ. eigenvalues --   -0.83319  -0.82680  -0.82586  -0.82233  -0.81822
 Alpha  occ. eigenvalues --   -0.81229  -0.81220  -0.80545  -0.80500  -0.79704
 Alpha  occ. eigenvalues --   -0.78891  -0.78642  -0.77894  -0.77317  -0.76579
 Alpha  occ. eigenvalues --   -0.76462  -0.75844  -0.75817  -0.75256  -0.75079
 Alpha  occ. eigenvalues --   -0.74390  -0.72699  -0.72513  -0.71920  -0.71793
 Alpha  occ. eigenvalues --   -0.71566  -0.70859  -0.70774  -0.70462  -0.69526
 Alpha  occ. eigenvalues --   -0.69410  -0.67924  -0.67159  -0.66862  -0.66076
 Alpha  occ. eigenvalues --   -0.64316  -0.63710  -0.63653  -0.63262  -0.62644
 Alpha  occ. eigenvalues --   -0.62536  -0.61759  -0.61673  -0.60546  -0.60318
 Alpha  occ. eigenvalues --   -0.60179  -0.60049  -0.59926  -0.59413  -0.59007
 Alpha  occ. eigenvalues --   -0.58773  -0.57224  -0.57149  -0.55043  -0.54897
 Alpha  occ. eigenvalues --   -0.54626  -0.54499  -0.53695  -0.53513  -0.53496
 Alpha  occ. eigenvalues --   -0.53162  -0.52815  -0.52609  -0.52281  -0.52035
 Alpha  occ. eigenvalues --   -0.50931  -0.50644  -0.50625  -0.50084  -0.50013
 Alpha  occ. eigenvalues --   -0.49729  -0.49357  -0.49058  -0.48906  -0.48381
 Alpha  occ. eigenvalues --   -0.48218  -0.48091  -0.47977  -0.47697  -0.47488
 Alpha  occ. eigenvalues --   -0.47156  -0.47154  -0.46895  -0.46711  -0.46694
 Alpha  occ. eigenvalues --   -0.46506  -0.46424  -0.46342  -0.46204  -0.46091
 Alpha  occ. eigenvalues --   -0.45838  -0.45808  -0.45131  -0.44997  -0.44713
 Alpha  occ. eigenvalues --   -0.44631  -0.44574  -0.44525  -0.44402  -0.44235
 Alpha  occ. eigenvalues --   -0.44066  -0.44001  -0.43701  -0.43694  -0.43660
 Alpha  occ. eigenvalues --   -0.43516  -0.43148  -0.43025  -0.42937  -0.42796
 Alpha  occ. eigenvalues --   -0.42712  -0.42196  -0.42194  -0.42107  -0.41588
 Alpha  occ. eigenvalues --   -0.41505  -0.41496  -0.41408  -0.41383  -0.41321
 Alpha  occ. eigenvalues --   -0.41246  -0.40987  -0.40824  -0.40669  -0.40633
 Alpha  occ. eigenvalues --   -0.40517  -0.40252  -0.40219  -0.40079  -0.39779
 Alpha  occ. eigenvalues --   -0.39733  -0.39479  -0.39409  -0.39297  -0.39288
 Alpha  occ. eigenvalues --   -0.39191  -0.39028  -0.38691  -0.38440  -0.38402
 Alpha  occ. eigenvalues --   -0.38306  -0.38254  -0.37962  -0.37957  -0.37928
 Alpha  occ. eigenvalues --   -0.37778  -0.37477  -0.37163  -0.37024  -0.36867
 Alpha  occ. eigenvalues --   -0.36785  -0.36762  -0.36667  -0.36559  -0.36410
 Alpha  occ. eigenvalues --   -0.36369  -0.36073  -0.35890  -0.35867  -0.35452
 Alpha  occ. eigenvalues --   -0.35196  -0.35179  -0.34665  -0.34636  -0.33702
 Alpha  occ. eigenvalues --   -0.33329  -0.33249  -0.33161  -0.32954  -0.32937
 Alpha  occ. eigenvalues --   -0.32409  -0.32231  -0.32228  -0.31860  -0.31673
 Alpha  occ. eigenvalues --   -0.31134  -0.30678  -0.30352  -0.29860  -0.29798
 Alpha  occ. eigenvalues --   -0.29541  -0.29030  -0.28441  -0.27428  -0.26703
 Alpha  occ. eigenvalues --   -0.26404  -0.26321  -0.26063  -0.25909  -0.25793
 Alpha  occ. eigenvalues --   -0.25532  -0.25488  -0.25078  -0.21494  -0.20859
 Alpha  occ. eigenvalues --   -0.19200  -0.18700
 Alpha virt. eigenvalues --   -0.11636  -0.11062  -0.05752  -0.05248  -0.04391
 Alpha virt. eigenvalues --   -0.04230  -0.02635  -0.02089  -0.00410  -0.00199
 Alpha virt. eigenvalues --    0.00302   0.00498   0.00516   0.01334   0.01390

 Mulliken charges:
               1
     1  Mg  11.999914
     2  C    5.999958
     3  C    6.000794
     4  C    6.000228
     5  C    5.999370
     6  N    7.000436
     7  C    6.000537
     8  C    5.999835
     9  C    6.000249
    10  C    5.998904
    11  C    6.000019
    12  C    5.999960
    13  C    5.999905
    14  H    1.000342
    15  N    7.000039
    16  C    5.998798
    17  C    5.999348
    18  C    5.999708
    19  C    5.999012
    20  C    6.000169
    21  C    5.999708
    22  O    7.999496
    23  C    6.000083
    24  N    6.999786
    25  C    5.999213
    26  C    6.000284
    27  C    5.999769
    28  C    6.000891
    29  C    6.000103
    30  C    5.999941
    31  C    6.000065
    32  N    7.000092
    33  C    6.000805
    34  C    6.000835
    35  C    6.000087
    36  C    6.000553
    37  C    5.999996
    38  C    6.000514
    39  O    8.000941
    40  C    6.000150
    41  C    6.000006
    42  O    8.000288
    43  O    8.000079
    44  C    5.999872
    45  H    0.999870
    46  H    0.999621
    47  H    1.000127
    48  H    0.999979
    49  H    1.000033
    50  H    0.999717
    51  H    1.000093
    52  H    0.999985
    53  H    1.000297
    54  H    0.999817
    55  H    0.999897
    56  H    1.000117
    57  H    0.999375
    58  H    0.999499
    59  H    0.999425
    60  H    0.999722
    61  H    0.999612
    62  H    0.999777
    63  H    0.999999
    64  H    0.999987
    65  H    0.999995
    66  H    1.000014
    67  H    0.999662
    68  H    0.999882
    69  H    1.000233
    70  H    0.999813
    71  H    1.000056
    72  H    1.000042
    73  H    1.000550
    74  H    1.000521
    75  H    1.000337
    76  H    1.000317
    77  H    1.000185
    78  H    1.000109
    79  H    1.000252
    80  Mg  12.000476
    81  C    6.017148
    82  C    5.989627
    83  C    5.982609
    84  C    6.009083
    85  N    7.006282
    86  C    5.968240
    87  C    6.009361
    88  C    5.989597
    89  C    6.031828
    90  C    5.997000
    91  C    6.003102
    92  C    6.001251
    93  H    0.990730
    94  N    6.996341
    95  C    6.034637
    96  C    6.024240
    97  C    6.013241
    98  C    6.028689
    99  C    5.997887
   100  C    6.011199
   101  O    8.026382
   102  C    5.996779
   103  N    6.994162
   104  C    6.032204
   105  C    5.991145
   106  C    6.011193
   107  C    5.969574
   108  C    5.998074
   109  C    6.003699
   110  C    6.000036
   111  N    6.999704
   112  C    5.965834
   113  C    5.967701
   114  C    6.001050
   115  C    5.970905
   116  C    5.999348
   117  C    5.983554
   118  O    7.970900
   119  C    5.999877
   120  C    5.993723
   121  O    7.997741
   122  O    7.997714
   123  C    6.002310
   124  H    1.009608
   125  H    1.006168
   126  H    0.990687
   127  H    0.999577
   128  H    1.000852
   129  H    1.013091
   130  H    0.999023
   131  H    1.002210
   132  H    0.988547
   133  H    1.006499
   134  H    0.999565
   135  H    1.003882
   136  H    1.015395
   137  H    1.014941
   138  H    1.020642
   139  H    1.006519
   140  H    1.012555
   141  H    1.007420
   142  H    1.000976
   143  H    0.998714
   144  H    0.995144
   145  H    1.010250
   146  H    1.001367
   147  H    1.005634
   148  H    0.990133
   149  H    0.994098
   150  H    1.001649
   151  H    0.995865
   152  H    0.982144
   153  H    0.982294
   154  H    0.988518
   155  H    0.992112
   156  H    0.992996
   157  H    0.996458
   158  H    0.998289
 Sum of Mulliken charges = 624.00000

 Dipole moment (field-independent basis, Debye):
    X=             -9.9006    Y=             -2.3210    Z=             -2.1844  Tot=             10.4010
 Quadrupole moment (field-independent basis, Debye-Ang):
   XX=            481.4190   YY=             -3.8289   ZZ=             -0.8106
   XY=             49.3777   XZ=             64.3726   YZ=             -1.5921

 Normal termination of Gaussian 16 at Thu Oct 14 11:03:38 2021.
