 Gaussian 16, Revision A.03,
 Gaussian 16:  ES64L-G16RevA.03 25-Dec-2016

 --------------------------------------------------------
 #p PBE1PBE/Def2SVP td=(nstates=5) density=(transition=1)
 --------------------------------------------------------

 --------------------------------
 TDDFT excited states in gaussian
 --------------------------------
 Symbolic Z-matrix:
 Charge =  0 Multiplicity = 1

                         Standard orientation:
 ---------------------------------------------------------------------
 Center     Atomic      Atomic             Coordinates (Angstroms)
 Number     Number       Type             X           Y           Z
 ---------------------------------------------------------------------
      1         12           0       -9.798348    0.017333    0.896755
      2          6           0       -9.472528   -2.217805   -1.810008
      3          6           0       -6.753055   -1.055543    1.984085
      4          6           0       -9.763244    2.675277    3.045140
      5          6           0      -12.681145    1.280379   -0.774834
      6          7           0       -8.197856   -1.395703    0.069971
      7          6           0       -8.307111   -2.313055   -0.935504
      8          6           0       -7.003662   -3.101855   -1.149276
      9          6           0       -6.406872   -2.905203    0.329809
     10          6           0       -7.168716   -1.706118    0.837140
     11          6           0       -6.561293   -4.118624    1.285472
     12          6           0       -6.029356   -2.487650   -2.252389
     13          6           0       -5.025145   -3.401469   -2.937664
     14          1           0       -3.506004   -3.286344   -2.689711
     15          7           0       -8.466343    0.773783    2.405774
     16          6           0       -7.347022    0.077717    2.759093
     17          6           0       -6.782252    0.593410    3.926831
     18          6           0       -7.647244    1.687888    4.306416
     19          6           0       -8.680739    1.802213    3.238817
     20          6           0       -5.537003    0.046036    4.613958
     21          6           0       -7.421174    2.507034    5.557001
     22          8           0       -6.452724    2.233096    6.311835
     23          6           0       -8.397303    3.633238    6.048489
     24          7           0      -11.051156    1.670950    1.056724
     25          6           0      -10.843374    2.638858    2.076427
     26          6           0      -12.061615    3.509240    2.212895
     27          6           0      -12.807892    3.337133    0.872107
     28          6           0      -12.226531    1.984778    0.366137
     29          6           0      -13.081302    3.234062    3.341125
     30          6           0      -12.462366    4.517300   -0.180463
     31          6           0      -13.240433    5.821441   -0.090622
     32          7           0      -10.953476   -0.524954   -0.837074
     33          6           0      -12.086936    0.066972   -1.373835
     34          6           0      -12.463702   -0.533365   -2.560432
     35          6           0      -11.476872   -1.511429   -2.772019
     36          6           0      -10.568938   -1.443376   -1.701833
     37          6           0      -13.663662   -0.161658   -3.373095
     38          6           0      -11.119780   -2.563195   -3.568698
     39          8           0      -11.711547   -3.080505   -4.495520
     40          6           0       -9.678972   -2.888372   -3.121759
     41          6           0       -8.808435   -2.391792   -4.237265
     42          8           0       -8.794190   -1.264010   -4.621944
     43          8           0       -8.090196   -3.450252   -4.796405
     44          6           0       -7.378430   -3.061960   -5.964134
     45          1           0       -5.891370   -1.506654    2.481009
     46          1           0       -9.913617    3.421497    3.828663
     47          1           0      -13.645564    1.628703   -1.149764
     48          1           0       -7.176256   -4.172902   -1.249542
     49          1           0       -5.335119   -2.750290    0.208655
     50          1           0       -5.582749   -4.594945    1.218681
     51          1           0       -7.312527   -4.827065    0.936593
     52          1           0       -6.733435   -3.800471    2.313827
     53          1           0       -5.401953   -1.711272   -1.814447
     54          1           0       -6.666159   -1.967861   -2.968542
     55          1           0       -5.217201   -3.248713   -4.000672
     56          1           0       -5.319664   -4.426540   -2.713315
     57          1           0       -5.475442    0.048229    5.702734
     58          1           0       -4.800366    0.670702    4.109264
     59          1           0       -5.440566   -1.020769    4.412038
     60          1           0       -9.371357    3.197345    6.268909
     61          1           0       -8.393114    4.324367    5.205851
     62          1           0       -8.040087    4.254552    6.869640
     63          1           0      -11.698378    4.535093    2.265184
     64          1           0      -13.889181    3.292967    1.002865
     65          1           0      -14.057895    2.883385    3.007832
     66          1           0      -12.981123    3.956558    4.151370
     67          1           0      -12.686581    2.345033    3.832725
     68          1           0      -12.669934    3.996504   -1.115012
     69          1           0      -11.404527    4.777271   -0.137467
     70          1           0      -12.538119    6.653001   -0.039298
     71          1           0      -13.854305    5.811728    0.810454
     72          1           0      -13.843327    5.986910   -0.983881
     73          1           0      -13.306290   -0.044694   -4.395770
     74          1           0      -14.079802    0.806164   -3.090644
     75          1           0      -14.435372   -0.931609   -3.367021
     76          1           0       -9.593283   -3.970146   -3.025129
     77          1           0       -7.991573   -3.249798   -6.845115
     78          1           0       -6.515169   -3.693628   -6.177032
     79          1           0       -7.098256   -2.010064   -5.949785
     80         12           0        9.668719    0.817546   -0.203403
     81          6           0        8.625648   -2.246842    1.227703
     82          6           0        6.466669    1.371683   -1.113937
     83          6           0       10.713501    3.572963   -1.629734
     84          6           0       13.042590   -0.332313    0.199912
     85          7           0        7.722243   -0.364290   -0.067794
     86          6           0        7.554365   -1.443749    0.783299
     87          6           0        6.085964   -1.634334    0.954437
     88          6           0        5.455010   -0.865279   -0.206713
     89          6           0        6.583717    0.153232   -0.504632
     90          6           0        5.218882   -1.809404   -1.444686
     91          6           0        5.452624   -1.188635    2.380207
     92          6           0        4.387780   -2.082547    3.086523
     93          1           0        3.186884   -2.559349    2.219362
     94          7           0        8.673210    2.269000   -1.251876
     95          6           0        7.395040    2.310075   -1.487824
     96          6           0        7.112929    3.510688   -2.293574
     97          6           0        8.296465    4.309424   -2.290962
     98          6           0        9.315807    3.378588   -1.728703
     99          6           0        5.772848    3.925295   -3.003286
    100          6           0        8.556438    5.743861   -2.749951
    101          8           0        9.683703    6.272515   -2.794176
    102          6           0        7.463711    6.480315   -3.366426
    103          7           0       11.675232    1.426923   -0.801900
    104          6           0       11.829843    2.719549   -1.295854
    105          6           0       13.364622    3.083804   -1.300425
    106          6           0       14.019037    1.874816   -0.586518
    107          6           0       12.840901    0.931061   -0.335078
    108          6           0       13.888691    3.446260   -2.690227
    109          6           0       14.893829    2.201912    0.649835
    110          6           0       16.201311    1.398196    0.840323
    111          7           0       10.678654   -0.909419    0.528684
    112          6           0       12.024283   -1.258527    0.584383
    113          6           0       12.148477   -2.486950    1.327023
    114          6           0       10.844067   -2.932951    1.545066
    115          6           0        9.948591   -1.941320    1.057814
    116          6           0       13.335514   -3.098245    1.760075
    117          6           0       10.012989   -3.976168    2.163939
    118          8           0       10.283091   -4.988289    2.790867
    119          6           0        8.520006   -3.542477    1.995732
    120          6           0        7.801902   -4.668631    1.273689
    121          8           0        7.684199   -4.967446    0.106872
    122          8           0        7.158473   -5.292635    2.303144
    123          6           0        6.074911   -6.245353    1.962987
    124          1           0        5.423663    1.606935   -1.337579
    125          1           0       10.994333    4.585664   -1.926205
    126          1           0       14.050062   -0.591806    0.530361
    127          1           0        5.725888   -2.661213    0.886722
    128          1           0        4.602335   -0.261195    0.102373
    129          1           0        4.345954   -1.545974   -2.040977
    130          1           0        4.981014   -2.835687   -1.163856
    131          1           0        6.102702   -1.677877   -2.067978
    132          1           0        5.108731   -0.156964    2.313813
    133          1           0        6.251899   -1.076912    3.113800
    134          1           0        3.959565   -1.393393    3.815301
    135          1           0        5.006220   -2.890068    3.478443
    136          1           0        5.265387    4.789304   -2.574848
    137          1           0        5.110208    3.060679   -2.955989
    138          1           0        5.879770    4.274374   -4.030361
    139          1           0        6.589677    6.498733   -2.714872
    140          1           0        7.193599    6.040848   -4.326722
    141          1           0        7.765838    7.526830   -3.392339
    142          1           0       13.476711    3.909299   -0.597345
    143          1           0       14.587207    1.273162   -1.295688
    144          1           0       14.235081    2.539680   -3.187532
    145          1           0       14.766703    4.091380   -2.689809
    146          1           0       13.047601    3.726755   -3.323397
    147          1           0       14.348055    2.199486    1.593226
    148          1           0       15.197522    3.249603    0.645233
    149          1           0       15.930731    0.618542    1.552531
    150          1           0       16.880045    2.090299    1.339770
    151          1           0       16.540098    0.998830   -0.115229
    152          1           0       13.351034   -4.165551    1.979641
    153          1           0       13.688942   -2.521387    2.615304
    154          1           0       14.032230   -2.989895    0.929629
    155          1           0        8.074650   -3.351905    2.972002
    156          1           0        5.276977   -6.015020    2.668341
    157          1           0        6.311204   -7.303412    2.073141
    158          1           0        5.713510   -6.052455    0.953239
 ---------------------------------------------------------------------

 SCF Done:  E(RPBE1PBE) =  -4067.34881404     A.U. after   16 cycles

 Excitation energies and oscillator strengths:

 Excited State   1:      Singlet-A      1.5837 eV  782.88 nm  f=0.0000  <S**2>=0.000
     312 -> 313        0.70707
 This state for optimization and/or second-order correction.
 Total Energy, E(TD-HF/TD-DFT) =  -4067.29061409
 Copying the excited state density for this state as the 1-particle RhoCI density.

 Excited State   2:      Singlet-A      1.8618 eV  665.92 nm  f=0.3841  <S**2>=0.000
     309 -> 315       -0.18175
     311 -> 313        0.68866
     311 <- 313       -0.10550

 Excited State   3:      Singlet-A      1.8850 eV  657.75 nm  f=0.3737  <S**2>=0.000
     310 -> 316        0.17673
     312 -> 314        0.68856

 Excited State   4:      Singlet-A      2.1539 eV  575.64 nm  f=0.1211  <S**2>=0.000
     309 -> 313        0.65686
     311 -> 315        0.24310

 Excited State   5:      Singlet-A      2.2056 eV  562.14 nm  f=0.0000  <S**2>=0.000
     310 -> 313        0.70708

 The electronic state is 1-A.
 Alpha  occ. eigenvalues --  -46.93827 -46.92746 -19.26136 -19.25089 -19.21207
 Alpha  occ. eigenvalues --  -19.20280 -19.19406 -19.18930 -19.18479 -19.18302
 Alpha  occ. eigenvalues --  -14.42639 -14.42468 -14.41308 -14.40928 -14.39579
 Alpha  occ. eigenvalues --  -14.39431 -14.38964 -14.38670 -10.36804 -10.36270
 Alpha  occ. eigenvalues --  -10.32556 -10.32370 -10.32003 -10.30581 -10.30238
 Alpha  occ. eigenvalues --  -10.30236 -10.29581 -10.29450 -10.28734 -10.28671
 Alpha  occ. eigenvalues --  -10.28577 -10.28497 -10.28392 -10.28317 -10.28112
 Alpha  occ. eigenvalues --  -10.28057 -10.27818 -10.27713 -10.27556 -10.27400
 Alpha  occ. eigenvalues --  -10.27349 -10.27195 -10.27072 -10.26750 -10.26335
 Alpha  occ. eigenvalues --  -10.26100 -10.25987 -10.25971 -10.25940 -10.25828
 Alpha  occ. eigenvalues --  -10.25782 -10.25738 -10.25697 -10.25638 -10.25589
 Alpha  occ. eigenvalues --  -10.25566 -10.25396 -10.25380 -10.25357 -10.25356
 Alpha  occ. eigenvalues --  -10.25353 -10.25262 -10.25165 -10.25137 -10.25087
 Alpha  occ. eigenvalues --  -10.25042 -10.25006 -10.24876 -10.24372 -10.24291
 Alpha  occ. eigenvalues --  -10.24218 -10.24197 -10.24101 -10.24026 -10.23797
 Alpha  occ. eigenvalues --  -10.23781 -10.23664 -10.23448 -10.23265 -10.23254
 Alpha  occ. eigenvalues --  -10.23222 -10.23213 -10.23087 -10.22704 -10.22583
 Alpha  occ. eigenvalues --  -10.22002  -3.15706  -3.14717  -1.88544  -1.88072
 Alpha  occ. eigenvalues --   -1.87924  -1.87554  -1.87092  -1.86931  -1.12483
 Alpha  occ. eigenvalues --   -1.10919  -1.04947  -1.04413  -1.04362  -1.03994
 Alpha  occ. eigenvalues --   -1.02631  -1.02200  -1.00469  -0.99788  -0.99476
 Alpha  occ. eigenvalues --   -0.98734  -0.98564  -0.97693  -0.96755  -0.96652
 Alpha  occ. eigenvalues --   -0.88847  -0.87158  -0.83365  -0.83182  -0.83144
 Alpha  occ. eigenvalues --   -0.83127  -0.82781  -0.82307  -0.82057  -0.81906
 Alpha  occ. eigenvalues --   -0.81554  -0.81338  -0.81168  -0.80356  -0.78788
 Alpha  occ. eigenvalues --   -0.78522  -0.78038  -0.77893  -0.77308  -0.76988
 Alpha  occ. eigenvalues --   -0.76573  -0.76283  -0.75855  -0.75141  -0.74984
 Alpha  occ. eigenvalues --   -0.74717  -0.72654  -0.72524  -0.71825  -0.71752
 Alpha  occ. eigenvalues --   -0.71363  -0.71359  -0.70396  -0.70187  -0.70183
 Alpha  occ. eigenvalues --   -0.69477  -0.68198  -0.66994  -0.66823  -0.66279
 Alpha  occ. eigenvalues --   -0.64045  -0.63228  -0.63117  -0.63034  -0.62938
 Alpha  occ. eigenvalues --   -0.62196  -0.61778  -0.61730  -0.60822  -0.59980
 Alpha  occ. eigenvalues --   -0.59929  -0.59842  -0.59449  -0.59412  -0.58910
 Alpha  occ. eigenvalues --   -0.58900  -0.57478  -0.56552  -0.55158  -0.54987
 Alpha  occ. eigenvalues --   -0.54853  -0.54271  -0.54144  -0.53909  -0.53833
 Alpha  occ. eigenvalues --   -0.53678  -0.52951  -0.52841  -0.52408  -0.52085
 Alpha  occ. eigenvalues --   -0.51258  -0.50749  -0.50443  -0.50314  -0.49982
 Alpha  occ. eigenvalues --   -0.49794  -0.49744  -0.49039  -0.48576  -0.48289
 Alpha  occ. eigenvalues --   -0.48286  -0.48134  -0.47933  -0.47818  -0.47636
 Alpha  occ. eigenvalues --   -0.47462  -0.47390  -0.47350  -0.47011  -0.46827
 Alpha  occ. eigenvalues --   -0.46680  -0.46550  -0.46257  -0.46193  -0.46139
 Alpha  occ. eigenvalues --   -0.45918  -0.45890  -0.45609  -0.45390  -0.45290
 Alpha  occ. eigenvalues --   -0.44973  -0.44836  -0.44617  -0.44607  -0.44457
 Alpha  occ. eigenvalues --   -0.44145  -0.44114  -0.43944  -0.43767  -0.43672
 Alpha  occ. eigenvalues --   -0.43566  -0.43447  -0.43230  -0.42875  -0.42784
 Alpha  occ. eigenvalues --   -0.42355  -0.42153  -0.42102  -0.42026  -0.41826
 Alpha  occ. eigenvalues --   -0.41804  -0.41455  -0.41413  -0.41367  -0.41262
 Alpha  occ. eigenvalues --   -0.41207  -0.41010  -0.40922  -0.40679  -0.40650
 Alpha  occ. eigenvalues --   -0.40326  -0.40203  -0.39967  -0.39777  -0.39664
 Alpha  occ. eigenvalues --   -0.39622  -0.39531  -0.39493  -0.39186  -0.38805
 Alpha  occ. eigenvalues --   -0.38784  -0.38759  -0.38644  -0.38372  -0.38281
 Alpha  occ. eigenvalues --   -0.38139  -0.37904  -0.37833  -0.37789  -0.37550
 Alpha  occ. eigenvalues --   -0.37545  -0.37417  -0.37223  -0.37192  -0.37011
 Alpha  occ. eigenvalues --   -0.36677  -0.36539  -0.36404  -0.36345  -0.36181
 Alpha  occ. eigenvalues --   -0.36147  -0.35978  -0.35764  -0.35501  -0.35439
 Alpha  occ. eigenvalues --   -0.35333  -0.35101  -0.34742  -0.34604  -0.34511
 Alpha  occ. eigenvalues --   -0.33703  -0.33616  -0.32951  -0.32764  -0.32682
 Alpha  occ. eigenvalues --   -0.32402  -0.32214  -0.32054  -0.31728  -0.31637
 Alpha  occ. eigenvalues --   -0.31420  -0.30959  -0.30513  -0.30383  -0.29608
 Alpha  occ. eigenvalues --   -0.29143  -0.29134  -0.28607  -0.27214  -0.26895
 Alpha  occ. eigenvalues --   -0.26482  -0.25911  -0.25822  -0.25464  -0.25368
 Alpha  occ. eigenvalues --   -0.25365  -0.24954  -0.24762  -0.21438  -0.20915
 Alpha  occ. eigenvalues --   -0.19760  -0.18630
 Alpha virt. eigenvalues --   -0.12121  -0.10817  -0.06113  -0.05562  -0.04405
 Alpha virt. eigenvalues --   -0.04264  -0.02155  -0.01988  -0.01515  -0.00883
 Alpha virt. eigenvalues --   -0.00039   0.00626   0.01083   0.01084   0.01246

 Mulliken charges:
               1
     1  Mg  12.000000
     2  C    6.000000
     3  C    6.000000
     4  C    6.000000
     5  C    6.000000
     6  N    7.000000
     7  C    6.000000
     8  C    6.000000
     9  C    6.000000
    10  C    6.000000
    11  C    6.000000
    12  C    6.000000
    13  C    6.000000
    14  H    1.000000
    15  N    7.000000
    16  C    6.000000
    17  C    6.000000
    18  C    6.000000
    19  C    6.000000
    20  C    6.000000
    21  C    6.000000
    22  O    8.000000
    23  C    6.000000
    24  N    7.000000
    25  C    6.000000
    26  C    6.000000
    27  C    6.000000
    28  C    6.000000
    29  C    6.000000
    30  C    6.000000
    31  C    6.000000
    32  N    7.000000
    33  C    6.000000
    34  C    6.000000
    35  C    6.000000
    36  C    6.000000
    37  C    6.000000
    38  C    6.000000
    39  O    8.000000
    40  C    6.000000
    41  C    6.000000
    42  O    8.000000
    43  O    8.000000
    44  C    6.000000
    45  H    1.000000
    46  H    1.000000
    47  H    1.000000
    48  H    1.000000
    49  H    1.000000
    50  H    1.000000
    51  H    1.000000
    52  H    1.000000
    53  H    1.000000
    54  H    1.000000
    55  H    1.000000
    56  H    1.000000
    57  H    1.000000
    58  H    1.000000
    59  H    1.000000
    60  H    1.000000
    61  H    1.000000
    62  H    1.000000
    63  H    1.000000
    64  H    1.000000
    65  H    1.000000
    66  H    1.000000
    67  H    1.000000
    68  H    1.000000
    69  H    1.000000
    70  H    1.000000
    71  H    1.000000
    72  H    1.000000
    73  H    1.000000
    74  H    1.000000
    75  H    1.000000
    76  H    1.000000
    77  H    1.000000
    78  H    1.000000
    79  H    1.000000
    80  Mg  12.000000
    81  C    6.000000
    82  C    6.000000
    83  C    6.000000
    84  C    6.000000
    85  N    7.000000
    86  C    6.000000
    87  C    6.000000
    88  C    6.000000
    89  C    6.000000
    90  C    6.000000
    91  C    6.000000
    92  C    6.000000
    93  H    1.000000
    94  N    7.000000
    95  C    6.000000
    96  C    6.000000
    97  C    6.000000
    98  C    6.000000
    99  C    6.000000
   100  C    6.000000
   101  O    8.000000
   102  C    6.000000
   103  N    7.000000
   104  C    6.000000
   105  C    6.000000
   106  C    6.000000
   107  C    6.000000
   108  C    6.000000
   109  C    6.000000
   110  C    6.000000
   111  N    7.000000
   112  C    6.000000
   113  C    6.000000
   114  C    6.000000
   115  C    6.000000
   116  C    6.000000
   117  C    6.000000
   118  O    8.000000
   119  C    6.000000
   120  C    6.000000
   121  O    8.000000
   122  O    8.000000
   123  C    6.000000
   124  H    1.000000
   125  H    1.000000
   126  H    1.000000
   127  H    1.000000
   128  H    1.000000
   129  H    1.000000
   130  H    1.000000
   131  H    1.000000
   132  H    1.000000
   133  H    1.000000
   134  H    1.000000
   135  H    1.000000
   136  H    1.000000
   137  H    1.000000
   138  H    1.000000
   139  H    1.000000
   140  H    1.000000
   141  H    1.000000
   142  H    1.000000
   143  H    1.000000
   144  H    1.000000
   145  H    1.000000
   146  H    1.000000
   147  H    1.000000
   148  H    1.000000
   149  H    1.000000
   150  H    1.000000
   151  H    1.000000
   152  H    1.000000
   153  H    1.000000
   154  H    1.000000
   155  H    1.000000
   156  H    1.000000
   157  H    1.000000
   158  H    1.000000
 Sum of Mulliken charges = 624.00000

 Dipole moment (field-independent basis, Debye):
    X=             -0.0000    Y=              0.0000    Z=              0.0000  Tot=              0.0000
 Quadrupole moment (field-independent basis, Debye-Ang):
   XX=             -0.0000   YY=              0.0000   ZZ=              0.0000
   XY=              0.0000   XZ=             -0.0000   YZ=             -0.0000

 Normal termination of Gaussian 16 at Thu Oct 14 17:37:01 2021.
