 Gaussian 16, Revision A.03,
 Gaussian 16:  ES64L-G16RevA.03 25-Dec-2016

 --------------------------------------------------------
 #p PBE1PBE/Def2SVP td=(nstates=5) density=(transition=1)
 --------------------------------------------------------

 --------------------------------
 TDDFT excited states in gaussian
 --------------------------------
 Symbolic Z-matrix:
 Charge =  0 Multiplicity = 1

                         Standard orientation:
 ---------------------------------------------------------------------
 Center     Atomic      Atomic             Coordinates (Angstroms)
 Number     Number       Type             X           Y           Z
 ---------------------------------------------------------------------
      1         12           0      -26.915787    0.627811    0.318720
      2          6           0      -24.708266   -1.780069    1.554825
      3          6           0      -28.409974   -1.949872   -1.529897
      4          6           0      -28.734612    2.872190   -1.370546
      5          6           0      -24.729316    3.075192    1.354562
      6          7           0      -26.672758   -1.692554    0.103623
      7          6           0      -25.641289   -2.352092    0.694816
      8          6           0      -25.663498   -3.882197    0.300998
      9          6           0      -26.728237   -3.855941   -0.908448
     10          6           0      -27.286556   -2.425080   -0.830104
     11          6           0      -25.917421   -3.984868   -2.246714
     12          6           0      -26.230267   -4.675434    1.535337
     13          6           0      -26.477222   -6.197971    1.354483
     14          1           0      -27.654999   -7.020032    1.786237
     15          7           0      -28.477452    0.442054   -1.060450
     16          6           0      -29.003634   -0.694603   -1.696715
     17          6           0      -30.021131   -0.269145   -2.563090
     18          6           0      -30.258232    1.088411   -2.393774
     19          6           0      -29.141546    1.525499   -1.572227
     20          6           0      -30.806162   -1.269076   -3.347221
     21          6           0      -31.319429    2.032676   -3.049067
     22          8           0      -31.439708    3.228397   -2.804680
     23          6           0      -32.463007    1.494184   -3.913124
     24          7           0      -26.664885    2.654378   -0.045979
     25          6           0      -27.638244    3.369524   -0.652921
     26          6           0      -27.461336    4.894465   -0.516436
     27          6           0      -26.103141    4.959960    0.235749
     28          6           0      -25.846652    3.522565    0.651570
     29          6           0      -27.622512    5.690225   -1.854123
     30          6           0      -25.985810    5.977157    1.403796
     31          6           0      -26.661029    5.616338    2.658497
     32          7           0      -25.138494    0.704871    1.341593
     33          6           0      -24.383469    1.721730    1.687320
     34          6           0      -23.250634    1.305809    2.520583
     35          6           0      -23.383994   -0.118790    2.475624
     36          6           0      -24.502612   -0.434903    1.729697
     37          6           0      -22.484679    2.083486    3.485781
     38          6           0      -22.778178   -1.343168    2.969084
     39          8           0      -21.864448   -1.515320    3.743630
     40          6           0      -23.599619   -2.456941    2.308502
     41          6           0      -22.718029   -3.399803    1.482835
     42          8           0      -22.298822   -3.148123    0.383077
     43          8           0      -22.431417   -4.520482    2.225112
     44          6           0      -21.586481   -5.488104    1.487975
     45          1           0      -28.947079   -2.776800   -1.997286
     46          1           0      -29.428893    3.635583   -1.728566
     47          1           0      -24.297465    4.024003    1.677636
     48          1           0      -24.701362   -4.231374   -0.074661
     49          1           0      -27.495438   -4.629415   -0.855561
     50          1           0      -25.812964   -3.078522   -2.842281
     51          1           0      -26.472020   -4.549912   -2.996280
     52          1           0      -24.917193   -4.398570   -2.119889
     53          1           0      -27.151702   -4.180159    1.840344
     54          1           0      -25.547556   -4.496110    2.366349
     55          1           0      -25.559011   -6.653717    1.726162
     56          1           0      -26.525973   -6.259161    0.267996
     57          1           0      -30.486993   -2.306556   -3.244343
     58          1           0      -30.888048   -0.899695   -4.370368
     59          1           0      -31.798467   -1.222494   -2.897757
     60          1           0      -32.134705    1.069851   -4.862007
     61          1           0      -33.286567    2.192198   -4.064392
     62          1           0      -32.949768    0.717937   -3.322399
     63          1           0      -28.318219    5.073607    0.132396
     64          1           0      -25.380794    5.191258   -0.547080
     65          1           0      -28.305743    5.179694   -2.532031
     66          1           0      -26.651531    5.767966   -2.343962
     67          1           0      -28.043916    6.684673   -1.705726
     68          1           0      -26.450966    6.859117    0.964605
     69          1           0      -24.938893    6.238498    1.559170
     70          1           0      -26.015997    4.958942    3.241260
     71          1           0      -27.641128    5.180512    2.465665
     72          1           0      -26.801007    6.480710    3.308306
     73          1           0      -23.150510    2.896773    3.775424
     74          1           0      -21.589171    2.616159    3.165353
     75          1           0      -22.232573    1.403635    4.298941
     76          1           0      -24.098903   -3.013796    3.102111
     77          1           0      -20.918382   -5.971773    2.200333
     78          1           0      -20.850235   -5.061259    0.806583
     79          1           0      -22.193719   -6.272103    1.036697
     80         12           0       26.681308    0.645576   -0.100917
     81          6           0       25.263483   -2.266289   -1.491251
     82          6           0       27.468935   -1.267885    2.667283
     83          6           0       27.984026    3.409395    1.421850
     84          6           0       25.556920    2.453124   -2.696643
     85          7           0       26.424038   -1.557391    0.507035
     86          6           0       25.940832   -2.606455   -0.265739
     87          6           0       26.252630   -3.935642    0.392143
     88          6           0       26.624133   -3.538721    1.867130
     89          6           0       26.863759   -2.060122    1.659621
     90          6           0       25.555177   -3.912406    2.967560
     91          6           0       27.431380   -4.672721   -0.260868
     92          6           0       27.299707   -6.198187   -0.323987
     93          1           0       27.378855   -7.004441    1.002196
     94          7           0       27.674074    1.010706    1.729584
     95          6           0       27.829379    0.074669    2.694058
     96          6           0       28.404643    0.696373    3.842297
     97          6           0       28.728812    2.058493    3.515830
     98          6           0       28.085672    2.214041    2.223061
     99          6           0       28.649102   -0.055529    5.121152
    100          6           0       29.405149    3.167727    4.321675
    101          8           0       29.747818    4.248714    3.793854
    102          6           0       29.634689    3.066767    5.825399
    103          7           0       26.835519    2.602774   -0.609452
    104          6           0       27.352054    3.614689    0.194179
    105          6           0       27.157326    4.927789   -0.491878
    106          6           0       26.438513    4.695072   -1.869344
    107          6           0       26.287458    3.167724   -1.782287
    108          6           0       26.541082    6.045035    0.402836
    109          6           0       27.233928    5.132208   -3.118495
    110          6           0       26.853336    6.535053   -3.629993
    111          7           0       25.610067    0.263055   -1.718653
    112          6           0       25.241757    1.077050   -2.788923
    113          6           0       24.536355    0.313837   -3.884230
    114          6           0       24.525412   -0.981429   -3.341730
    115          6           0       25.216201   -0.981635   -2.087437
    116          6           0       24.007304    0.875520   -5.191291
    117          6           0       24.074502   -2.331543   -3.643793
    118          8           0       23.438652   -2.776040   -4.600436
    119          6           0       24.665973   -3.229380   -2.475694
    120          6           0       23.467930   -4.038883   -1.941667
    121          8           0       22.337111   -3.630102   -1.776357
    122          8           0       23.848612   -5.375109   -1.833902
    123          6           0       22.774981   -6.236607   -1.338340
    124          1           0       27.773592   -1.917379    3.490336
    125          1           0       28.374447    4.352242    1.809939
    126          1           0       25.122357    3.128141   -3.436419
    127          1           0       25.411976   -4.627460    0.438890
    128          1           0       27.528547   -4.010556    2.251290
    129          1           0       24.709625   -4.506288    2.619313
    130          1           0       25.059502   -3.081062    3.468262
    131          1           0       26.000891   -4.538801    3.740281
    132          1           0       28.369281   -4.448679    0.246792
    133          1           0       27.539406   -4.378036   -1.304895
    134          1           0       27.999957   -6.637852   -1.034095
    135          1           0       26.353493   -6.494466   -0.776279
    136          1           0       27.685987   -0.541113    5.279079
    137          1           0       28.847789    0.525524    6.021593
    138          1           0       29.413460   -0.829698    5.057919
    139          1           0       28.719774    2.770715    6.338875
    140          1           0       29.951728    4.079913    6.072200
    141          1           0       30.387813    2.313988    6.058236
    142          1           0       28.148704    5.367577   -0.604927
    143          1           0       25.429720    5.103730   -1.940750
    144          1           0       26.308890    5.602277    1.371663
    145          1           0       25.611757    6.386281   -0.052457
    146          1           0       27.333885    6.790384    0.474519
    147          1           0       27.152758    4.328859   -3.850378
    148          1           0       28.287978    5.271967   -2.877612
    149          1           0       26.425673    7.120783   -2.816046
    150          1           0       26.073288    6.582996   -4.390041
    151          1           0       27.769394    7.037364   -3.942250
    152          1           0       24.870841    1.093125   -5.820069
    153          1           0       23.444959    1.805630   -5.111459
    154          1           0       23.399764    0.082250   -5.626570
    155          1           0       25.457143   -3.920487   -2.765807
    156          1           0       22.736012   -6.341387   -0.253669
    157          1           0       22.961988   -7.190453   -1.831406
    158          1           0       21.739322   -5.971560   -1.551028
 ---------------------------------------------------------------------

 SCF Done:  E(RPBE1PBE) =  -4067.42224780     A.U. after   16 cycles

 Excitation energies and oscillator strengths:

 Excited State   1:      Singlet-A      1.8492 eV  670.48 nm  f=0.3665  <S**2>=0.000
     309 -> 315       -0.18100
     311 -> 313        0.69139
     311 <- 313       -0.10447
 This state for optimization and/or second-order correction.
 Total Energy, E(TD-HF/TD-DFT) =  -4067.35429133
 Copying the excited state density for this state as the 1-particle RhoCI density.

 Excited State   2:      Singlet-A      1.8847 eV  657.86 nm  f=0.3790  <S**2>=0.000
     310 -> 316        0.17974
     312 -> 314        0.69127
     312 <- 314       -0.10354

 Excited State   3:      Singlet-A      1.9998 eV  619.98 nm  f=0.0000  <S**2>=0.000
     312 -> 313        0.70711

 Excited State   4:      Singlet-A      2.0555 eV  603.18 nm  f=0.0000  <S**2>=0.000
     311 -> 314        0.70711

 Excited State   5:      Singlet-A      2.2265 eV  556.85 nm  f=0.0976  <S**2>=0.000
     309 -> 313        0.64902
     311 -> 315        0.27345

 The electronic state is 1-A.
 Alpha  occ. eigenvalues --  -46.92119 -46.91066 -19.26451 -19.26399 -19.20628
 Alpha  occ. eigenvalues --  -19.20608 -19.19517 -19.19360 -19.19327 -19.19109
 Alpha  occ. eigenvalues --  -14.42025 -14.41558 -14.40958 -14.40743 -14.39588
 Alpha  occ. eigenvalues --  -14.39060 -14.38836 -14.38771 -10.36797 -10.36699
 Alpha  occ. eigenvalues --  -10.33197 -10.32889 -10.32269 -10.31701 -10.29292
 Alpha  occ. eigenvalues --  -10.29055 -10.28700 -10.28676 -10.28488 -10.28452
 Alpha  occ. eigenvalues --  -10.28361 -10.28223 -10.28218 -10.28187 -10.28154
 Alpha  occ. eigenvalues --  -10.27832 -10.27807 -10.27493 -10.27143 -10.27071
 Alpha  occ. eigenvalues --  -10.27066 -10.26619 -10.26594 -10.26453 -10.26447
 Alpha  occ. eigenvalues --  -10.26412 -10.26390 -10.26194 -10.26171 -10.26147
 Alpha  occ. eigenvalues --  -10.26128 -10.25753 -10.25727 -10.25614 -10.25595
 Alpha  occ. eigenvalues --  -10.25475 -10.25387 -10.25256 -10.25108 -10.25083
 Alpha  occ. eigenvalues --  -10.25032 -10.24972 -10.24964 -10.24659 -10.24555
 Alpha  occ. eigenvalues --  -10.24496 -10.24307 -10.24269 -10.24039 -10.24016
 Alpha  occ. eigenvalues --  -10.23929 -10.23847 -10.23844 -10.23776 -10.23733
 Alpha  occ. eigenvalues --  -10.23601 -10.23520 -10.23499 -10.23494 -10.23275
 Alpha  occ. eigenvalues --  -10.23161 -10.23075 -10.23026 -10.22879 -10.22583
 Alpha  occ. eigenvalues --  -10.22148  -3.14259  -3.13422  -1.87086  -1.86648
 Alpha  occ. eigenvalues --   -1.86469  -1.86263  -1.85774  -1.85691  -1.11594
 Alpha  occ. eigenvalues --   -1.11041  -1.05109  -1.05006  -1.03996  -1.03606
 Alpha  occ. eigenvalues --   -1.03535  -1.02989  -0.99771  -0.99250  -0.98349
 Alpha  occ. eigenvalues --   -0.98234  -0.97978  -0.97804  -0.97015  -0.96091
 Alpha  occ. eigenvalues --   -0.88250  -0.86930  -0.83733  -0.83671  -0.83311
 Alpha  occ. eigenvalues --   -0.82792  -0.82579  -0.82435  -0.81815  -0.81724
 Alpha  occ. eigenvalues --   -0.81546  -0.81213  -0.80630  -0.80492  -0.78635
 Alpha  occ. eigenvalues --   -0.78300  -0.77990  -0.77887  -0.76674  -0.76572
 Alpha  occ. eigenvalues --   -0.75837  -0.75715  -0.75249  -0.75157  -0.74689
 Alpha  occ. eigenvalues --   -0.74383  -0.72734  -0.72692  -0.71923  -0.71785
 Alpha  occ. eigenvalues --   -0.71559  -0.70941  -0.70457  -0.70455  -0.69403
 Alpha  occ. eigenvalues --   -0.69168  -0.67152  -0.66985  -0.66203  -0.66069
 Alpha  occ. eigenvalues --   -0.64388  -0.63703  -0.63618  -0.63255  -0.62789
 Alpha  occ. eigenvalues --   -0.62637  -0.61666  -0.61351  -0.60172  -0.59919
 Alpha  occ. eigenvalues --   -0.59839  -0.59210  -0.59000  -0.58950  -0.58766
 Alpha  occ. eigenvalues --   -0.58589  -0.57142  -0.57102  -0.54890  -0.54619
 Alpha  occ. eigenvalues --   -0.54536  -0.54036  -0.53917  -0.53506  -0.53155
 Alpha  occ. eigenvalues --   -0.53048  -0.52890  -0.52274  -0.52028  -0.51932
 Alpha  occ. eigenvalues --   -0.51059  -0.50617  -0.50188  -0.50131  -0.50006
 Alpha  occ. eigenvalues --   -0.49784  -0.49722  -0.49212  -0.49051  -0.48550
 Alpha  occ. eigenvalues --   -0.48374  -0.48083  -0.47808  -0.47690  -0.47569
 Alpha  occ. eigenvalues --   -0.47481  -0.47295  -0.47147  -0.46827  -0.46732
 Alpha  occ. eigenvalues --   -0.46687  -0.46417  -0.46197  -0.45801  -0.45710
 Alpha  occ. eigenvalues --   -0.45610  -0.45369  -0.45124  -0.44716  -0.44624
 Alpha  occ. eigenvalues --   -0.44567  -0.44532  -0.44394  -0.44167  -0.44043
 Alpha  occ. eigenvalues --   -0.43994  -0.43813  -0.43687  -0.43529  -0.43509
 Alpha  occ. eigenvalues --   -0.43442  -0.43141  -0.42946  -0.42788  -0.42705
 Alpha  occ. eigenvalues --   -0.42538  -0.42187  -0.42162  -0.42099  -0.41778
 Alpha  occ. eigenvalues --   -0.41489  -0.41375  -0.41332  -0.41238  -0.40980
 Alpha  occ. eigenvalues --   -0.40833  -0.40728  -0.40626  -0.40563  -0.40245
 Alpha  occ. eigenvalues --   -0.40107  -0.39839  -0.39738  -0.39726  -0.39452
 Alpha  occ. eigenvalues --   -0.39402  -0.39290  -0.39189  -0.39183  -0.39053
 Alpha  occ. eigenvalues --   -0.39020  -0.38843  -0.38644  -0.38438  -0.38394
 Alpha  occ. eigenvalues --   -0.38298  -0.38174  -0.37969  -0.37955  -0.37921
 Alpha  occ. eigenvalues --   -0.37724  -0.37470  -0.37381  -0.37256  -0.37156
 Alpha  occ. eigenvalues --   -0.37154  -0.36782  -0.36754  -0.36636  -0.36552
 Alpha  occ. eigenvalues --   -0.36402  -0.36066  -0.35883  -0.35593  -0.35445
 Alpha  occ. eigenvalues --   -0.35172  -0.35135  -0.34658  -0.34553  -0.33851
 Alpha  occ. eigenvalues --   -0.33694  -0.33398  -0.33322  -0.32930  -0.32813
 Alpha  occ. eigenvalues --   -0.32686  -0.32254  -0.32221  -0.31854  -0.31802
 Alpha  occ. eigenvalues --   -0.31666  -0.31408  -0.30344  -0.29853  -0.29804
 Alpha  occ. eigenvalues --   -0.29498  -0.28727  -0.28434  -0.26942  -0.26696
 Alpha  occ. eigenvalues --   -0.26314  -0.26055  -0.25884  -0.25786  -0.25742
 Alpha  occ. eigenvalues --   -0.25532  -0.25525  -0.24982  -0.20852  -0.20716
 Alpha  occ. eigenvalues --   -0.18693  -0.18654
 Alpha virt. eigenvalues --   -0.11055  -0.10891  -0.05240  -0.04844  -0.04222
 Alpha virt. eigenvalues --   -0.03780  -0.02627  -0.02103  -0.00570   0.00309
 Alpha virt. eigenvalues --    0.00523   0.00554   0.01341   0.01345   0.01658

 Mulliken charges:
               1
     1  Mg  12.000009
     2  C    5.999956
     3  C    5.999968
     4  C    6.000074
     5  C    6.000020
     6  N    6.999967
     7  C    6.000047
     8  C    6.000008
     9  C    5.999990
    10  C    6.000031
    11  C    6.000005
    12  C    6.000008
    13  C    5.999991
    14  H    1.000018
    15  N    7.000041
    16  C    6.000025
    17  C    5.999957
    18  C    6.000027
    19  C    5.999970
    20  C    6.000003
    21  C    6.000033
    22  O    8.000037
    23  C    5.999990
    24  N    7.000048
    25  C    5.999929
    26  C    6.000005
    27  C    6.000007
    28  C    5.999963
    29  C    5.999999
    30  C    6.000010
    31  C    5.999995
    32  N    6.999956
    33  C    5.999982
    34  C    5.999984
    35  C    6.000040
    36  C    6.000001
    37  C    5.999989
    38  C    5.999945
    39  O    7.999981
    40  C    6.000017
    41  C    5.999989
    42  O    7.999971
    43  O    8.000010
    44  C    6.000014
    45  H    1.000019
    46  H    1.000013
    47  H    0.999990
    48  H    0.999979
    49  H    1.000007
    50  H    0.999987
    51  H    0.999993
    52  H    0.999994
    53  H    1.000005
    54  H    1.000011
    55  H    0.999995
    56  H    0.999979
    57  H    1.000016
    58  H    1.000016
    59  H    1.000037
    60  H    1.000001
    61  H    1.000031
    62  H    1.000017
    63  H    1.000016
    64  H    0.999977
    65  H    0.999986
    66  H    0.999992
    67  H    1.000019
    68  H    0.999996
    69  H    0.999998
    70  H    1.000014
    71  H    0.999996
    72  H    1.000016
    73  H    0.999992
    74  H    0.999953
    75  H    0.999990
    76  H    1.000005
    77  H    0.999990
    78  H    0.999968
    79  H    0.999992
    80  Mg  11.999518
    81  C    5.982636
    82  C    6.010370
    83  C    6.017412
    84  C    5.990944
    85  N    6.993913
    86  C    6.031887
    87  C    5.990668
    88  C    6.010397
    89  C    5.967943
    90  C    6.003004
    91  C    5.996874
    92  C    5.998685
    93  H    1.009285
    94  N    7.003602
    95  C    5.965311
    96  C    5.975681
    97  C    5.986887
    98  C    5.971300
    99  C    6.002183
   100  C    5.988889
   101  O    7.973443
   102  C    6.003247
   103  N    7.006001
   104  C    5.967625
   105  C    6.008759
   106  C    5.988791
   107  C    6.030559
   108  C    6.001913
   109  C    5.996297
   110  C    5.999989
   111  N    7.000336
   112  C    6.033962
   113  C    6.032210
   114  C    5.999149
   115  C    6.029185
   116  C    6.000625
   117  C    6.016615
   118  O    8.029015
   119  C    5.999987
   120  C    6.006146
   121  O    8.002509
   122  O    8.002120
   123  C    5.997686
   124  H    0.990402
   125  H    0.993857
   126  H    1.009324
   127  H    1.000380
   128  H    0.999177
   129  H    0.986896
   130  H    1.000997
   131  H    0.997797
   132  H    1.011478
   133  H    0.993477
   134  H    1.000454
   135  H    0.996124
   136  H    0.984581
   137  H    0.985082
   138  H    0.979358
   139  H    0.993481
   140  H    0.987425
   141  H    0.992585
   142  H    0.999078
   143  H    1.001273
   144  H    1.004913
   145  H    0.989762
   146  H    0.998645
   147  H    0.994344
   148  H    1.009872
   149  H    1.005914
   150  H    0.998342
   151  H    1.004129
   152  H    1.017878
   153  H    1.017730
   154  H    1.011491
   155  H    1.007865
   156  H    1.007041
   157  H    1.003561
   158  H    1.001726
 Sum of Mulliken charges = 624.00000

 Dipole moment (field-independent basis, Debye):
    X=             -4.6738    Y=             -1.9894    Z=             -8.8721  Tot=             10.2234
 Quadrupole moment (field-independent basis, Debye-Ang):
   XX=           -246.5508   YY=              0.8363   ZZ=             -1.6229
   XY=            -55.1667   XZ=           -235.7454   YZ=             -5.5200

 Normal termination of Gaussian 16 at Thu Oct 14 02:33:17 2021.
