 Gaussian 16, Revision A.03,
 Gaussian 16:  ES64L-G16RevA.03 25-Dec-2016

 --------------------------------------------------------
 #p PBE1PBE/Def2SVP td=(nstates=5) density=(transition=1)
 --------------------------------------------------------

 --------------------------------
 TDDFT excited states in gaussian
 --------------------------------
 Symbolic Z-matrix:
 Charge =  0 Multiplicity = 1

                         Standard orientation:
 ---------------------------------------------------------------------
 Center     Atomic      Atomic             Coordinates (Angstroms)
 Number     Number       Type             X           Y           Z
 ---------------------------------------------------------------------
      1         12           0       14.803491   -0.348889   -0.298518
      2          6           0       11.481198   -1.327241   -1.075469
      3          6           0       14.515234    2.070722   -2.794417
      4          6           0       17.274016    1.224159    1.204203
      5          6           0       14.631161   -2.771807    2.440778
      6          7           0       13.021227    0.453619   -1.627174
      7          6           0       11.921066   -0.281201   -1.925168
      8          6           0       11.256541    0.289459   -3.165173
      9          6           0       12.414994    0.882739   -3.967188
     10          6           0       13.377747    1.215838   -2.716128
     11          6           0       13.154629   -0.018317   -4.957835
     12          6           0       10.089446    1.281791   -2.736215
     13          6           0        8.855044    1.071365   -3.521646
     14          1           0        8.084989    2.321674   -3.989313
     15          7           0       15.786284    1.474701   -0.687130
     16          6           0       15.564296    2.287378   -1.826547
     17          6           0       16.528224    3.356567   -1.756921
     18          6           0       17.421661    3.133133   -0.675867
     19          6           0       16.862061    1.930027    0.037050
     20          6           0       16.524372    4.475957   -2.793205
     21          6           0       18.546879    4.004179   -0.277469
     22          8           0       18.767720    5.017682   -0.928752
     23          6           0       19.428680    3.846172    0.917523
     24          7           0       15.757588   -0.718348    1.690720
     25          6           0       16.878717    0.002523    1.891177
     26          6           0       17.660752   -0.533993    3.103783
     27          6           0       16.906180   -1.939622    3.442908
     28          6           0       15.711592   -1.860551    2.457398
     29          6           0       19.240688   -0.601197    2.896764
     30          6           0       16.507160   -2.145400    4.937742
     31          6           0       15.028245   -1.830022    5.347864
     32          7           0       13.440919   -1.722043    0.512466
     33          6           0       13.554078   -2.664956    1.573583
     34          6           0       12.354923   -3.609465    1.512739
     35          6           0       11.557221   -3.048984    0.527973
     36          6           0       12.265570   -1.934247   -0.047997
     37          6           0       11.968921   -4.857980    2.329097
     38          6           0       10.334416   -3.206431   -0.193523
     39          8           0        9.481368   -4.093508   -0.134393
     40          6           0       10.243650   -2.022974   -1.089309
     41          6           0        9.127657   -1.177229   -0.434427
     42          8           0        9.226302   -0.449830    0.551539
     43          8           0        7.924193   -1.451437   -1.141648
     44          6           0        6.726876   -0.891459   -0.660820
     45          1           0       14.528376    2.785987   -3.619608
     46          1           0       18.193175    1.719550    1.523201
     47          1           0       14.553777   -3.618326    3.125244
     48          1           0       10.840476   -0.474471   -3.821813
     49          1           0       12.263528    1.767131   -4.585002
     50          1           0       12.592173   -0.904144   -5.251471
     51          1           0       14.191148   -0.177634   -4.659592
     52          1           0       13.190114    0.606147   -5.851275
     53          1           0       10.416015    2.304075   -2.927285
     54          1           0        9.912089    1.326394   -1.661614
     55          1           0        8.266564    0.456792   -2.841344
     56          1           0        9.112249    0.501783   -4.414561
     57          1           0       17.333287    4.386376   -3.518017
     58          1           0       16.520401    5.432477   -2.272612
     59          1           0       15.601814    4.450482   -3.373334
     60          1           0       20.045239    2.959222    0.769606
     61          1           0       18.918813    3.767304    1.878469
     62          1           0       20.215473    4.599291    0.937433
     63          1           0       17.402159    0.174306    3.890606
     64          1           0       17.522462   -2.759448    3.075425
     65          1           0       19.566961    0.106406    2.134692
     66          1           0       19.715763   -1.572011    2.750705
     67          1           0       19.614856   -0.416059    3.904869
     68          1           0       17.158993   -1.600791    5.620351
     69          1           0       16.656808   -3.217204    5.065638
     70          1           0       15.266146   -1.504209    6.360730
     71          1           0       14.319350   -2.657161    5.391333
     72          1           0       14.688506   -0.994981    4.734835
     73          1           0       11.840950   -5.724413    1.681177
     74          1           0       10.958995   -4.535564    2.580672
     75          1           0       12.633760   -4.904599    3.191327
     76          1           0        9.912390   -2.340553   -2.078066
     77          1           0        5.839234   -1.149808   -1.239610
     78          1           0        6.840100    0.191483   -0.691252
     79          1           0        6.628832   -1.272185    0.356205
     80         12           0      -13.942555    0.899908    0.064656
     81          6           0      -14.126686   -2.441750   -0.748570
     82          6           0      -10.404739    0.712342   -0.401134
     83          6           0      -13.637494    3.972969    1.171863
     84          6           0      -17.376390    0.986254    0.668692
     85          7           0      -12.516260   -0.724711   -0.518344
     86          6           0      -12.821894   -1.987045   -0.832474
     87          6           0      -11.523437   -2.719587   -1.303708
     88          6           0      -10.343315   -1.677671   -1.033570
     89          6           0      -11.145003   -0.451758   -0.555180
     90          6           0       -9.377000   -2.006544    0.088134
     91          6           0      -11.578984   -3.273724   -2.735315
     92          6           0      -11.167203   -4.735609   -2.780276
     93          1           0      -10.558927   -5.348972   -4.049884
     94          7           0      -12.253546    2.176560    0.264134
     95          6           0      -10.933366    1.963475   -0.010219
     96          6           0      -10.156866    3.102705    0.199812
     97          6           0      -11.040200    4.074738    0.786503
     98          6           0      -12.398992    3.431281    0.751775
     99          6           0       -8.666384    3.186386   -0.095710
    100          6           0      -10.709682    5.439632    1.368027
    101          8           0      -11.602142    6.053540    1.984453
    102          6           0       -9.345457    5.996925    1.327256
    103          7           0      -15.309989    2.234426    0.761221
    104          6           0      -14.977970    3.523141    1.125580
    105          6           0      -16.186071    4.389650    1.641964
    106          6           0      -17.384920    3.453923    1.183860
    107          6           0      -16.661295    2.132167    0.867868
    108          6           0      -16.315788    4.803725    3.160892
    109          6           0      -18.412435    4.008511    0.095745
    110          6           0      -17.924851    3.985050   -1.328832
    111          7           0      -15.439557   -0.411082    0.129987
    112          6           0      -16.792328   -0.289178    0.384518
    113          6           0      -17.475174   -1.509165    0.238464
    114          6           0      -16.464426   -2.351624   -0.238669
    115          6           0      -15.223391   -1.653297   -0.300810
    116          6           0      -18.928404   -1.622089    0.423722
    117          6           0      -16.277026   -3.714551   -0.557668
    118          8           0      -17.098521   -4.629210   -0.468393
    119          6           0      -14.716376   -3.876892   -0.948812
    120          6           0      -14.112157   -4.876083   -0.085242
    121          8           0      -13.811753   -4.742855    1.079062
    122          8           0      -14.023170   -6.039954   -0.717145
    123          6           0      -13.566786   -7.189911    0.003357
    124          1           0       -9.320216    0.631885   -0.495674
    125          1           0      -13.693442    4.990350    1.563802
    126          1           0      -18.447260    1.056541    0.870802
    127          1           0      -11.470660   -3.509874   -0.555545
    128          1           0       -9.737654   -1.691904   -1.940391
    129          1           0       -9.522588   -2.988795    0.538675
    130          1           0       -9.502628   -1.303222    0.910896
    131          1           0       -8.354224   -1.813438   -0.236908
    132          1           0      -10.988848   -2.720781   -3.466342
    133          1           0      -12.603539   -3.163561   -3.089859
    134          1           0      -12.089334   -5.306660   -2.666306
    135          1           0      -10.466405   -4.873474   -1.957098
    136          1           0       -8.323856    2.335313   -0.684400
    137          1           0       -8.117987    3.078103    0.840303
    138          1           0       -8.399892    4.163330   -0.497294
    139          1           0       -9.216322    6.762568    2.093082
    140          1           0       -9.239062    6.499745    0.365532
    141          1           0       -8.608874    5.207984    1.477370
    142          1           0      -16.346927    5.280060    1.033347
    143          1           0      -18.063954    3.328565    2.026324
    144          1           0      -15.448861    4.405786    3.686846
    145          1           0      -17.113008    4.216092    3.617850
    146          1           0      -16.455652    5.858288    3.400212
    147          1           0      -18.552446    5.063692    0.329182
    148          1           0      -19.407458    3.569798    0.159822
    149          1           0      -18.801293    3.834336   -1.958132
    150          1           0      -17.135606    3.302876   -1.642300
    151          1           0      -17.482552    4.963484   -1.516352
    152          1           0      -19.554127   -0.760390    0.192630
    153          1           0      -19.258239   -2.087450    1.351781
    154          1           0      -19.163989   -2.404414   -0.297335
    155          1           0      -14.668272   -4.211127   -1.985008
    156          1           0      -12.482768   -7.302156   -0.038068
    157          1           0      -13.980499   -8.062268   -0.502207
    158          1           0      -13.866889   -7.115103    1.048667
 ---------------------------------------------------------------------

 SCF Done:  E(RPBE1PBE) =  -4067.34666932     A.U. after   16 cycles

 Excitation energies and oscillator strengths:

 Excited State   1:      Singlet-A      1.8405 eV  673.65 nm  f=0.3584  <S**2>=0.000
     310 -> 315       -0.18908
     312 -> 314        0.68687
 This state for optimization and/or second-order correction.
 Total Energy, E(TD-HF/TD-DFT) =  -4067.27903313
 Copying the excited state density for this state as the 1-particle RhoCI density.

 Excited State   2:      Singlet-A      1.8681 eV  663.71 nm  f=0.3904  <S**2>=0.000
     309 -> 316        0.16545
     311 -> 313        0.69311
     311 <- 313       -0.11111

 Excited State   3:      Singlet-A      1.8718 eV  662.38 nm  f=0.0000  <S**2>=0.000
     312 -> 313        0.70710

 Excited State   4:      Singlet-A      2.0273 eV  611.58 nm  f=0.0000  <S**2>=0.000
     311 -> 314        0.70710

 Excited State   5:      Singlet-A      2.1947 eV  564.92 nm  f=0.0644  <S**2>=0.000
     310 -> 314        0.63433
     312 -> 315        0.29987

 The electronic state is 1-A.
 Alpha  occ. eigenvalues --  -46.94746 -46.91073 -19.25455 -19.25383 -19.21669
 Alpha  occ. eigenvalues --  -19.19151 -19.18882 -19.18770 -19.18386 -19.17888
 Alpha  occ. eigenvalues --  -14.41938 -14.41808 -14.41647 -14.41573 -14.39927
 Alpha  occ. eigenvalues --  -14.39516 -14.39302 -14.38642 -10.37730 -10.35189
 Alpha  occ. eigenvalues --  -10.31907 -10.31696 -10.31668 -10.31350 -10.29690
 Alpha  occ. eigenvalues --  -10.29298 -10.29268 -10.29192 -10.29062 -10.28889
 Alpha  occ. eigenvalues --  -10.28870 -10.28763 -10.28666 -10.28377 -10.28354
 Alpha  occ. eigenvalues --  -10.28347 -10.27942 -10.27912 -10.27132 -10.27066
 Alpha  occ. eigenvalues --  -10.26957 -10.26768 -10.26761 -10.26698 -10.26422
 Alpha  occ. eigenvalues --  -10.26364 -10.26299 -10.26268 -10.26102 -10.25961
 Alpha  occ. eigenvalues --  -10.25952 -10.25871 -10.25846 -10.25766 -10.25760
 Alpha  occ. eigenvalues --  -10.25535 -10.25465 -10.25451 -10.25405 -10.25375
 Alpha  occ. eigenvalues --  -10.25263 -10.25230 -10.25166 -10.25021 -10.24963
 Alpha  occ. eigenvalues --  -10.24950 -10.24796 -10.24789 -10.24604 -10.24426
 Alpha  occ. eigenvalues --  -10.24348 -10.24130 -10.23923 -10.23900 -10.23889
 Alpha  occ. eigenvalues --  -10.23796 -10.23630 -10.23485 -10.23198 -10.23160
 Alpha  occ. eigenvalues --  -10.23151 -10.23009 -10.22830 -10.22710 -10.22420
 Alpha  occ. eigenvalues --  -10.22359  -3.16535  -3.13431  -1.89312  -1.88959
 Alpha  occ. eigenvalues --   -1.88710  -1.86272  -1.85824  -1.85659  -1.12660
 Alpha  occ. eigenvalues --   -1.10636  -1.04339  -1.04186  -1.03621  -1.03532
 Alpha  occ. eigenvalues --   -1.03129  -1.02538  -0.99256  -0.98863  -0.98337
 Alpha  occ. eigenvalues --   -0.98122  -0.97904  -0.97537  -0.97179  -0.96037
 Alpha  occ. eigenvalues --   -0.88818  -0.86415  -0.83633  -0.83510  -0.83070
 Alpha  occ. eigenvalues --   -0.82994  -0.82589  -0.82143  -0.81915  -0.81861
 Alpha  occ. eigenvalues --   -0.81612  -0.81234  -0.81037  -0.79968  -0.79130
 Alpha  occ. eigenvalues --   -0.78832  -0.78099  -0.78003  -0.77200  -0.77038
 Alpha  occ. eigenvalues --   -0.76487  -0.75930  -0.75526  -0.75208  -0.74943
 Alpha  occ. eigenvalues --   -0.74684  -0.72570  -0.72417  -0.71646  -0.71634
 Alpha  occ. eigenvalues --   -0.71258  -0.71192  -0.70408  -0.70242  -0.69632
 Alpha  occ. eigenvalues --   -0.69596  -0.67893  -0.67238  -0.66380  -0.65857
 Alpha  occ. eigenvalues --   -0.64322  -0.63975  -0.63275  -0.63229  -0.62137
 Alpha  occ. eigenvalues --   -0.61762  -0.61439  -0.61318  -0.59906  -0.59822
 Alpha  occ. eigenvalues --   -0.59503  -0.59397  -0.59270  -0.59163  -0.59116
 Alpha  occ. eigenvalues --   -0.58866  -0.56869  -0.56841  -0.54913  -0.54561
 Alpha  occ. eigenvalues --   -0.54545  -0.54386  -0.53975  -0.53552  -0.53368
 Alpha  occ. eigenvalues --   -0.53131  -0.52974  -0.52803  -0.52179  -0.51644
 Alpha  occ. eigenvalues --   -0.51102  -0.50721  -0.50632  -0.50579  -0.50297
 Alpha  occ. eigenvalues --   -0.49632  -0.49497  -0.49223  -0.49137  -0.48894
 Alpha  occ. eigenvalues --   -0.48357  -0.48086  -0.48012  -0.47768  -0.47709
 Alpha  occ. eigenvalues --   -0.47383  -0.47278  -0.46890  -0.46806  -0.46765
 Alpha  occ. eigenvalues --   -0.46610  -0.46534  -0.46353  -0.46264  -0.46048
 Alpha  occ. eigenvalues --   -0.45885  -0.45845  -0.45228  -0.44900  -0.44836
 Alpha  occ. eigenvalues --   -0.44758  -0.44568  -0.44484  -0.44258  -0.44090
 Alpha  occ. eigenvalues --   -0.44045  -0.43873  -0.43860  -0.43714  -0.43668
 Alpha  occ. eigenvalues --   -0.43517  -0.43210  -0.43050  -0.42976  -0.42791
 Alpha  occ. eigenvalues --   -0.42579  -0.42415  -0.42269  -0.41974  -0.41901
 Alpha  occ. eigenvalues --   -0.41687  -0.41602  -0.41212  -0.41092  -0.40858
 Alpha  occ. eigenvalues --   -0.40774  -0.40691  -0.40658  -0.40610  -0.40248
 Alpha  occ. eigenvalues --   -0.40205  -0.40178  -0.40144  -0.39975  -0.39847
 Alpha  occ. eigenvalues --   -0.39672  -0.39361  -0.39286  -0.39286  -0.39184
 Alpha  occ. eigenvalues --   -0.38985  -0.38641  -0.38619  -0.38381  -0.38379
 Alpha  occ. eigenvalues --   -0.38255  -0.38194  -0.38038  -0.37886  -0.37496
 Alpha  occ. eigenvalues --   -0.37354  -0.37322  -0.37062  -0.36841  -0.36484
 Alpha  occ. eigenvalues --   -0.36312  -0.36290  -0.36207  -0.36076  -0.35931
 Alpha  occ. eigenvalues --   -0.35912  -0.35856  -0.35829  -0.35411  -0.35364
 Alpha  occ. eigenvalues --   -0.35015  -0.34122  -0.34105  -0.33787  -0.33585
 Alpha  occ. eigenvalues --   -0.33340  -0.33089  -0.32969  -0.32712  -0.32694
 Alpha  occ. eigenvalues --   -0.32174  -0.31663  -0.31594  -0.31388  -0.31316
 Alpha  occ. eigenvalues --   -0.31135  -0.30872  -0.30116  -0.29504  -0.29411
 Alpha  occ. eigenvalues --   -0.29027  -0.28840  -0.28437  -0.27077  -0.26819
 Alpha  occ. eigenvalues --   -0.26313  -0.25936  -0.25833  -0.25467  -0.25398
 Alpha  occ. eigenvalues --   -0.25296  -0.25242  -0.24905  -0.21064  -0.21059
 Alpha  occ. eigenvalues --   -0.19064  -0.18814
 Alpha virt. eigenvalues --   -0.11468  -0.11144  -0.06063  -0.05005  -0.04443
 Alpha virt. eigenvalues --   -0.03682  -0.03203  -0.02250  -0.01877   0.00024
 Alpha virt. eigenvalues --    0.00278   0.00721   0.01272   0.01589   0.01799

 Mulliken charges:
               1
     1  Mg  12.001946
     2  C    6.017792
     3  C    5.987602
     4  C    5.986522
     5  C    6.014868
     6  N    7.003361
     7  C    5.975467
     8  C    6.003313
     9  C    5.998257
    10  C    6.027793
    11  C    5.998833
    12  C    6.004690
    13  C    6.000900
    14  H    0.993662
    15  N    6.990493
    16  C    6.041653
    17  C    6.017861
    18  C    6.012216
    19  C    6.031143
    20  C    5.995669
    21  C    6.009440
    22  O    8.021952
    23  C    5.997381
    24  N    7.003478
    25  C    6.029595
    26  C    5.989148
    27  C    6.012126
    28  C    5.965103
    29  C    5.996955
    30  C    5.998997
    31  C    6.007768
    32  N    7.002780
    33  C    5.957529
    34  C    5.972142
    35  C    5.999250
    36  C    5.973689
    37  C    5.998276
    38  C    5.980572
    39  O    7.969352
    40  C    6.002790
    41  C    5.997349
    42  O    7.994310
    43  O    7.998437
    44  C    6.002112
    45  H    1.008922
    46  H    1.003475
    47  H    0.990720
    48  H    1.001571
    49  H    1.000370
    50  H    1.013316
    51  H    0.997801
    52  H    1.001638
    53  H    0.988183
    54  H    1.002658
    55  H    1.005631
    56  H    0.997232
    57  H    1.018210
    58  H    1.014626
    59  H    1.016495
    60  H    1.010707
    61  H    1.010953
    62  H    1.011226
    63  H    1.000639
    64  H    0.995670
    65  H    0.991785
    66  H    1.005851
    67  H    1.004486
    68  H    0.990590
    69  H    0.999909
    70  H    0.991821
    71  H    1.003859
    72  H    0.998269
    73  H    0.984153
    74  H    0.988152
    75  H    0.985304
    76  H    0.990821
    77  H    0.995630
    78  H    0.994198
    79  H    1.000555
    80  Mg  11.999916
    81  C    6.000351
    82  C    6.000045
    83  C    5.999477
    84  C    5.999775
    85  N    7.000221
    86  C    5.999402
    87  C    6.000182
    88  C    5.999735
    89  C    6.000482
    90  C    5.999843
    91  C    5.999997
    92  C    5.999951
    93  H    1.000097
    94  N    6.999999
    95  C    6.000524
    96  C    6.000334
    97  C    6.000159
    98  C    6.000606
    99  C    5.999928
   100  C    6.000200
   101  O    8.000484
   102  C    5.999913
   103  N    6.999899
   104  C    6.000668
   105  C    5.999774
   106  C    6.000195
   107  C    5.999572
   108  C    6.000021
   109  C    6.000123
   110  C    6.000113
   111  N    7.000005
   112  C    5.999488
   113  C    5.999518
   114  C    6.000021
   115  C    5.999404
   116  C    6.000097
   117  C    5.999749
   118  O    7.999343
   119  C    5.999971
   120  C    5.999973
   121  O    7.999924
   122  O    7.999958
   123  C    6.000017
   124  H    1.000442
   125  H    0.999935
   126  H    0.999669
   127  H    1.000152
   128  H    1.000267
   129  H    1.000446
   130  H    0.999947
   131  H    1.000378
   132  H    0.999880
   133  H    0.999990
   134  H    1.000028
   135  H    1.000128
   136  H    1.000422
   137  H    1.000510
   138  H    1.000157
   139  H    1.000150
   140  H    1.000047
   141  H    1.000240
   142  H    0.999915
   143  H    0.999894
   144  H    0.999974
   145  H    1.000134
   146  H    0.999866
   147  H    0.999688
   148  H    0.999961
   149  H    0.999888
   150  H    1.000070
   151  H    0.999725
   152  H    0.999574
   153  H    0.999568
   154  H    0.999705
   155  H    0.999854
   156  H    1.000061
   157  H    0.999907
   158  H    0.999974
 Sum of Mulliken charges = 624.00000

 Dipole moment (field-independent basis, Debye):
    X=              5.9891    Y=              7.5541    Z=             -3.1232  Tot=             10.1336
 Quadrupole moment (field-independent basis, Debye-Ang):
   XX=            159.2555   YY=             -0.3658   ZZ=              0.8079
   XY=            108.7307   XZ=            -46.8380   YZ=              0.3799

 Normal termination of Gaussian 16 at Thu Oct 14 18:07:38 2021.
