 Gaussian 16, Revision A.03,
 Gaussian 16:  ES64L-G16RevA.03 25-Dec-2016

 --------------------------------------------------------
 #p PBE1PBE/Def2SVP td=(nstates=5) density=(transition=1)
 --------------------------------------------------------

 --------------------------------
 TDDFT excited states in gaussian
 --------------------------------
 Symbolic Z-matrix:
 Charge =  0 Multiplicity = 1

                         Standard orientation:
 ---------------------------------------------------------------------
 Center     Atomic      Atomic             Coordinates (Angstroms)
 Number     Number       Type             X           Y           Z
 ---------------------------------------------------------------------
      1         12           0      -17.722136   -0.749787    0.475229
      2          6           0      -17.470939    2.335014   -1.238044
      3          6           0      -16.578143    0.794800    3.135815
      4          6           0      -17.006395   -3.769841    1.614973
      5          6           0      -18.253348   -2.200725   -2.724922
      6          7           0      -17.272922    1.437008    0.859431
      7          6           0      -17.309025    2.482496    0.116502
      8          6           0      -17.168193    3.764225    0.963159
      9          6           0      -16.403289    3.242690    2.283936
     10          6           0      -16.690518    1.697771    2.074402
     11          6           0      -14.862737    3.577614    2.387430
     12          6           0      -18.621372    4.342040    1.374603
     13          6           0      -18.846736    5.880522    1.534017
     14          1           0      -17.594147    6.724206    1.974553
     15          7           0      -17.097151   -1.414344    2.230419
     16          6           0      -16.716063   -0.562982    3.256627
     17          6           0      -16.320986   -1.401837    4.442581
     18          6           0      -16.491167   -2.773095    3.979378
     19          6           0      -16.872648   -2.782832    2.564521
     20          6           0      -15.825347   -0.764562    5.726963
     21          6           0      -16.312936   -4.036457    4.792335
     22          8           0      -16.427474   -5.185104    4.342565
     23          6           0      -16.017471   -3.915781    6.232342
     24          7           0      -17.742601   -2.789749   -0.435969
     25          6           0      -17.351128   -3.825487    0.284019
     26          6           0      -17.745080   -5.182412   -0.452194
     27          6           0      -18.135774   -4.603760   -1.918347
     28          6           0      -18.077001   -3.098689   -1.671412
     29          6           0      -16.618022   -6.267182   -0.427703
     30          6           0      -19.506872   -5.033178   -2.536197
     31          6           0      -19.461350   -5.937091   -3.741312
     32          7           0      -18.063907   -0.099790   -1.582011
     33          6           0      -18.259635   -0.842844   -2.729160
     34          6           0      -18.272958   -0.000714   -3.851574
     35          6           0      -17.925069    1.251785   -3.311196
     36          6           0      -17.768602    1.176272   -1.947406
     37          6           0      -18.494646   -0.354553   -5.235357
     38          6           0      -17.773108    2.598305   -3.706120
     39          8           0      -17.930542    3.251719   -4.773100
     40          6           0      -17.198549    3.315128   -2.402635
     41          6           0      -17.824236    4.650551   -2.230860
     42          8           0      -19.008890    4.909127   -2.028727
     43          8           0      -16.765632    5.612802   -2.226895
     44          6           0      -17.144236    7.023814   -2.078286
     45          1           0      -16.330499    1.375234    4.027485
     46          1           0      -16.824632   -4.764276    2.026344
     47          1           0      -18.495334   -2.647578   -3.692160
     48          1           0      -16.416356    4.385116    0.476679
     49          1           0      -16.823159    3.760209    3.145800
     50          1           0      -14.458373    3.932261    1.439616
     51          1           0      -14.273866    2.691244    2.622748
     52          1           0      -14.780317    4.353415    3.148559
     53          1           0      -18.989968    3.857596    2.278924
     54          1           0      -19.343892    3.981989    0.641921
     55          1           0      -19.625746    6.137832    2.252395
     56          1           0      -18.992505    6.277750    0.528727
     57          1           0      -16.277297   -1.215998    6.610898
     58          1           0      -15.996692    0.311191    5.766279
     59          1           0      -14.735642   -0.767468    5.732102
     60          1           0      -15.102020   -3.347654    6.399909
     61          1           0      -15.918867   -4.907716    6.673399
     62          1           0      -16.794635   -3.446438    6.835533
     63          1           0      -18.658379   -5.625758   -0.055585
     64          1           0      -17.323671   -4.724092   -2.636875
     65          1           0      -15.707499   -5.858558    0.010929
     66          1           0      -16.603513   -6.564706   -1.476407
     67          1           0      -17.026559   -7.130477    0.095980
     68          1           0      -20.019932   -4.122790   -2.846926
     69          1           0      -20.122995   -5.494731   -1.764275
     70          1           0      -18.410909   -6.218804   -3.800926
     71          1           0      -19.699350   -5.332891   -4.617522
     72          1           0      -20.052537   -6.844625   -3.625343
     73          1           0      -19.419691   -0.929624   -5.266579
     74          1           0      -17.823226   -1.106529   -5.649981
     75          1           0      -18.603985    0.551207   -5.832088
     76          1           0      -16.119828    3.420325   -2.522693
     77          1           0      -16.271759    7.670057   -2.177984
     78          1           0      -17.440488    7.193840   -1.043022
     79          1           0      -17.843989    7.291376   -2.869326
     80         12           0       17.879433   -0.603152    0.037599
     81          6           0       15.584968    2.056552    0.471120
     82          6           0       20.379196    1.660811    0.159744
     83          6           0       19.945338   -3.084670   -0.503155
     84          6           0       15.070240   -2.671842   -0.797146
     85          7           0       17.995168    1.670135    0.188150
     86          6           0       16.932145    2.452159    0.607905
     87          6           0       17.501838    3.761406    1.035847
     88          6           0       18.896375    3.803003    0.410263
     89          6           0       19.166403    2.286503    0.244696
     90          6           0       18.862563    4.516819   -0.992958
     91          6           0       17.554432    4.048661    2.631875
     92          6           0       17.166590    5.449642    3.196399
     93          1           0       17.829168    6.685045    2.520953
     94          7           0       19.918192   -0.658871   -0.155814
     95          6           0       20.729937    0.352223   -0.056643
     96          6           0       22.101692   -0.133038   -0.287078
     97          6           0       22.053426   -1.559998   -0.272931
     98          6           0       20.590200   -1.836592   -0.337091
     99          6           0       23.421911    0.701221   -0.467181
    100          6           0       23.158790   -2.614688   -0.232145
    101          8           0       22.963330   -3.839987   -0.344376
    102          6           0       24.542370   -2.166641   -0.269813
    103          7           0       17.511820   -2.602763   -0.751104
    104          6           0       18.584719   -3.490099   -0.768396
    105          6           0       18.035198   -4.950641   -0.998815
    106          6           0       16.498337   -4.765444   -0.941057
    107          6           0       16.329112   -3.253151   -0.779085
    108          6           0       18.615512   -5.617645   -2.246178
    109          6           0       15.742135   -5.640558    0.090036
    110          6           0       14.377366   -6.233485   -0.331388
    111          7           0       15.767218   -0.405968   -0.157325
    112          6           0       14.771763   -1.296918   -0.545877
    113          6           0       13.490820   -0.668368   -0.345702
    114          6           0       13.766595    0.656818   -0.005444
    115          6           0       15.176138    0.798927    0.119520
    116          6           0       12.226896   -1.269821   -0.450696
    117          6           0       13.182648    1.952421    0.371935
    118          8           0       12.031452    2.334101    0.511402
    119          6           0       14.366497    2.911712    0.723566
    120          6           0       14.235681    4.134595   -0.166762
    121          8           0       14.579536    4.378739   -1.301118
    122          8           0       13.682177    5.042866    0.688713
    123          6           0       13.709217    6.470629    0.290911
    124          1           0       21.202206    2.368025    0.285137
    125          1           0       20.662097   -3.907845   -0.472101
    126          1           0       14.202745   -3.333753   -0.826482
    127          1           0       16.972791    4.649430    0.689086
    128          1           0       19.659339    4.152606    1.105367
    129          1           0       19.775042    5.061221   -1.233728
    130          1           0       18.119697    5.312585   -1.053033
    131          1           0       18.754609    3.707785   -1.714582
    132          1           0       18.519318    3.727778    3.023085
    133          1           0       16.896352    3.349238    3.148808
    134          1           0       17.585983    5.413511    4.202491
    135          1           0       16.079834    5.423953    3.116030
    136          1           0       24.139723    0.621516    0.348896
    137          1           0       23.123276    1.743672   -0.581209
    138          1           0       24.059404    0.389259   -1.294498
    139          1           0       24.742503   -1.452059    0.529009
    140          1           0       24.776316   -1.712318   -1.232684
    141          1           0       25.156689   -3.020940    0.012906
    142          1           0       18.277367   -5.506172   -0.092689
    143          1           0       16.059901   -4.893598   -1.930540
    144          1           0       17.981877   -5.383634   -3.102293
    145          1           0       18.618744   -6.706814   -2.218143
    146          1           0       19.539276   -5.109860   -2.521544
    147          1           0       15.627316   -5.174671    1.068621
    148          1           0       16.347358   -6.496355    0.392069
    149          1           0       13.647394   -5.545043    0.094642
    150          1           0       14.307477   -7.177012    0.210837
    151          1           0       14.314253   -6.297817   -1.417310
    152          1           0       11.345336   -0.657731   -0.639878
    153          1           0       12.093860   -1.874015    0.447270
    154          1           0       12.290328   -1.917619   -1.324267
    155          1           0       14.325047    3.184490    1.777907
    156          1           0       14.000531    7.001353    1.196861
    157          1           0       12.763645    6.895339   -0.045201
    158          1           0       14.474691    6.630838   -0.467900
 ---------------------------------------------------------------------

 SCF Done:  E(RPBE1PBE) =  -4067.33967741     A.U. after   16 cycles

 Excitation energies and oscillator strengths:

 Excited State   1:      Singlet-A      1.8848 eV  657.80 nm  f=0.3796  <S**2>=0.000
     310 -> 316        0.17660
     312 -> 314        0.68855
 This state for optimization and/or second-order correction.
 Total Energy, E(TD-HF/TD-DFT) =  -4067.27041086
 Copying the excited state density for this state as the 1-particle RhoCI density.

 Excited State   2:      Singlet-A      1.9369 eV  640.12 nm  f=0.0000  <S**2>=0.000
     312 -> 313        0.70711

 Excited State   3:      Singlet-A      1.9488 eV  636.21 nm  f=0.3509  <S**2>=0.000
     309 -> 315        0.20424
     311 -> 313        0.68088

 Excited State   4:      Singlet-A      2.1985 eV  563.95 nm  f=0.0000  <S**2>=0.000
     311 -> 314        0.70710

 Excited State   5:      Singlet-A      2.2124 eV  560.39 nm  f=0.0826  <S**2>=0.000
     309 -> 313        0.64638
     311 -> 315       -0.26596

 The electronic state is 1-A.
 Alpha  occ. eigenvalues --  -46.92761 -46.92756 -19.25073 -19.24589 -19.20376
 Alpha  occ. eigenvalues --  -19.20267 -19.19424 -19.19152 -19.18937 -19.18734
 Alpha  occ. eigenvalues --  -14.41627 -14.41319 -14.41122 -14.40935 -14.39634
 Alpha  occ. eigenvalues --  -14.39442 -14.38680 -14.38271 -10.36267 -10.36258
 Alpha  occ. eigenvalues --  -10.32574 -10.32177 -10.32008 -10.31637 -10.29461
 Alpha  occ. eigenvalues --  -10.29216 -10.28704 -10.28636 -10.28584 -10.28404
 Alpha  occ. eigenvalues --  -10.28373 -10.28369 -10.28317 -10.28276 -10.28123
 Alpha  occ. eigenvalues --  -10.28043 -10.27899 -10.27718 -10.27567 -10.27389
 Alpha  occ. eigenvalues --  -10.27359 -10.27085 -10.26812 -10.26484 -10.26458
 Alpha  occ. eigenvalues --  -10.26265 -10.26132 -10.26045 -10.26043 -10.25949
 Alpha  occ. eigenvalues --  -10.25710 -10.25568 -10.25461 -10.25457 -10.25397
 Alpha  occ. eigenvalues --  -10.25389 -10.25381 -10.25370 -10.25354 -10.25269
 Alpha  occ. eigenvalues --  -10.25179 -10.25098 -10.25075 -10.25060 -10.25009
 Alpha  occ. eigenvalues --  -10.24886 -10.24596 -10.24384 -10.24228 -10.24042
 Alpha  occ. eigenvalues --  -10.23938 -10.23865 -10.23827 -10.23790 -10.23600
 Alpha  occ. eigenvalues --  -10.23326 -10.23281 -10.23277 -10.23274 -10.23197
 Alpha  occ. eigenvalues --  -10.23099 -10.23040 -10.22826 -10.22715 -10.22591
 Alpha  occ. eigenvalues --  -10.22362  -3.14798  -3.14728  -1.87641  -1.87565
 Alpha  occ. eigenvalues --   -1.87181  -1.87103  -1.87007  -1.86941  -1.10905
 Alpha  occ. eigenvalues --   -1.08651  -1.04368  -1.04071  -1.04012  -1.02617
 Alpha  occ. eigenvalues --   -1.02008  -1.01510  -1.00408  -0.99831  -0.99799
 Alpha  occ. eigenvalues --   -0.98571  -0.98200  -0.97704  -0.96765  -0.96058
 Alpha  occ. eigenvalues --   -0.87341  -0.87164  -0.83806  -0.83194  -0.82911
 Alpha  occ. eigenvalues --   -0.82788  -0.82312  -0.82166  -0.81915  -0.81878
 Alpha  occ. eigenvalues --   -0.81614  -0.81348  -0.81181  -0.81089  -0.78564
 Alpha  occ. eigenvalues --   -0.78526  -0.78241  -0.77901  -0.76986  -0.76974
 Alpha  occ. eigenvalues --   -0.76592  -0.76201  -0.75857  -0.75760  -0.74991
 Alpha  occ. eigenvalues --   -0.74989  -0.73249  -0.72667  -0.72024  -0.71763
 Alpha  occ. eigenvalues --   -0.71359  -0.71246  -0.70194  -0.70182  -0.69552
 Alpha  occ. eigenvalues --   -0.69479  -0.67677  -0.67002  -0.66717  -0.66283
 Alpha  occ. eigenvalues --   -0.63381  -0.63236  -0.63128  -0.62924  -0.62285
 Alpha  occ. eigenvalues --   -0.62204  -0.61735  -0.61595  -0.60404  -0.60065
 Alpha  occ. eigenvalues --   -0.59999  -0.59986  -0.59853  -0.59449  -0.59132
 Alpha  occ. eigenvalues --   -0.58914  -0.56547  -0.55800  -0.55050  -0.55000
 Alpha  occ. eigenvalues --   -0.54701  -0.54147  -0.53880  -0.53840  -0.53006
 Alpha  occ. eigenvalues --   -0.52960  -0.52407  -0.52291  -0.52091  -0.51849
 Alpha  occ. eigenvalues --   -0.51462  -0.50761  -0.50451  -0.50316  -0.49975
 Alpha  occ. eigenvalues --   -0.49746  -0.49030  -0.48805  -0.48524  -0.48289
 Alpha  occ. eigenvalues --   -0.48140  -0.48065  -0.47822  -0.47712  -0.47642
 Alpha  occ. eigenvalues --   -0.47513  -0.47406  -0.47049  -0.47010  -0.46996
 Alpha  occ. eigenvalues --   -0.46686  -0.46630  -0.46270  -0.46147  -0.46066
 Alpha  occ. eigenvalues --   -0.45896  -0.45700  -0.45474  -0.45404  -0.45037
 Alpha  occ. eigenvalues --   -0.44975  -0.44958  -0.44622  -0.44453  -0.44209
 Alpha  occ. eigenvalues --   -0.44158  -0.43953  -0.43744  -0.43571  -0.43443
 Alpha  occ. eigenvalues --   -0.43398  -0.43235  -0.43013  -0.42878  -0.42621
 Alpha  occ. eigenvalues --   -0.42444  -0.42364  -0.42277  -0.42100  -0.41987
 Alpha  occ. eigenvalues --   -0.41812  -0.41635  -0.41504  -0.41470  -0.41374
 Alpha  occ. eigenvalues --   -0.41041  -0.41016  -0.40865  -0.40652  -0.40331
 Alpha  occ. eigenvalues --   -0.40278  -0.40120  -0.39779  -0.39706  -0.39661
 Alpha  occ. eigenvalues --   -0.39499  -0.39196  -0.38964  -0.38812  -0.38761
 Alpha  occ. eigenvalues --   -0.38709  -0.38654  -0.38388  -0.38375  -0.38112
 Alpha  occ. eigenvalues --   -0.37840  -0.37797  -0.37760  -0.37555  -0.37462
 Alpha  occ. eigenvalues --   -0.37190  -0.37020  -0.36741  -0.36690  -0.36445
 Alpha  occ. eigenvalues --   -0.36394  -0.36347  -0.36179  -0.35940  -0.35839
 Alpha  occ. eigenvalues --   -0.35771  -0.35623  -0.35491  -0.35436  -0.35245
 Alpha  occ. eigenvalues --   -0.35110  -0.34983  -0.34742  -0.34617  -0.33943
 Alpha  occ. eigenvalues --   -0.33715  -0.33470  -0.32849  -0.32684  -0.32411
 Alpha  occ. eigenvalues --   -0.32407  -0.31637  -0.31531  -0.31404  -0.31011
 Alpha  occ. eigenvalues --   -0.30966  -0.30647  -0.29762  -0.29603  -0.29141
 Alpha  occ. eigenvalues --   -0.28925  -0.28762  -0.28614  -0.27392  -0.26906
 Alpha  occ. eigenvalues --   -0.26497  -0.26019  -0.25927  -0.25919  -0.25370
 Alpha  occ. eigenvalues --   -0.25263  -0.24986  -0.24963  -0.21082  -0.20924
 Alpha  occ. eigenvalues --   -0.19284  -0.18640
 Alpha virt. eigenvalues --   -0.11144  -0.10828  -0.06039  -0.05574  -0.04395
 Alpha virt. eigenvalues --   -0.04275  -0.02164  -0.02117  -0.00901  -0.00515
 Alpha virt. eigenvalues --   -0.00002   0.01106   0.01183   0.01255   0.01442

 Mulliken charges:
               1
     1  Mg  12.000021
     2  C    6.000020
     3  C    6.000022
     4  C    6.000008
     5  C    5.999976
     6  N    6.999971
     7  C    6.000059
     8  C    5.999976
     9  C    6.000087
    10  C    5.999846
    11  C    6.000031
    12  C    5.999977
    13  C    6.000024
    14  H    0.999928
    15  N    7.000017
    16  C    5.999854
    17  C    5.999909
    18  C    5.999952
    19  C    5.999915
    20  C    6.000034
    21  C    5.999906
    22  O    7.999922
    23  C    6.000028
    24  N    7.000000
    25  C    5.999868
    26  C    6.000072
    27  C    5.999959
    28  C    6.000117
    29  C    5.999981
    30  C    5.999959
    31  C    5.999993
    32  N    7.000003
    33  C    6.000135
    34  C    6.000139
    35  C    5.999965
    36  C    6.000064
    37  C    5.999956
    38  C    6.000098
    39  O    8.000153
    40  C    5.999970
    41  C    6.000034
    42  O    8.000098
    43  O    7.999962
    44  C    5.999993
    45  H    0.999915
    46  H    1.000004
    47  H    1.000108
    48  H    0.999924
    49  H    1.000006
    50  H    0.999839
    51  H    0.999895
    52  H    0.999950
    53  H    1.000096
    54  H    1.000035
    55  H    1.000096
    56  H    1.000011
    57  H    0.999984
    58  H    0.999931
    59  H    0.999756
    60  H    0.999865
    61  H    0.999972
    62  H    1.000052
    63  H    1.000077
    64  H    0.999939
    65  H    0.999908
    66  H    0.999980
    67  H    1.000075
    68  H    1.000023
    69  H    1.000129
    70  H    0.999968
    71  H    1.000017
    72  H    1.000120
    73  H    1.000181
    74  H    1.000085
    75  H    1.000099
    76  H    0.999913
    77  H    0.999938
    78  H    1.000039
    79  H    1.000069
    80  Mg  12.001951
    81  C    5.986680
    82  C    6.020497
    83  C    6.010039
    84  C    5.984335
    85  N    7.003182
    86  C    6.028800
    87  C    5.990563
    88  C    6.003720
    89  C    5.970342
    90  C    5.998498
    91  C    5.996421
    92  C    5.999088
    93  H    1.007532
    94  N    7.006329
    95  C    5.961652
    96  C    5.975111
    97  C    5.989671
    98  C    5.970437
    99  C    6.001889
   100  C    5.986209
   101  O    7.973881
   102  C    6.006083
   103  N    6.994767
   104  C    5.966548
   105  C    6.007888
   106  C    5.992865
   107  C    6.030141
   108  C    6.003606
   109  C    5.995492
   110  C    5.999840
   111  N    6.998092
   112  C    6.035233
   113  C    6.027761
   114  C    6.003468
   115  C    6.029083
   116  C    5.995661
   117  C    6.017701
   118  O    8.028845
   119  C    6.000752
   120  C    6.001768
   121  O    8.008669
   122  O    7.999658
   123  C    5.997312
   124  H    0.994053
   125  H    0.992671
   126  H    1.005884
   127  H    1.003341
   128  H    1.002758
   129  H    1.002723
   130  H    0.989390
   131  H    1.000558
   132  H    1.013683
   133  H    0.997107
   134  H    1.003708
   135  H    0.995249
   136  H    0.981030
   137  H    0.982658
   138  H    0.983535
   139  H    0.993752
   140  H    0.992370
   141  H    0.986209
   142  H    0.998260
   143  H    0.998723
   144  H    0.991198
   145  H    0.993344
   146  H    1.006573
   147  H    1.000097
   148  H    1.009384
   149  H    0.993243
   150  H    1.003489
   151  H    1.001738
   152  H    1.014673
   153  H    1.021254
   154  H    1.016722
   155  H    1.008589
   156  H    1.005047
   157  H    1.003545
   158  H    1.005383
 Sum of Mulliken charges = 624.00000

 Dipole moment (field-independent basis, Debye):
    X=            -10.0727    Y=              2.1104    Z=              0.5508  Tot=             10.3061
 Quadrupole moment (field-independent basis, Debye-Ang):
   XX=           -359.2079   YY=              1.3373   ZZ=              0.4859
   XY=             41.7275   XZ=             13.5987   YZ=              0.7659

 Normal termination of Gaussian 16 at Thu Oct 14 07:23:24 2021.
