 Gaussian 16, Revision A.03,
 Gaussian 16:  ES64L-G16RevA.03 25-Dec-2016

 --------------------------------------------------------
 #p PBE1PBE/Def2SVP td=(nstates=5) density=(transition=1)
 --------------------------------------------------------

 --------------------------------
 TDDFT excited states in gaussian
 --------------------------------
 Symbolic Z-matrix:
 Charge =  0 Multiplicity = 1

                         Standard orientation:
 ---------------------------------------------------------------------
 Center     Atomic      Atomic             Coordinates (Angstroms)
 Number     Number       Type             X           Y           Z
 ---------------------------------------------------------------------
      1         12           0       25.091386   -0.877277    0.331873
      2          6           0       25.336655    2.284238   -1.245679
      3          6           0       25.699077    0.834492    3.318369
      4          6           0       24.785068   -3.706808    1.968779
      5          6           0       25.320136   -2.417119   -2.777224
      6          7           0       25.433148    1.305421    0.915012
      7          6           0       25.344713    2.422838    0.141261
      8          6           0       25.567004    3.762295    0.864339
      9          6           0       25.802614    3.175111    2.347064
     10          6           0       25.646975    1.696217    2.149989
     11          6           0       27.228479    3.487190    2.951778
     12          6           0       24.332165    4.717322    0.776464
     13          6           0       24.309200    6.031639    0.005861
     14          1           0       23.528420    7.234785    0.518033
     15          7           0       25.142810   -1.391533    2.374407
     16          6           0       25.478125   -0.559367    3.452198
     17          6           0       25.548782   -1.390637    4.633114
     18          6           0       25.131791   -2.677728    4.302750
     19          6           0       24.945252   -2.623156    2.839683
     20          6           0       25.796794   -0.735531    5.948899
     21          6           0       24.996753   -3.945660    5.145244
     22          8           0       24.641897   -5.044654    4.708258
     23          6           0       25.169416   -3.802161    6.606085
     24          7           0       25.157483   -2.813968   -0.270763
     25          6           0       24.794872   -3.844823    0.551186
     26          6           0       24.415077   -5.119077   -0.276728
     27          6           0       24.693320   -4.689940   -1.711469
     28          6           0       25.162904   -3.213074   -1.596218
     29          6           0       25.142939   -6.417023    0.203630
     30          6           0       23.424405   -4.867646   -2.559065
     31          6           0       23.555395   -5.473546   -3.909010
     32          7           0       25.389704   -0.265781   -1.626839
     33          6           0       25.432687   -0.988840   -2.792018
     34          6           0       25.573652   -0.134063   -3.932708
     35          6           0       25.444226    1.249384   -3.421853
     36          6           0       25.326427    1.074994   -1.986760
     37          6           0       25.754789   -0.597344   -5.388353
     38          6           0       25.406751    2.698851   -3.741015
     39          8           0       25.344748    3.276965   -4.839334
     40          6           0       25.329037    3.405585   -2.325379
     41          6           0       26.567737    4.243535   -2.387216
     42          8           0       27.713986    3.933989   -2.085444
     43          8           0       26.278499    5.475208   -2.706883
     44          6           0       27.370820    6.439109   -2.984961
     45          1           0       25.741280    1.508843    4.175848
     46          1           0       24.711449   -4.715449    2.379905
     47          1           0       25.318621   -2.915998   -3.748225
     48          1           0       26.489454    4.196791    0.477083
     49          1           0       25.081297    3.429656    3.124219
     50          1           0       28.000549    3.819048    2.258142
     51          1           0       27.630885    2.594204    3.428768
     52          1           0       27.114369    4.254558    3.717649
     53          1           0       24.093083    5.001036    1.801506
     54          1           0       23.478343    4.190592    0.352168
     55          1           0       23.751331    5.727318   -0.879851
     56          1           0       25.373543    6.223130   -0.130916
     57          1           0       24.959752   -0.867319    6.633147
     58          1           0       25.959533    0.335955    5.829846
     59          1           0       26.666827   -1.132818    6.470807
     60          1           0       24.557948   -2.973944    6.964454
     61          1           0       26.167458   -3.456535    6.875825
     62          1           0       24.860292   -4.672652    7.183815
     63          1           0       23.352729   -5.213671   -0.052446
     64          1           0       25.429383   -5.341856   -2.181620
     65          1           0       25.687472   -6.304400    1.141013
     66          1           0       25.874022   -6.800108   -0.507350
     67          1           0       24.437261   -7.247351    0.225045
     68          1           0       23.063709   -3.844266   -2.654282
     69          1           0       22.657424   -5.494469   -2.104835
     70          1           0       23.103729   -4.743393   -4.580147
     71          1           0       23.120360   -6.472882   -3.917809
     72          1           0       24.577451   -5.552358   -4.280165
     73          1           0       26.819305   -0.690797   -5.600044
     74          1           0       25.269851    0.129579   -6.039727
     75          1           0       25.329024   -1.585847   -5.562036
     76          1           0       24.435685    4.029717   -2.337703
     77          1           0       28.040240    6.606214   -2.141839
     78          1           0       27.028338    7.410624   -3.340744
     79          1           0       28.047583    6.192390   -3.802449
     80         12           0      -25.865488   -0.459883   -0.320834
     81          6           0      -23.587903    2.212160   -0.084687
     82          6           0      -27.952129    1.306143    1.828044
     83          6           0      -27.828373   -3.138432   -0.315538
     84          6           0      -23.271797   -2.466039   -1.783225
     85          7           0      -25.770137    1.491280    0.752810
     86          6           0      -24.773411    2.461764    0.579103
     87          6           0      -25.305731    3.808163    1.033661
     88          6           0      -26.563011    3.476816    1.886987
     89          6           0      -26.783395    1.994353    1.459696
     90          6           0      -26.452268    3.747300    3.420386
     91          6           0      -25.563990    4.834375   -0.123483
     92          6           0      -25.354698    6.355882    0.295967
     93          1           0      -24.989342    6.651985    1.752966
     94          7           0      -27.642789   -0.792258    0.496805
     95          6           0      -28.380114    0.075913    1.283432
     96          6           0      -29.672078   -0.475132    1.574814
     97          6           0      -29.625097   -1.816659    1.077130
     98          6           0      -28.364074   -1.935829    0.367181
     99          6           0      -30.751167    0.256528    2.430058
    100          6           0      -30.637612   -2.905103    1.223599
    101          8           0      -30.390962   -4.082055    0.867335
    102          6           0      -32.052959   -2.850273    1.870379
    103          7           0      -25.521860   -2.585458   -0.702759
    104          6           0      -26.541458   -3.464528   -0.725977
    105          6           0      -26.121088   -4.763298   -1.458882
    106          6           0      -24.668599   -4.568840   -1.908579
    107          6           0      -24.482803   -3.050718   -1.465988
    108          6           0      -26.450684   -5.987250   -0.659965
    109          6           0      -24.352559   -4.822177   -3.398302
    110          6           0      -25.140340   -3.943488   -4.401042
    111          7           0      -23.792091   -0.259944   -0.803101
    112          6           0      -22.979781   -1.081105   -1.508529
    113          6           0      -21.797013   -0.297725   -1.862188
    114          6           0      -21.953476    1.027014   -1.366674
    115          6           0      -23.185877    0.997831   -0.669720
    116          6           0      -20.646018   -0.772408   -2.745243
    117          6           0      -21.358667    2.321727   -1.269935
    118          8           0      -20.362955    2.841776   -1.766396
    119          6           0      -22.426217    3.181559   -0.325238
    120          6           0      -21.681203    3.771990    0.857127
    121          8           0      -21.397351    3.140838    1.856268
    122          8           0      -21.471113    5.120693    0.680123
    123          6           0      -20.461393    5.790693    1.493216
    124          1           0      -28.576775    1.997133    2.397635
    125          1           0      -28.554910   -3.951863   -0.364125
    126          1           0      -22.584483   -3.098159   -2.348810
    127          1           0      -24.567860    4.288313    1.676229
    128          1           0      -27.381937    4.075168    1.488735
    129          1           0      -26.693206    2.773526    3.845458
    130          1           0      -27.240960    4.424959    3.749467
    131          1           0      -25.503479    4.075387    3.844891
    132          1           0      -26.602561    4.810773   -0.452042
    133          1           0      -24.943229    4.559527   -0.975285
    134          1           0      -26.319766    6.853418    0.198788
    135          1           0      -24.601859    6.773518   -0.372106
    136          1           0      -31.238514   -0.493685    3.053970
    137          1           0      -31.529355    0.714455    1.820394
    138          1           0      -30.487836    1.084742    3.087776
    139          1           0      -32.658541   -2.072416    1.404428
    140          1           0      -32.012999   -2.726948    2.952609
    141          1           0      -32.714047   -3.663175    1.572297
    142          1           0      -26.831233   -4.875013   -2.277214
    143          1           0      -24.077688   -5.119271   -1.175642
    144          1           0      -27.346796   -6.496183   -1.015523
    145          1           0      -26.534046   -5.729862    0.396047
    146          1           0      -25.662071   -6.740469   -0.650361
    147          1           0      -24.660974   -5.857798   -3.542828
    148          1           0      -23.280834   -4.729006   -3.576367
    149          1           0      -24.380269   -3.392766   -4.954836
    150          1           0      -25.774089   -3.283260   -3.808893
    151          1           0      -25.836152   -4.495850   -5.032773
    152          1           0      -20.331971   -0.017992   -3.466023
    153          1           0      -20.951605   -1.595263   -3.390848
    154          1           0      -19.851467   -1.139966   -2.095286
    155          1           0      -22.734657    4.011156   -0.961938
    156          1           0      -20.546664    5.373712    2.497034
    157          1           0      -20.583051    6.870753    1.576228
    158          1           0      -19.513733    5.608814    0.986243
 ---------------------------------------------------------------------

 SCF Done:  E(RPBE1PBE) =  -4067.37795897     A.U. after   16 cycles

 Excitation energies and oscillator strengths:

 Excited State   1:      Singlet-A      1.8182 eV  681.90 nm  f=0.3845  <S**2>=0.000
     309 -> 316        0.16265
     311 -> 313        0.69667
     311 <- 313       -0.11885
 This state for optimization and/or second-order correction.
 Total Energy, E(TD-HF/TD-DFT) =  -4067.31114048
 Copying the excited state density for this state as the 1-particle RhoCI density.

 Excited State   2:      Singlet-A      1.8639 eV  665.20 nm  f=0.3665  <S**2>=0.000
     310 -> 315       -0.18324
     312 -> 314        0.68972

 Excited State   3:      Singlet-A      1.8712 eV  662.58 nm  f=0.0000  <S**2>=0.000
     312 -> 313        0.70711

 Excited State   4:      Singlet-A      2.0894 eV  593.39 nm  f=0.0000  <S**2>=0.000
     311 -> 314        0.70711

 Excited State   5:      Singlet-A      2.1902 eV  566.10 nm  f=0.1397  <S**2>=0.000
     309 -> 313        0.66497
     311 -> 316       -0.22021

 The electronic state is 1-A.
 Alpha  occ. eigenvalues --  -46.92328 -46.91952 -19.25949 -19.24925 -19.19688
 Alpha  occ. eigenvalues --  -19.19502 -19.19462 -19.19363 -19.18527 -19.18486
 Alpha  occ. eigenvalues --  -14.41943 -14.41931 -14.41548 -14.41083 -14.39887
 Alpha  occ. eigenvalues --  -14.39348 -14.39139 -14.38849 -10.36115 -10.35704
 Alpha  occ. eigenvalues --  -10.32847 -10.32814 -10.32802 -10.32554 -10.29202
 Alpha  occ. eigenvalues --  -10.29141 -10.29095 -10.28934 -10.28844 -10.28636
 Alpha  occ. eigenvalues --  -10.28626 -10.28541 -10.28477 -10.28403 -10.28391
 Alpha  occ. eigenvalues --  -10.28224 -10.28033 -10.28015 -10.27733 -10.26983
 Alpha  occ. eigenvalues --  -10.26981 -10.26929 -10.26888 -10.26830 -10.26810
 Alpha  occ. eigenvalues --  -10.26604 -10.26469 -10.26382 -10.25936 -10.25917
 Alpha  occ. eigenvalues --  -10.25912 -10.25905 -10.25900 -10.25883 -10.25870
 Alpha  occ. eigenvalues --  -10.25722 -10.25566 -10.25344 -10.25338 -10.25337
 Alpha  occ. eigenvalues --  -10.25333 -10.25131 -10.25104 -10.24964 -10.24924
 Alpha  occ. eigenvalues --  -10.24883 -10.24693 -10.24646 -10.24414 -10.24409
 Alpha  occ. eigenvalues --  -10.24118 -10.23925 -10.23862 -10.23845 -10.23683
 Alpha  occ. eigenvalues --  -10.23520 -10.23513 -10.23443 -10.23354 -10.23295
 Alpha  occ. eigenvalues --  -10.23159 -10.23153 -10.23074 -10.22926 -10.22386
 Alpha  occ. eigenvalues --  -10.22348  -3.14476  -3.14127  -1.87286  -1.86969
 Alpha  occ. eigenvalues --   -1.86850  -1.86713  -1.86503  -1.86354  -1.12638
 Alpha  occ. eigenvalues --   -1.10215  -1.04517  -1.04279  -1.03347  -1.03041
 Alpha  occ. eigenvalues --   -1.02279  -1.01343  -1.00030  -0.98890  -0.98438
 Alpha  occ. eigenvalues --   -0.98068  -0.97889  -0.97429  -0.96883  -0.96286
 Alpha  occ. eigenvalues --   -0.86593  -0.86306  -0.83829  -0.83525  -0.83210
 Alpha  occ. eigenvalues --   -0.82939  -0.82790  -0.82412  -0.81858  -0.81727
 Alpha  occ. eigenvalues --   -0.81078  -0.81002  -0.79736  -0.79510  -0.78678
 Alpha  occ. eigenvalues --   -0.78064  -0.77881  -0.77670  -0.77166  -0.76667
 Alpha  occ. eigenvalues --   -0.76458  -0.75343  -0.75189  -0.74977  -0.74837
 Alpha  occ. eigenvalues --   -0.74132  -0.72867  -0.72865  -0.71860  -0.71289
 Alpha  occ. eigenvalues --   -0.71194  -0.71063  -0.70589  -0.70155  -0.69482
 Alpha  occ. eigenvalues --   -0.69344  -0.67038  -0.66786  -0.66221  -0.65508
 Alpha  occ. eigenvalues --   -0.64257  -0.63545  -0.63485  -0.62850  -0.62643
 Alpha  occ. eigenvalues --   -0.62234  -0.61916  -0.61256  -0.60201  -0.59765
 Alpha  occ. eigenvalues --   -0.59712  -0.59385  -0.59303  -0.58772  -0.58753
 Alpha  occ. eigenvalues --   -0.58620  -0.57083  -0.56245  -0.55410  -0.55257
 Alpha  occ. eigenvalues --   -0.54068  -0.53996  -0.53618  -0.53382  -0.53107
 Alpha  occ. eigenvalues --   -0.52752  -0.52419  -0.52276  -0.52039  -0.51463
 Alpha  occ. eigenvalues --   -0.51127  -0.50493  -0.50294  -0.50200  -0.49614
 Alpha  occ. eigenvalues --   -0.49372  -0.49333  -0.48892  -0.48804  -0.48493
 Alpha  occ. eigenvalues --   -0.48422  -0.48016  -0.47903  -0.47707  -0.47409
 Alpha  occ. eigenvalues --   -0.47313  -0.47232  -0.47156  -0.46888  -0.46734
 Alpha  occ. eigenvalues --   -0.46705  -0.46510  -0.46093  -0.45916  -0.45656
 Alpha  occ. eigenvalues --   -0.45334  -0.45325  -0.44974  -0.44610  -0.44471
 Alpha  occ. eigenvalues --   -0.44377  -0.44214  -0.44148  -0.43917  -0.43876
 Alpha  occ. eigenvalues --   -0.43852  -0.43717  -0.43551  -0.43474  -0.43441
 Alpha  occ. eigenvalues --   -0.43212  -0.43133  -0.42860  -0.42834  -0.42605
 Alpha  occ. eigenvalues --   -0.42479  -0.42371  -0.42340  -0.42199  -0.42092
 Alpha  occ. eigenvalues --   -0.41416  -0.41263  -0.41077  -0.40977  -0.40967
 Alpha  occ. eigenvalues --   -0.40802  -0.40642  -0.40592  -0.40334  -0.40206
 Alpha  occ. eigenvalues --   -0.40182  -0.40006  -0.39969  -0.39803  -0.39518
 Alpha  occ. eigenvalues --   -0.39440  -0.39284  -0.39145  -0.38996  -0.38866
 Alpha  occ. eigenvalues --   -0.38862  -0.38808  -0.38795  -0.38216  -0.38068
 Alpha  occ. eigenvalues --   -0.37992  -0.37884  -0.37697  -0.37677  -0.37466
 Alpha  occ. eigenvalues --   -0.37373  -0.37288  -0.36804  -0.36753  -0.36694
 Alpha  occ. eigenvalues --   -0.36504  -0.36409  -0.36306  -0.36300  -0.36098
 Alpha  occ. eigenvalues --   -0.35717  -0.35577  -0.35436  -0.35343  -0.35020
 Alpha  occ. eigenvalues --   -0.35014  -0.34813  -0.34601  -0.34413  -0.34132
 Alpha  occ. eigenvalues --   -0.33661  -0.33414  -0.32903  -0.32816  -0.32638
 Alpha  occ. eigenvalues --   -0.32241  -0.31919  -0.31730  -0.31373  -0.31341
 Alpha  occ. eigenvalues --   -0.30881  -0.30864  -0.29681  -0.29210  -0.28915
 Alpha  occ. eigenvalues --   -0.28853  -0.28430  -0.28077  -0.27256  -0.27077
 Alpha  occ. eigenvalues --   -0.26321  -0.26296  -0.25941  -0.25820  -0.25697
 Alpha  occ. eigenvalues --   -0.25269  -0.24965  -0.24683  -0.21068  -0.20811
 Alpha  occ. eigenvalues --   -0.18995  -0.18773
 Alpha virt. eigenvalues --   -0.11638  -0.11056  -0.05383  -0.05030  -0.04384
 Alpha virt. eigenvalues --   -0.04283  -0.02324  -0.02273  -0.01279  -0.00161
 Alpha virt. eigenvalues --    0.00588   0.01062   0.01074   0.01625   0.01799

 Mulliken charges:
               1
     1  Mg  11.999962
     2  C    5.999942
     3  C    6.000014
     4  C    5.999966
     5  C    6.000020
     6  N    6.999980
     7  C    6.000029
     8  C    6.000028
     9  C    5.999964
    10  C    6.000051
    11  C    5.999986
    12  C    6.000020
    13  C    6.000019
    14  H    0.999952
    15  N    7.000012
    16  C    6.000069
    17  C    6.000029
    18  C    6.000011
    19  C    6.000031
    20  C    5.999981
    21  C    6.000033
    22  O    8.000056
    23  C    5.999989
    24  N    7.000027
    25  C    6.000031
    26  C    5.999976
    27  C    6.000023
    28  C    5.999962
    29  C    5.999993
    30  C    6.000017
    31  C    5.999995
    32  N    6.999976
    33  C    5.999923
    34  C    5.999978
    35  C    5.999989
    36  C    5.999986
    37  C    5.999992
    38  C    5.999945
    39  O    7.999932
    40  C    6.000004
    41  C    6.000002
    42  O    8.000010
    43  O    7.999984
    44  C    5.999992
    45  H    1.000033
    46  H    1.000018
    47  H    0.999971
    48  H    1.000015
    49  H    0.999986
    50  H    1.000053
    51  H    1.000015
    52  H    1.000029
    53  H    0.999978
    54  H    0.999966
    55  H    0.999983
    56  H    1.000031
    57  H    1.000041
    58  H    1.000042
    59  H    1.000088
    60  H    1.000000
    61  H    1.000051
    62  H    1.000047
    63  H    0.999968
    64  H    1.000012
    65  H    1.000015
    66  H    1.000041
    67  H    0.999993
    68  H    0.999980
    69  H    0.999943
    70  H    0.999979
    71  H    0.999977
    72  H    1.000036
    73  H    0.999982
    74  H    0.999941
    75  H    0.999944
    76  H    0.999951
    77  H    1.000011
    78  H    0.999985
    79  H    1.000018
    80  Mg  12.000894
    81  C    5.979840
    82  C    5.997815
    83  C    6.018453
    84  C    5.996658
    85  N    6.988034
    86  C    6.032940
    87  C    5.991389
    88  C    6.011058
    89  C    5.977317
    90  C    5.998317
    91  C    5.997342
    92  C    5.999459
    93  H    1.004866
    94  N    7.003619
    95  C    5.968218
    96  C    5.975013
    97  C    5.987880
    98  C    5.972573
    99  C    6.001944
   100  C    5.991782
   101  O    7.968065
   102  C    6.003527
   103  N    7.008456
   104  C    5.969514
   105  C    6.004043
   106  C    5.992701
   107  C    6.020412
   108  C    6.002100
   109  C    5.995873
   110  C    5.995440
   111  N    6.998467
   112  C    6.029776
   113  C    6.038813
   114  C    5.997209
   115  C    6.035149
   116  C    5.998229
   117  C    6.012843
   118  O    8.023957
   119  C    6.004995
   120  C    6.003047
   121  O    8.005581
   122  O    8.001767
   123  C    5.998444
   124  H    0.986597
   125  H    0.996151
   126  H    1.009924
   127  H    0.998758
   128  H    0.997341
   129  H    1.004445
   130  H    0.997373
   131  H    0.987684
   132  H    1.011081
   133  H    0.992711
   134  H    1.004891
   135  H    0.996915
   136  H    0.985743
   137  H    0.980887
   138  H    0.982528
   139  H    0.992227
   140  H    0.991570
   141  H    0.986891
   142  H    1.001147
   143  H    1.003871
   144  H    1.002407
   145  H    1.003801
   146  H    0.991494
   147  H    1.008784
   148  H    0.995806
   149  H    0.995208
   150  H    1.006512
   151  H    1.007537
   152  H    1.017509
   153  H    1.019044
   154  H    1.021112
   155  H    1.008196
   156  H    1.004478
   157  H    1.005491
   158  H    1.000068
 Sum of Mulliken charges = 624.00000

 Dipole moment (field-independent basis, Debye):
    X=              9.6765    Y=              1.5159    Z=             -3.9488  Tot=             10.5605
 Quadrupole moment (field-independent basis, Debye-Ang):
   XX=           -498.6089   YY=              1.0650   ZZ=              1.1348
   XY=            -43.1525   XZ=            102.8694   YZ=              2.1909

 Normal termination of Gaussian 16 at Fri Oct 15 13:03:36 2021.
