 Gaussian 16, Revision A.03,
 Gaussian 16:  ES64L-G16RevA.03 25-Dec-2016

 ---------------------------------------------------
 #p PBE1PBE/Def2SVP td=(nstates=5) density=(current)
 ---------------------------------------------------

 --------------------------------
 TDDFT excited states in gaussian
 --------------------------------
 Symbolic Z-matrix:
 Charge =  0 Multiplicity = 1

                         Standard orientation:
 ---------------------------------------------------------------------
 Center     Atomic      Atomic             Coordinates (Angstroms)
 Number     Number       Type             X           Y           Z
 ---------------------------------------------------------------------
      1         12           0        0.807274    0.182252   -0.172958
      2          6           0       -2.687659    0.051262   -0.207873
      3          6           0        0.741451   -3.285554   -0.262334
      4          6           0        4.024182    0.271290    0.290560
      5          6           0        0.576455    3.702197    0.143878
      6          7           0       -0.832869   -1.478372    0.177926
      7          6           0       -2.135265   -1.261941   -0.032653
      8          6           0       -2.817770   -2.588628   -0.059835
      9          6           0       -1.733875   -3.608103    0.368433
     10          6           0       -0.506328   -2.775077    0.056982
     11          6           0       -1.737450   -4.172156    1.790331
     12          6           0       -3.398715   -2.917183   -1.471719
     13          6           0       -4.879011   -3.404947   -1.587446
     14          1           0       -5.510893   -4.205518   -0.406255
     15          7           0        2.238952   -1.332261   -0.155378
     16          6           0        1.982157   -2.674894   -0.399414
     17          6           0        3.249257   -3.329514   -0.438263
     18          6           0        4.256442   -2.324801   -0.145558
     19          6           0        3.555839   -1.057891    0.002700
     20          6           0        3.446188   -4.850606   -0.618805
     21          6           0        5.790486   -2.482355    0.060374
     22          8           0        6.531305   -1.587427    0.318650
     23          6           0        6.349218   -3.875266   -0.154113
     24          7           0        2.074347    1.775340    0.151567
     25          6           0        3.384915    1.537981    0.382767
     26          6           0        4.223819    2.821664    0.631712
     27          6           0        3.130046    3.928053    0.308473
     28          6           0        1.842924    3.125364    0.160660
     29          6           0        4.827707    2.830510    2.152197
     30          6           0        3.517774    4.867817   -0.876143
     31          6           0        2.940186    4.558922   -2.245787
     32          7           0       -0.712453    1.669063   -0.087787
     33          6           0       -0.647445    3.035784   -0.050323
     34          6           0       -2.052781    3.572466   -0.098553
     35          6           0       -2.867138    2.419235   -0.162509
     36          6           0       -2.024995    1.259343   -0.112950
     37          6           0       -2.502153    4.996941    0.082370
     38          6           0       -4.245086    1.939161   -0.232139
     39          8           0       -5.282204    2.608220   -0.250040
     40          6           0       -4.145483    0.428923   -0.425314
     41          6           0       -5.061910   -0.173383    0.600873
     42          8           0       -4.804892   -0.297326    1.784338
     43          8           0       -6.223620   -0.342556   -0.008914
     44          6           0       -7.411774   -0.519384    0.811181
     45          1           0        0.726427   -4.370759   -0.145616
     46          1           0        5.113530    0.338610    0.265721
     47          1           0        0.507434    4.789165    0.226415
     48          1           0       -3.649756   -2.565249    0.643264
     49          1           0       -1.877185   -4.481690   -0.267631
     50          1           0       -2.554311   -3.851024    2.436884
     51          1           0       -0.801808   -3.928765    2.294530
     52          1           0       -1.792450   -5.255217    1.682785
     53          1           0       -2.767751   -3.585785   -2.056972
     54          1           0       -3.300464   -1.932777   -1.929103
     55          1           0       -4.863450   -4.047015   -2.469036
     56          1           0       -5.514408   -2.540803   -1.779734
     57          1           0        4.060378   -5.301050    0.160982
     58          1           0        4.019057   -5.090255   -1.514758
     59          1           0        2.519128   -5.420589   -0.693155
     60          1           0        6.042098   -4.312476   -1.104404
     61          1           0        6.064396   -4.486259    0.702520
     62          1           0        7.434104   -3.868234   -0.049047
     63          1           0        5.070142    2.906896   -0.049663
     64          1           0        2.994862    4.644028    1.119033
     65          1           0        4.247295    3.596286    2.666968
     66          1           0        5.848297    3.209180    2.212179
     67          1           0        4.652491    1.907583    2.706166
     68          1           0        4.586736    4.695705   -1.002601
     69          1           0        3.366605    5.921113   -0.640770
     70          1           0        3.043290    3.476864   -2.335827
     71          1           0        3.614491    5.122368   -2.890299
     72          1           0        1.885243    4.729384   -2.459044
     73          1           0       -1.759759    5.750436    0.345599
     74          1           0       -3.250478    5.037616    0.873988
     75          1           0       -3.035339    5.242513   -0.835516
     76          1           0       -4.578197    0.057398   -1.354409
     77          1           0       -7.349178   -0.414303    1.893824
     78          1           0       -7.655876   -1.569582    0.648258
     79          1           0       -8.267792   -0.139878    0.253093
 ---------------------------------------------------------------------

 SCF Done:  E(RPBE1PBE) =  -2033.68662148     A.U. after   15 cycles

 Excitation energies and oscillator strengths:

 Excited State   1:      Singlet-A      1.8764 eV  660.75 nm  f=0.3872  <S**2>=0.000
     155 ->158         0.18232
     156 ->157         0.69071
     156 <-157        -0.10328
 This state for optimization and/or second-order correction.
 Total Energy, E(TD-HF/TD-DFT) =  -2033.61766457
 Copying the excited state density for this state as the 1-particle RhoCI density.

 Excited State   2:      Singlet-A      2.2077 eV  561.59 nm  f=0.0949  <S**2>=0.000
     155 ->157         0.65479
     156 ->158        -0.25273

 Excited State   3:      Singlet-A      2.9722 eV  417.14 nm  f=0.0024  <S**2>=0.000
     154 ->157         0.68611

 Excited State   4:      Singlet-A      3.0784 eV  402.76 nm  f=0.0003  <S**2>=0.000
     151 ->157         0.61464
     151 ->159        -0.20113
     152 ->157        -0.20048
     154 ->157        -0.10280

 Excited State   5:      Singlet-A      3.1312 eV  395.96 nm  f=0.0008  <S**2>=0.000
     152 ->157         0.31593
     153 ->157         0.60913

 The electronic state is 1-A.
 Alpha  occ. eigenvalues --  -46.92180 -19.26808 -19.19753 -19.19391 -19.18987
 Alpha  occ. eigenvalues --  -14.41389 -14.40983 -14.38878 -14.38533 -10.36030
 Alpha  occ. eigenvalues --  -10.32397 -10.31794 -10.29212 -10.28838 -10.28680
 Alpha  occ. eigenvalues --  -10.28667 -10.28107 -10.27617 -10.27452 -10.26949
 Alpha  occ. eigenvalues --  -10.26943 -10.26830 -10.26757 -10.26313 -10.25999
 Alpha  occ. eigenvalues --  -10.25870 -10.25755 -10.25404 -10.24881 -10.24838
 Alpha  occ. eigenvalues --  -10.24714 -10.24325 -10.24318 -10.24288 -10.24234
 Alpha  occ. eigenvalues --  -10.23950 -10.23775 -10.23756 -10.23536 -10.23288
 Alpha  occ. eigenvalues --  -10.22900 -10.22636 -10.22460  -3.14220  -1.87068
 Alpha  occ. eigenvalues --   -1.86629  -1.86402  -1.13024  -1.06293  -1.04119
 Alpha  occ. eigenvalues --   -1.03352  -0.99600  -0.98397  -0.97179  -0.96688
 Alpha  occ. eigenvalues --   -0.87570  -0.83021  -0.82862  -0.82407  -0.81425
 Alpha  occ. eigenvalues --   -0.80432  -0.79858  -0.78747  -0.77989  -0.76879
 Alpha  occ. eigenvalues --   -0.75742  -0.75112  -0.74302  -0.72239  -0.71611
 Alpha  occ. eigenvalues --   -0.71333  -0.70597  -0.69504  -0.67084  -0.66191
 Alpha  occ. eigenvalues --   -0.63870  -0.63312  -0.62380  -0.60623  -0.59723
 Alpha  occ. eigenvalues --   -0.59448  -0.59176  -0.58874  -0.57303  -0.54406
 Alpha  occ. eigenvalues --   -0.54195  -0.53764  -0.53105  -0.52379  -0.51869
 Alpha  occ. eigenvalues --   -0.51393  -0.50581  -0.49486  -0.49382  -0.49207
 Alpha  occ. eigenvalues --   -0.48154  -0.47837  -0.47454  -0.47206  -0.46520
 Alpha  occ. eigenvalues --   -0.46280  -0.45915  -0.45748  -0.45497  -0.44658
 Alpha  occ. eigenvalues --   -0.44285  -0.43964  -0.43784  -0.43470  -0.43275
 Alpha  occ. eigenvalues --   -0.43073  -0.42823  -0.42656  -0.41930  -0.41555
 Alpha  occ. eigenvalues --   -0.41140  -0.40853  -0.40704  -0.40620  -0.40381
 Alpha  occ. eigenvalues --   -0.40266  -0.39937  -0.39689  -0.39569  -0.39182
 Alpha  occ. eigenvalues --   -0.38481  -0.38130  -0.38042  -0.37927  -0.37711
 Alpha  occ. eigenvalues --   -0.37548  -0.37025  -0.36683  -0.36512  -0.36097
 Alpha  occ. eigenvalues --   -0.35995  -0.35562  -0.35144  -0.34542  -0.34277
 Alpha  occ. eigenvalues --   -0.33275  -0.32179  -0.32134  -0.31729  -0.31318
 Alpha  occ. eigenvalues --   -0.31191  -0.29450  -0.29101  -0.28531  -0.26484
 Alpha  occ. eigenvalues --   -0.26017  -0.25410  -0.25373  -0.24738  -0.20718
 Alpha  occ. eigenvalues --   -0.18708
 Alpha virt. eigenvalues --   -0.10983  -0.05010  -0.03945  -0.01617   0.00009
 Alpha virt. eigenvalues --    0.01082   0.01219   0.01502   0.03302   0.03761
 Alpha virt. eigenvalues --    0.04649   0.05581   0.06003   0.06721   0.07488

 Mulliken charges:
               1
     1  Mg   0.941264
     2  C   -0.019982
     3  C   -0.053219
     4  C   -0.042117
     5  C   -0.074800
     6  N   -0.329155
     7  C    0.075120
     8  C   -0.131867
     9  C   -0.108388
    10  C    0.008281
    11  C    0.038738
    12  C   -0.019870
    13  C   -0.128566
    14  H    0.042759
    15  N   -0.520125
    16  C    0.218371
    17  C   -0.175032
    18  C   -0.115895
    19  C    0.148413
    20  C    0.053542
    21  C    0.059592
    22  O   -0.203923
    23  C   -0.038023
    24  N   -0.430609
    25  C    0.091832
    26  C   -0.132654
    27  C   -0.074336
    28  C    0.100532
    29  C    0.003837
    30  C   -0.046222
    31  C   -0.056135
    32  N   -0.467175
    33  C    0.136186
    34  C   -0.191114
    35  C   -0.036322
    36  C    0.169591
    37  C    0.062795
    38  C    0.153560
    39  O   -0.233071
    40  C   -0.131246
    41  C    0.249625
    42  O   -0.256640
    43  O   -0.330408
    44  C    0.133741
    45  H   -0.000028
    46  H    0.029667
    47  H   -0.001850
    48  H    0.058745
    49  H    0.035270
    50  H    0.053672
    51  H    0.049475
    52  H    0.037126
    53  H    0.043990
    54  H    0.041288
    55  H    0.058175
    56  H    0.070253
    57  H    0.044528
    58  H    0.047498
    59  H    0.038742
    60  H    0.063525
    61  H    0.057972
    62  H    0.041505
    63  H    0.062656
    64  H    0.044837
    65  H    0.028964
    66  H    0.052697
    67  H    0.066734
    68  H    0.032419
    69  H    0.037281
    70  H    0.041187
    71  H    0.049717
    72  H    0.050328
    73  H    0.039237
    74  H    0.064616
    75  H    0.062863
    76  H    0.079312
    77  H    0.086806
    78  H    0.030144
    79  H    0.059765
 Sum of Mulliken charges =  -0.00000

 Dipole moment (field-independent basis, Debye):
    X=              0.2632    Y=             -2.1176    Z=             -1.7708  Tot=              2.7729
 Quadrupole moment (field-independent basis, Debye-Ang):
   XX=           -266.3324   YY=           -220.8081   ZZ=           -257.8203
   XY=             23.8806   XZ=              1.7210   YZ=              3.8105

 Normal termination of Gaussian 16 at Wed Oct 13 18:54:05 2021.
