 Gaussian 16, Revision A.03,
 Gaussian 16:  ES64L-G16RevA.03 25-Dec-2016

 --------------------------------------------------------
 #p PBE1PBE/Def2SVP td=(nstates=5) density=(transition=1)
 --------------------------------------------------------

 --------------------------------
 TDDFT excited states in gaussian
 --------------------------------
 Symbolic Z-matrix:
 Charge =  0 Multiplicity = 1

                         Standard orientation:
 ---------------------------------------------------------------------
 Center     Atomic      Atomic             Coordinates (Angstroms)
 Number     Number       Type             X           Y           Z
 ---------------------------------------------------------------------
      1         12           0      -25.713354    0.346927    0.393174
      2          6           0      -22.909038   -1.693059   -0.108535
      3          6           0      -27.546983   -1.838407   -1.703993
      4          6           0      -28.347194    2.482139    0.575493
      5          6           0      -23.642429    2.735529    1.781294
      6          7           0      -25.285596   -1.590114   -0.595164
      7          6           0      -24.083902   -2.295559   -0.484372
      8          6           0      -24.324254   -3.790480   -0.904027
      9          6           0      -25.746886   -3.751577   -1.474062
     10          6           0      -26.227968   -2.269694   -1.292312
     11          6           0      -25.743807   -4.178131   -2.966803
     12          6           0      -24.108837   -4.678565    0.315357
     13          6           0      -23.647794   -6.108519    0.085444
     14          1           0      -23.726569   -6.680903   -1.347931
     15          7           0      -27.688508    0.362267   -0.414274
     16          6           0      -28.234448   -0.609848   -1.273932
     17          6           0      -29.587547   -0.249086   -1.659126
     18          6           0      -29.919795    0.982242   -0.968421
     19          6           0      -28.623551    1.333501   -0.244277
     20          6           0      -30.522254   -1.147996   -2.478591
     21          6           0      -31.206974    1.783455   -0.930116
     22          8           0      -31.280353    2.802491   -0.256407
     23          6           0      -32.422917    1.201963   -1.542579
     24          7           0      -25.942417    2.323355    1.159600
     25          6           0      -27.154951    2.942871    1.196594
     26          6           0      -27.048275    4.252923    2.020253
     27          6           0      -25.539153    4.319319    2.476426
     28          6           0      -24.987537    2.999786    1.877257
     29          6           0      -27.496668    5.456665    1.172275
     30          6           0      -25.320418    4.331566    4.012693
     31          6           0      -25.015879    5.756615    4.464142
     32          7           0      -23.663017    0.623143    0.705373
     33          6           0      -22.927972    1.645824    1.205187
     34          6           0      -21.500248    1.321638    0.967965
     35          6           0      -21.434123    0.018861    0.568774
     36          6           0      -22.792226   -0.344005    0.380398
     37          6           0      -20.392378    2.286913    1.354749
     38          6           0      -20.566291   -1.122851    0.250490
     39          8           0      -19.342861   -1.185532    0.238969
     40          6           0      -21.508923   -2.257298   -0.101998
     41          6           0      -21.023901   -2.786473   -1.386463
     42          8           0      -21.161655   -2.347665   -2.536336
     43          8           0      -20.263686   -3.904740   -1.111503
     44          6           0      -19.625879   -4.550901   -2.237917
     45          1           0      -28.100229   -2.577305   -2.287048
     46          1           0      -29.270489    3.057206    0.672175
     47          1           0      -23.047840    3.574240    2.149580
     48          1           0      -23.559324   -3.902018   -1.673446
     49          1           0      -26.287762   -4.556035   -0.975758
     50          1           0      -25.970540   -3.379581   -3.673414
     51          1           0      -26.635826   -4.788155   -3.106335
     52          1           0      -24.790923   -4.611764   -3.269620
     53          1           0      -25.051261   -4.614728    0.860140
     54          1           0      -23.410166   -4.184817    0.989734
     55          1           0      -24.186351   -6.760965    0.771407
     56          1           0      -22.615236   -6.053235    0.432006
     57          1           0      -30.035603   -2.030938   -2.893374
     58          1           0      -30.940614   -0.584116   -3.313397
     59          1           0      -31.388496   -1.396064   -1.866385
     60          1           0      -32.698063    0.307003   -0.983953
     61          1           0      -32.318939    1.125104   -2.624857
     62          1           0      -33.291876    1.845998   -1.407204
     63          1           0      -27.753961    4.177802    2.847261
     64          1           0      -25.118152    5.168149    1.936003
     65          1           0      -26.773953    6.262589    1.048055
     66          1           0      -28.300286    5.823930    1.810207
     67          1           0      -27.752147    5.215602    0.140804
     68          1           0      -24.373938    3.851644    4.262230
     69          1           0      -26.163361    3.936643    4.580093
     70          1           0      -25.665360    5.895145    5.328346
     71          1           0      -25.369347    6.528310    3.780723
     72          1           0      -23.976551    5.952458    4.729326
     73          1           0      -20.718336    3.299728    1.592931
     74          1           0      -19.619148    2.365194    0.591474
     75          1           0      -19.991864    1.973898    2.319609
     76          1           0      -21.448101   -2.996799    0.695803
     77          1           0      -19.088555   -3.783626   -2.795885
     78          1           0      -20.327010   -5.043261   -2.912141
     79          1           0      -18.774178   -5.074851   -1.805445
     80         12           0       26.012878   -0.330838   -0.494061
     81          6           0       22.541945   -0.892506   -0.008663
     82          6           0       25.150241    1.766817   -3.144122
     83          6           0       28.986882    1.033710   -0.134263
     84          6           0       26.524707   -2.331887    2.528819
     85          7           0       23.978559    0.553204   -1.310045
     86          6           0       22.774697   -0.040818   -1.117775
     87          6           0       21.794622    0.460109   -2.163424
     88          6           0       22.671803    0.766516   -3.377463
     89          6           0       24.025063    1.108579   -2.568338
     90          6           0       22.944706   -0.353737   -4.382898
     91          6           0       20.942603    1.662208   -1.563541
     92          6           0       19.502370    1.540344   -1.873066
     93          1           0       18.748859    2.821838   -2.279225
     94          7           0       26.985863    1.260837   -1.475007
     95          6           0       26.478271    1.945732   -2.606936
     96          6           0       27.511473    2.858886   -3.026239
     97          6           0       28.687613    2.643960   -2.259863
     98          6           0       28.281333    1.638739   -1.214236
     99          6           0       27.273309    3.825053   -4.182411
    100          6           0       29.962039    3.380599   -2.389306
    101          8           0       30.052487    4.258396   -3.238671
    102          6           0       31.171822    3.246079   -1.523930
    103          7           0       27.534540   -0.582329    1.126176
    104          6           0       28.724105   -0.017543    0.838571
    105          6           0       29.808581   -0.506045    1.815874
    106          6           0       29.074597   -1.728315    2.608024
    107          6           0       27.633700   -1.597755    2.050088
    108          6           0       31.213746   -0.834471    1.136744
    109          6           0       29.179138   -1.680032    4.164568
    110          6           0       27.961169   -1.097495    4.959588
    111          7           0       24.869741   -1.370279    0.924617
    112          6           0       25.236219   -2.176581    2.039709
    113          6           0       23.997866   -2.931204    2.520125
    114          6           0       22.977154   -2.387839    1.756493
    115          6           0       23.559789   -1.474057    0.806927
    116          6           0       23.784324   -3.993722    3.615425
    117          6           0       21.574408   -2.451345    1.494063
    118          8           0       20.706251   -3.186107    1.967899
    119          6           0       21.308056   -1.391471    0.485616
    120          6           0       20.564773   -0.311965    1.305246
    121          8           0       21.058795    0.512115    2.071929
    122          8           0       19.173302   -0.491031    1.069830
    123          6           0       18.267240    0.298258    1.800867
    124          1           0       24.958259    2.361077   -4.040066
    125          1           0       30.004264    1.422696   -0.209425
    126          1           0       26.596428   -3.063167    3.335765
    127          1           0       21.109373   -0.310396   -2.516457
    128          1           0       22.411590    1.577629   -4.056556
    129          1           0       22.231291   -1.175644   -4.330190
    130          1           0       24.000007   -0.626895   -4.403532
    131          1           0       22.741845    0.139457   -5.334243
    132          1           0       21.286669    2.591431   -2.017831
    133          1           0       21.139547    1.869333   -0.511626
    134          1           0       19.116705    1.112358   -0.948453
    135          1           0       19.388678    0.829670   -2.691535
    136          1           0       27.780661    3.523979   -5.098745
    137          1           0       27.538583    4.829852   -3.856876
    138          1           0       26.212332    3.864077   -4.429627
    139          1           0       31.612104    2.265400   -1.705931
    140          1           0       31.006854    3.367363   -0.452633
    141          1           0       31.990930    3.869462   -1.880417
    142          1           0       29.899358    0.327338    2.512206
    143          1           0       29.447999   -2.671104    2.209675
    144          1           0       31.335590   -0.286489    0.202517
    145          1           0       31.513681   -1.875996    1.015196
    146          1           0       31.919455   -0.580456    1.929212
    147          1           0       30.072228   -1.156511    4.504799
    148          1           0       29.255438   -2.737042    4.418389
    149          1           0       28.554736   -0.684569    5.775566
    150          1           0       27.228872   -1.797027    5.363290
    151          1           0       27.521162   -0.306019    4.352562
    152          1           0       23.361832   -4.906685    3.197236
    153          1           0       22.953738   -3.494580    4.113598
    154          1           0       24.690729   -4.028980    4.219421
    155          1           0       20.635846   -1.779297   -0.279861
    156          1           0       17.216263    0.103895    1.583339
    157          1           0       18.470992    1.339312    1.553473
    158          1           0       18.476977    0.069149    2.846058
 ---------------------------------------------------------------------

 SCF Done:  E(RPBE1PBE) =  -4067.32723976     A.U. after   16 cycles

 Excitation energies and oscillator strengths:

 Excited State   1:      Singlet-A      1.8263 eV  678.87 nm  f=0.3878  <S**2>=0.000
     310 -> 316        0.16169
     312 -> 313        0.69446
     312 <- 313       -0.11148
 This state for optimization and/or second-order correction.
 Total Energy, E(TD-HF/TD-DFT) =  -4067.26012309
 Copying the excited state density for this state as the 1-particle RhoCI density.

 Excited State   2:      Singlet-A      1.8406 eV  673.61 nm  f=0.3413  <S**2>=0.000
     309 -> 315        0.18901
     311 -> 314        0.68686

 Excited State   3:      Singlet-A      1.9706 eV  629.16 nm  f=0.0000  <S**2>=0.000
     312 -> 314        0.70711

 Excited State   4:      Singlet-A      2.0057 eV  618.16 nm  f=0.0000  <S**2>=0.000
     311 -> 313        0.70711

 Excited State   5:      Singlet-A      2.1946 eV  564.95 nm  f=0.0646  <S**2>=0.000
     309 -> 314        0.63432
     311 -> 315       -0.29983

 The electronic state is 1-A.
 Alpha  occ. eigenvalues --  -46.94670 -46.92514 -19.25345 -19.25158 -19.21567
 Alpha  occ. eigenvalues --  -19.20071 -19.19639 -19.19224 -19.19067 -19.17819
 Alpha  occ. eigenvalues --  -14.41864 -14.41713 -14.41494 -14.41259 -14.39849
 Alpha  occ. eigenvalues --  -14.39687 -14.39441 -14.38931 -10.37629 -10.36415
 Alpha  occ. eigenvalues --  -10.32663 -10.32400 -10.31610 -10.31281 -10.29617
 Alpha  occ. eigenvalues --  -10.29576 -10.29218 -10.29195 -10.28981 -10.28831
 Alpha  occ. eigenvalues --  -10.28688 -10.28642 -10.28591 -10.28547 -10.28522
 Alpha  occ. eigenvalues --  -10.28219 -10.28219 -10.28006 -10.27865 -10.27352
 Alpha  occ. eigenvalues --  -10.27053 -10.26989 -10.26967 -10.26632 -10.26550
 Alpha  occ. eigenvalues --  -10.26501 -10.26356 -10.26213 -10.26177 -10.26082
 Alpha  occ. eigenvalues --  -10.25886 -10.25801 -10.25690 -10.25653 -10.25580
 Alpha  occ. eigenvalues --  -10.25539 -10.25512 -10.25503 -10.25444 -10.25365
 Alpha  occ. eigenvalues --  -10.25331 -10.25297 -10.25223 -10.25183 -10.25156
 Alpha  occ. eigenvalues --  -10.24876 -10.24873 -10.24726 -10.24529 -10.24391
 Alpha  occ. eigenvalues --  -10.24286 -10.24219 -10.23974 -10.23859 -10.23840
 Alpha  occ. eigenvalues --  -10.23801 -10.23618 -10.23096 -10.23087 -10.23064
 Alpha  occ. eigenvalues --  -10.22971 -10.22757 -10.22737 -10.22678 -10.22631
 Alpha  occ. eigenvalues --  -10.22473  -3.16458  -3.14495  -1.89236  -1.88883
 Alpha  occ. eigenvalues --   -1.88634  -1.87349  -1.86828  -1.86749  -1.10595
 Alpha  occ. eigenvalues --   -1.10528  -1.04998  -1.04857  -1.04253  -1.04117
 Alpha  occ. eigenvalues --   -1.03427  -1.01715  -0.99158  -0.98785  -0.98045
 Alpha  occ. eigenvalues --   -0.97460  -0.97395  -0.97207  -0.96176  -0.95962
 Alpha  occ. eigenvalues --   -0.88734  -0.87823  -0.83522  -0.83419  -0.83077
 Alpha  occ. eigenvalues --   -0.82998  -0.82206  -0.82073  -0.81535  -0.81456
 Alpha  occ. eigenvalues --   -0.81158  -0.81062  -0.79954  -0.79890  -0.79047
 Alpha  occ. eigenvalues --   -0.78592  -0.78141  -0.77927  -0.77031  -0.76959
 Alpha  occ. eigenvalues --   -0.76434  -0.75852  -0.75259  -0.75125  -0.74605
 Alpha  occ. eigenvalues --   -0.74381  -0.72342  -0.72257  -0.71617  -0.71566
 Alpha  occ. eigenvalues --   -0.71178  -0.71126  -0.70317  -0.70293  -0.69560
 Alpha  occ. eigenvalues --   -0.68902  -0.67161  -0.67018  -0.66302  -0.65453
 Alpha  occ. eigenvalues --   -0.64254  -0.63477  -0.63150  -0.62882  -0.62348
 Alpha  occ. eigenvalues --   -0.61676  -0.61429  -0.61228  -0.59818  -0.59801
 Alpha  occ. eigenvalues --   -0.59429  -0.59316  -0.59193  -0.59173  -0.59081
 Alpha  occ. eigenvalues --   -0.58467  -0.56750  -0.56746  -0.54569  -0.54463
 Alpha  occ. eigenvalues --   -0.54307  -0.54242  -0.53895  -0.53586  -0.53332
 Alpha  occ. eigenvalues --   -0.53273  -0.53003  -0.52898  -0.52259  -0.51570
 Alpha  occ. eigenvalues --   -0.50632  -0.50556  -0.50528  -0.50309  -0.50216
 Alpha  occ. eigenvalues --   -0.49648  -0.49411  -0.49313  -0.49129  -0.48270
 Alpha  occ. eigenvalues --   -0.48174  -0.48023  -0.47936  -0.47873  -0.47733
 Alpha  occ. eigenvalues --   -0.47628  -0.47521  -0.47452  -0.47297  -0.46720
 Alpha  occ. eigenvalues --   -0.46529  -0.46460  -0.46368  -0.46187  -0.46017
 Alpha  occ. eigenvalues --   -0.45966  -0.45793  -0.45412  -0.45150  -0.44826
 Alpha  occ. eigenvalues --   -0.44768  -0.44486  -0.44332  -0.44150  -0.44015
 Alpha  occ. eigenvalues --   -0.44002  -0.43786  -0.43777  -0.43657  -0.43591
 Alpha  occ. eigenvalues --   -0.43264  -0.43137  -0.42908  -0.42870  -0.42498
 Alpha  occ. eigenvalues --   -0.42497  -0.42190  -0.42075  -0.41827  -0.41704
 Alpha  occ. eigenvalues --   -0.41608  -0.41469  -0.41070  -0.40817  -0.40785
 Alpha  occ. eigenvalues --   -0.40617  -0.40585  -0.40580  -0.40519  -0.40169
 Alpha  occ. eigenvalues --   -0.40061  -0.39985  -0.39886  -0.39693  -0.39479
 Alpha  occ. eigenvalues --   -0.39282  -0.39234  -0.39212  -0.39161  -0.39036
 Alpha  occ. eigenvalues --   -0.38903  -0.38534  -0.38413  -0.38307  -0.38175
 Alpha  occ. eigenvalues --   -0.38120  -0.37953  -0.37818  -0.37805  -0.37673
 Alpha  occ. eigenvalues --   -0.37341  -0.37268  -0.37242  -0.36988  -0.36746
 Alpha  occ. eigenvalues --   -0.36398  -0.36382  -0.36155  -0.36138  -0.35846
 Alpha  occ. eigenvalues --   -0.35843  -0.35748  -0.35343  -0.35248  -0.34935
 Alpha  occ. eigenvalues --   -0.34821  -0.34057  -0.33881  -0.33494  -0.33463
 Alpha  occ. eigenvalues --   -0.33271  -0.32986  -0.32945  -0.32883  -0.32761
 Alpha  occ. eigenvalues --   -0.32609  -0.31575  -0.31566  -0.31293  -0.31261
 Alpha  occ. eigenvalues --   -0.30904  -0.30777  -0.30016  -0.29426  -0.29381
 Alpha  occ. eigenvalues --   -0.29088  -0.28950  -0.28247  -0.26920  -0.26739
 Alpha  occ. eigenvalues --   -0.26436  -0.26234  -0.26145  -0.25932  -0.25853
 Alpha  occ. eigenvalues --   -0.25537  -0.25222  -0.24835  -0.20981  -0.20724
 Alpha  occ. eigenvalues --   -0.18738  -0.18570
 Alpha virt. eigenvalues --   -0.11111  -0.11068  -0.05987  -0.05046  -0.04362
 Alpha virt. eigenvalues --   -0.04032  -0.03130  -0.02433  -0.02175  -0.00425
 Alpha virt. eigenvalues --    0.00121   0.00572   0.00804   0.01088   0.01491

 Mulliken charges:
               1
     1  Mg  12.000297
     2  C    5.977015
     3  C    6.003414
     4  C    6.022427
     5  C    5.994826
     6  N    6.985755
     7  C    6.033204
     8  C    5.994819
     9  C    6.011233
    10  C    5.970443
    11  C    6.001826
    12  C    5.995823
    13  C    6.000203
    14  H    1.006410
    15  N    7.004629
    16  C    5.964058
    17  C    5.981495
    18  C    5.982711
    19  C    5.971833
    20  C    6.002290
    21  C    5.985580
    22  O    7.969508
    23  C    6.007578
    24  N    7.006409
    25  C    5.968583
    26  C    6.006907
    27  C    5.988948
    28  C    6.027251
    29  C    6.002267
    30  C    5.995727
    31  C    5.998498
    32  N    6.998857
    33  C    6.033617
    34  C    6.030475
    35  C    6.000478
    36  C    6.033643
    37  C    5.997003
    38  C    6.019438
    39  O    8.026410
    40  C    6.000280
    41  C    6.003190
    42  O    8.007918
    43  O    8.000598
    44  C    5.998793
    45  H    0.986909
    46  H    0.997934
    47  H    1.010873
    48  H    0.997102
    49  H    0.993818
    50  H    1.001126
    51  H    1.000746
    52  H    0.987145
    53  H    1.009105
    54  H    0.992452
    55  H    1.003030
    56  H    0.995657
    57  H    0.984368
    58  H    0.983307
    59  H    0.983602
    60  H    0.992630
    61  H    0.992418
    62  H    0.985322
    63  H    1.001911
    64  H    1.003581
    65  H    0.991882
    66  H    1.000224
    67  H    1.005189
    68  H    0.995539
    69  H    1.009258
    70  H    1.005445
    71  H    1.005276
    72  H    0.998814
    73  H    1.017323
    74  H    1.017727
    75  H    1.020284
    76  H    1.007378
    77  H    1.000642
    78  H    1.006690
    79  H    1.002626
    80  Mg  12.000051
    81  C    6.000294
    82  C    5.999776
    83  C    5.999782
    84  C    6.000285
    85  N    7.000008
    86  C    5.999548
    87  C    6.000068
    88  C    5.999958
    89  C    6.000491
    90  C    5.999984
    91  C    6.000087
    92  C    6.000046
    93  H    0.999801
    94  N    6.999857
    95  C    6.000751
    96  C    6.000323
    97  C    6.000249
    98  C    6.000570
    99  C    5.999899
   100  C    6.000190
   101  O    8.000449
   102  C    5.999922
   103  N    7.000104
   104  C    6.000532
   105  C    5.999782
   106  C    6.000204
   107  C    5.999377
   108  C    5.999933
   109  C    5.999987
   110  C    6.000135
   111  N    6.999999
   112  C    5.999278
   113  C    5.999502
   114  C    6.000000
   115  C    5.999532
   116  C    6.000015
   117  C    5.999581
   118  O    7.999380
   119  C    6.000071
   120  C    5.999945
   121  O    7.999894
   122  O    7.999958
   123  C    6.000057
   124  H    1.000153
   125  H    1.000109
   126  H    0.999857
   127  H    0.999998
   128  H    0.999987
   129  H    1.000223
   130  H    0.999985
   131  H    1.000028
   132  H    0.999782
   133  H    1.000046
   134  H    1.000075
   135  H    0.999940
   136  H    1.000372
   137  H    1.000286
   138  H    1.000292
   139  H    1.000224
   140  H    1.000209
   141  H    1.000254
   142  H    1.000031
   143  H    0.999946
   144  H    0.999857
   145  H    1.000140
   146  H    1.000120
   147  H    0.999857
   148  H    1.000019
   149  H    0.999866
   150  H    1.000060
   151  H    0.999951
   152  H    0.999691
   153  H    0.999739
   154  H    0.999740
   155  H    0.999786
   156  H    0.999834
   157  H    0.999884
   158  H    1.000002
 Sum of Mulliken charges = 624.00000

 Dipole moment (field-independent basis, Debye):
    X=             10.1149    Y=              1.0917    Z=              2.9147  Tot=             10.5829
 Quadrupole moment (field-independent basis, Debye-Ang):
   XX=           -507.2936   YY=              3.0496   ZZ=             -0.2483
   XY=            -17.3143   XZ=            -83.8898   YZ=              2.3795

 Normal termination of Gaussian 16 at Fri Oct 15 02:00:34 2021.
