 Gaussian 16, Revision A.03,
 Gaussian 16:  ES64L-G16RevA.03 25-Dec-2016

 --------------------------------------------------------
 #p PBE1PBE/Def2SVP td=(nstates=5) density=(transition=1)
 --------------------------------------------------------

 --------------------------------
 TDDFT excited states in gaussian
 --------------------------------
 Symbolic Z-matrix:
 Charge =  0 Multiplicity = 1

                         Standard orientation:
 ---------------------------------------------------------------------
 Center     Atomic      Atomic             Coordinates (Angstroms)
 Number     Number       Type             X           Y           Z
 ---------------------------------------------------------------------
      1         12           0        9.554041    0.588915   -0.043558
      2          6           0        7.882139   -1.808081   -1.884369
      3          6           0        7.799330    2.997937   -1.766326
      4          6           0       10.748801    2.930604    2.167380
      5          6           0       11.185101   -1.882739    1.711935
      6          7           0        7.891157    0.591831   -1.482458
      7          6           0        7.434272   -0.534276   -2.138374
      8          6           0        6.386635   -0.191809   -3.194302
      9          6           0        6.630718    1.353146   -3.372248
     10          6           0        7.439749    1.667743   -2.122413
     11          6           0        7.270652    1.840480   -4.750369
     12          6           0        4.914708   -0.603293   -2.871725
     13          6           0        4.153125   -1.261820   -4.002608
     14          1           0        3.047297   -0.369765   -4.544998
     15          7           0        9.276650    2.639466    0.146969
     16          6           0        8.559886    3.435988   -0.653962
     17          6           0        8.706393    4.827342   -0.262949
     18          6           0        9.522006    4.929430    0.851642
     19          6           0        9.860269    3.472308    1.152827
     20          6           0        7.921987    6.016623   -0.996699
     21          6           0       10.011689    6.244111    1.547569
     22          8           0        9.571687    7.351510    1.127239
     23          6           0       10.929832    6.221631    2.709089
     24          7           0       10.641496    0.520276    1.908703
     25          6           0       11.139989    1.585330    2.493119
     26          6           0       12.243127    1.254308    3.476454
     27          6           0       12.395266   -0.304654    3.468046
     28          6           0       11.411761   -0.620242    2.241593
     29          6           0       13.549128    2.110952    3.503413
     30          6           0       12.033758   -1.141493    4.729346
     31          6           0       12.621162   -2.537405    4.701491
     32          7           0        9.535973   -1.477338   -0.063417
     33          6           0       10.335076   -2.385009    0.669543
     34          6           0       10.075741   -3.706127    0.165708
     35          6           0        9.131752   -3.554212   -0.879053
     36          6           0        8.838377   -2.193790   -0.913112
     37          6           0       10.854685   -4.970803    0.495357
     38          6           0        8.441569   -4.271969   -1.831726
     39          8           0        8.293490   -5.435885   -2.087537
     40          6           0        7.446240   -3.169974   -2.470249
     41          6           0        6.105719   -3.451216   -1.793154
     42          8           0        5.783508   -3.087557   -0.678473
     43          8           0        5.359933   -4.206134   -2.684035
     44          6           0        4.071349   -4.683095   -2.192404
     45          1           0        7.431972    3.806667   -2.401255
     46          1           0       11.103103    3.727834    2.823679
     47          1           0       11.729787   -2.754140    2.081266
     48          1           0        6.698295   -0.662734   -4.126159
     49          1           0        5.684532    1.844423   -3.142456
     50          1           0        7.720204    2.789320   -4.457816
     51          1           0        6.540270    2.138278   -5.503082
     52          1           0        7.986088    1.169418   -5.225490
     53          1           0        4.446338    0.344886   -2.606959
     54          1           0        4.743552   -1.132916   -1.934773
     55          1           0        3.743366   -2.195043   -3.615549
     56          1           0        4.791720   -1.499165   -4.853698
     57          1           0        7.242951    5.704824   -1.791413
     58          1           0        8.625288    6.735220   -1.418841
     59          1           0        7.216983    6.530091   -0.344394
     60          1           0       11.863693    5.737553    2.425054
     61          1           0       10.435556    5.845480    3.604899
     62          1           0       11.259442    7.255840    2.800359
     63          1           0       11.977498    1.348160    4.529620
     64          1           0       13.325442   -0.630735    3.002103
     65          1           0       13.336041    2.997146    2.904032
     66          1           0       14.444882    1.559010    3.216338
     67          1           0       13.810883    2.496887    4.488729
     68          1           0       10.946377   -1.121307    4.800848
     69          1           0       12.393846   -0.537409    5.562061
     70          1           0       12.819322   -2.829414    5.733086
     71          1           0       13.558090   -2.638920    4.152522
     72          1           0       11.855750   -3.237021    4.365561
     73          1           0       10.618151   -5.816103   -0.150942
     74          1           0       10.665960   -5.209822    1.541146
     75          1           0       11.929095   -4.806220    0.412997
     76          1           0        7.473038   -3.193957   -3.560091
     77          1           0        4.232526   -5.389570   -1.377979
     78          1           0        3.467298   -5.114110   -2.990076
     79          1           0        3.522471   -3.852078   -1.750308
     80         12           0       -9.494218    0.428762    0.164623
     81          6           0       -6.827545   -1.850563    0.071894
     82          6           0       -7.549627    2.859794   -1.031270
     83          6           0      -12.048366    2.402263    0.399666
     84          6           0      -11.113705   -1.950500    2.356664
     85          7           0       -7.391030    0.468971   -0.301497
     86          6           0       -6.533303   -0.549648   -0.441251
     87          6           0       -5.165895   -0.081005   -0.867165
     88          6           0       -5.315318    1.492440   -0.815125
     89          6           0       -6.822825    1.632367   -0.728891
     90          6           0       -4.567071    2.275062    0.312343
     91          6           0       -4.852047   -0.551347   -2.378359
     92          6           0       -3.440524   -1.203312   -2.546560
     93          1           0       -3.289112   -1.935762   -3.987733
     94          7           0       -9.821363    2.235939   -0.472774
     95          6           0       -8.895871    3.121207   -0.998629
     96          6           0       -9.602338    4.246274   -1.546526
     97          6           0      -11.008275    4.169104   -1.180453
     98          6           0      -11.068901    2.834412   -0.470332
     99          6           0       -8.790318    5.381366   -2.233933
    100          6           0      -12.241975    5.039637   -1.390390
    101          8           0      -13.410001    4.754828   -1.069669
    102          6           0      -11.941428    6.280799   -2.153612
    103          7           0      -11.210830    0.246425    1.369686
    104          6           0      -12.106276    1.278812    1.237034
    105          6           0      -13.291640    1.100186    2.186339
    106          6           0      -13.158994   -0.399583    2.559834
    107          6           0      -11.726469   -0.730304    2.136515
    108          6           0      -13.227439    2.178231    3.339961
    109          6           0      -14.220229   -1.379403    1.900817
    110          6           0      -14.496380   -2.698616    2.639749
    111          7           0       -9.115481   -1.529716    1.031321
    112          6           0       -9.859961   -2.310503    1.862658
    113          6           0       -9.241730   -3.602529    2.059532
    114          6           0       -8.069189   -3.461546    1.294880
    115          6           0       -8.000394   -2.174296    0.743099
    116          6           0       -9.676374   -4.848266    2.865393
    117          6           0       -6.898764   -4.176795    0.868856
    118          8           0       -6.566605   -5.331528    0.930914
    119          6           0       -5.956061   -3.060923    0.177632
    120          6           0       -5.491864   -3.791521   -1.004663
    121          8           0       -6.066901   -3.955570   -2.110317
    122          8           0       -4.290588   -4.284667   -0.657391
    123          6           0       -3.573182   -5.110506   -1.629694
    124          1           0       -6.945391    3.635198   -1.507080
    125          1           0      -12.940155    3.032499    0.418810
    126          1           0      -11.690235   -2.667235    2.945187
    127          1           0       -4.338459   -0.451575   -0.261442
    128          1           0       -5.054629    2.028655   -1.727798
    129          1           0       -5.318042    2.657778    1.003459
    130          1           0       -4.073694    3.101773   -0.198463
    131          1           0       -3.845221    1.740756    0.929047
    132          1           0       -4.975726    0.210048   -3.149383
    133          1           0       -5.663644   -1.222448   -2.659710
    134          1           0       -3.266862   -1.945558   -1.767723
    135          1           0       -2.603987   -0.504942   -2.549434
    136          1           0       -8.709381    5.139965   -3.292885
    137          1           0       -7.727189    5.368463   -1.990621
    138          1           0       -9.046556    6.406384   -1.967035
    139          1           0      -11.556485    6.113949   -3.159013
    140          1           0      -11.240376    6.788329   -1.489889
    141          1           0      -12.792650    6.956052   -2.245006
    142          1           0      -14.175070    1.299588    1.579656
    143          1           0      -13.304479   -0.515188    3.633839
    144          1           0      -12.936575    1.708028    4.279242
    145          1           0      -14.132133    2.731864    3.589857
    146          1           0      -12.457281    2.944857    3.252329
    147          1           0      -13.717570   -1.691874    0.985102
    148          1           0      -15.201055   -0.971073    1.656256
    149          1           0      -14.162392   -3.566517    2.069673
    150          1           0      -15.517727   -2.938277    2.936285
    151          1           0      -13.832822   -2.686728    3.503278
    152          1           0      -10.339778   -4.476601    3.646331
    153          1           0       -8.813582   -5.358595    3.295519
    154          1           0      -10.235875   -5.478399    2.174104
    155          1           0       -5.093706   -2.865612    0.815293
    156          1           0       -2.703593   -4.554282   -1.979300
    157          1           0       -4.230090   -5.495062   -2.409153
    158          1           0       -3.145929   -5.962409   -1.100862
 ---------------------------------------------------------------------

 SCF Done:  E(RPBE1PBE) =  -4067.36687083     A.U. after   17 cycles

 Excitation energies and oscillator strengths:

 Excited State   1:      Singlet-A      1.8640 eV  665.15 nm  f=0.0000  <S**2>=0.000
     312 -> 313        0.70708
 This state for optimization and/or second-order correction.
 Total Energy, E(TD-HF/TD-DFT) =  -4067.29836993
 Copying the excited state density for this state as the 1-particle RhoCI density.

 Excited State   2:      Singlet-A      1.8737 eV  661.71 nm  f=0.1488  <S**2>=0.000
     309 -> 315       -0.17699
     311 -> 313        0.24318
     312 -> 314        0.64443

 Excited State   3:      Singlet-A      1.8866 eV  657.18 nm  f=0.5638  <S**2>=0.000
     310 -> 316        0.13620
     311 -> 313        0.64831
     312 -> 314       -0.24098

 Excited State   4:      Singlet-A      2.0104 eV  616.70 nm  f=0.0000  <S**2>=0.000
     311 -> 314        0.70708

 Excited State   5:      Singlet-A      2.2298 eV  556.03 nm  f=0.1252  <S**2>=0.000
     310 -> 313        0.65595
     311 -> 316       -0.21945
     311 -> 318       -0.11478

 The electronic state is 1-A.
 Alpha  occ. eigenvalues --  -46.92897 -46.90950 -19.25485 -19.25432 -19.20385
 Alpha  occ. eigenvalues --  -19.20184 -19.19782 -19.19249 -19.18650 -19.18565
 Alpha  occ. eigenvalues --  -14.42026 -14.41820 -14.41695 -14.41248 -14.40084
 Alpha  occ. eigenvalues --  -14.39083 -14.38517 -14.38054 -10.36410 -10.35523
 Alpha  occ. eigenvalues --  -10.33938 -10.32997 -10.31799 -10.31036 -10.30324
 Alpha  occ. eigenvalues --  -10.29780 -10.29404 -10.29121 -10.28947 -10.28636
 Alpha  occ. eigenvalues --  -10.28594 -10.28450 -10.28227 -10.28212 -10.28184
 Alpha  occ. eigenvalues --  -10.28034 -10.27957 -10.27685 -10.27569 -10.26987
 Alpha  occ. eigenvalues --  -10.26974 -10.26938 -10.26935 -10.26532 -10.26472
 Alpha  occ. eigenvalues --  -10.26253 -10.26183 -10.26138 -10.26135 -10.26100
 Alpha  occ. eigenvalues --  -10.25984 -10.25631 -10.25628 -10.25570 -10.25539
 Alpha  occ. eigenvalues --  -10.25533 -10.25510 -10.25469 -10.25425 -10.25360
 Alpha  occ. eigenvalues --  -10.25238 -10.25161 -10.25022 -10.24889 -10.24655
 Alpha  occ. eigenvalues --  -10.24650 -10.24638 -10.24636 -10.24612 -10.24554
 Alpha  occ. eigenvalues --  -10.24417 -10.24367 -10.24088 -10.24072 -10.23965
 Alpha  occ. eigenvalues --  -10.23926 -10.23903 -10.23781 -10.23459 -10.23406
 Alpha  occ. eigenvalues --  -10.23341 -10.23230 -10.23192 -10.22804 -10.22193
 Alpha  occ. eigenvalues --  -10.21538  -3.14919  -3.13364  -1.87742  -1.87296
 Alpha  occ. eigenvalues --   -1.87146  -1.86191  -1.85751  -1.85603  -1.10677
 Alpha  occ. eigenvalues --   -1.10479  -1.05522  -1.05127  -1.03994  -1.03592
 Alpha  occ. eigenvalues --   -1.03002  -1.00282  -0.99810  -0.99274  -0.98949
 Alpha  occ. eigenvalues --   -0.98477  -0.98235  -0.98000  -0.97315  -0.97000
 Alpha  occ. eigenvalues --   -0.87064  -0.86336  -0.83557  -0.83389  -0.82892
 Alpha  occ. eigenvalues --   -0.82492  -0.82320  -0.82278  -0.81756  -0.81479
 Alpha  occ. eigenvalues --   -0.81136  -0.80681  -0.80583  -0.80462  -0.78778
 Alpha  occ. eigenvalues --   -0.78749  -0.78084  -0.78029  -0.77346  -0.76658
 Alpha  occ. eigenvalues --   -0.76465  -0.76428  -0.75596  -0.75295  -0.74709
 Alpha  occ. eigenvalues --   -0.74589  -0.72426  -0.72076  -0.71601  -0.71449
 Alpha  occ. eigenvalues --   -0.71173  -0.71053  -0.70203  -0.69858  -0.69700
 Alpha  occ. eigenvalues --   -0.69584  -0.67210  -0.67040  -0.66560  -0.66219
 Alpha  occ. eigenvalues --   -0.64169  -0.63591  -0.63560  -0.63171  -0.62600
 Alpha  occ. eigenvalues --   -0.62271  -0.61729  -0.61588  -0.60443  -0.60149
 Alpha  occ. eigenvalues --   -0.59998  -0.59970  -0.59396  -0.59323  -0.58977
 Alpha  occ. eigenvalues --   -0.58817  -0.56505  -0.56324  -0.54743  -0.54458
 Alpha  occ. eigenvalues --   -0.54337  -0.54252  -0.53724  -0.53679  -0.53228
 Alpha  occ. eigenvalues --   -0.53092  -0.52632  -0.52591  -0.52172  -0.51523
 Alpha  occ. eigenvalues --   -0.50937  -0.50872  -0.50362  -0.50232  -0.50009
 Alpha  occ. eigenvalues --   -0.49800  -0.48845  -0.48817  -0.48457  -0.48452
 Alpha  occ. eigenvalues --   -0.48205  -0.48133  -0.47899  -0.47875  -0.47632
 Alpha  occ. eigenvalues --   -0.47422  -0.47312  -0.47063  -0.46735  -0.46708
 Alpha  occ. eigenvalues --   -0.46282  -0.46192  -0.45918  -0.45804  -0.45586
 Alpha  occ. eigenvalues --   -0.45552  -0.45326  -0.45192  -0.45000  -0.44867
 Alpha  occ. eigenvalues --   -0.44730  -0.44650  -0.44539  -0.44379  -0.44086
 Alpha  occ. eigenvalues --   -0.43992  -0.43849  -0.43682  -0.43480  -0.43480
 Alpha  occ. eigenvalues --   -0.43369  -0.43041  -0.42950  -0.42670  -0.42600
 Alpha  occ. eigenvalues --   -0.42342  -0.42135  -0.42084  -0.41931  -0.41711
 Alpha  occ. eigenvalues --   -0.41556  -0.41368  -0.41165  -0.41151  -0.41064
 Alpha  occ. eigenvalues --   -0.40921  -0.40714  -0.40567  -0.40441  -0.40235
 Alpha  occ. eigenvalues --   -0.40173  -0.40127  -0.40034  -0.39906  -0.39681
 Alpha  occ. eigenvalues --   -0.39610  -0.39563  -0.38983  -0.38912  -0.38876
 Alpha  occ. eigenvalues --   -0.38620  -0.38543  -0.38356  -0.38337  -0.38248
 Alpha  occ. eigenvalues --   -0.37962  -0.37896  -0.37669  -0.37622  -0.37606
 Alpha  occ. eigenvalues --   -0.37486  -0.37389  -0.37277  -0.37189  -0.37005
 Alpha  occ. eigenvalues --   -0.36963  -0.36830  -0.36652  -0.36580  -0.36194
 Alpha  occ. eigenvalues --   -0.35983  -0.35951  -0.35655  -0.35484  -0.35449
 Alpha  occ. eigenvalues --   -0.35194  -0.35164  -0.35006  -0.34481  -0.34277
 Alpha  occ. eigenvalues --   -0.34085  -0.33644  -0.33139  -0.32792  -0.32559
 Alpha  occ. eigenvalues --   -0.32401  -0.31979  -0.31654  -0.31523  -0.30596
 Alpha  occ. eigenvalues --   -0.30444  -0.30325  -0.29766  -0.29418  -0.29372
 Alpha  occ. eigenvalues --   -0.29142  -0.28802  -0.27834  -0.27326  -0.26944
 Alpha  occ. eigenvalues --   -0.26877  -0.26498  -0.26372  -0.25932  -0.25529
 Alpha  occ. eigenvalues --   -0.25402  -0.25168  -0.25026  -0.21070  -0.20972
 Alpha  occ. eigenvalues --   -0.19046  -0.18751
 Alpha virt. eigenvalues --   -0.11197  -0.10968  -0.05704  -0.05574  -0.04430
 Alpha virt. eigenvalues --   -0.04021  -0.02614  -0.01909  -0.01027   0.00204
 Alpha virt. eigenvalues --    0.00766   0.00872   0.00996   0.01152   0.01526

 Mulliken charges:
               1
     1  Mg  12.000000
     2  C    6.000000
     3  C    6.000001
     4  C    6.000001
     5  C    5.999999
     6  N    7.000000
     7  C    6.000001
     8  C    6.000000
     9  C    6.000001
    10  C    5.999998
    11  C    6.000000
    12  C    6.000000
    13  C    6.000000
    14  H    1.000000
    15  N    7.000000
    16  C    5.999998
    17  C    5.999999
    18  C    5.999999
    19  C    5.999998
    20  C    6.000000
    21  C    5.999999
    22  O    7.999999
    23  C    6.000000
    24  N    7.000000
    25  C    5.999998
    26  C    6.000001
    27  C    6.000000
    28  C    6.000002
    29  C    6.000000
    30  C    6.000000
    31  C    6.000000
    32  N    7.000000
    33  C    6.000002
    34  C    6.000001
    35  C    6.000000
    36  C    6.000001
    37  C    6.000000
    38  C    6.000001
    39  O    8.000002
    40  C    6.000000
    41  C    6.000000
    42  O    8.000000
    43  O    8.000000
    44  C    6.000000
    45  H    1.000000
    46  H    1.000000
    47  H    1.000000
    48  H    1.000000
    49  H    1.000000
    50  H    1.000000
    51  H    1.000000
    52  H    0.999999
    53  H    1.000001
    54  H    1.000000
    55  H    1.000000
    56  H    1.000000
    57  H    0.999999
    58  H    0.999999
    59  H    0.999999
    60  H    1.000000
    61  H    0.999999
    62  H    0.999999
    63  H    1.000000
    64  H    1.000000
    65  H    1.000000
    66  H    1.000000
    67  H    1.000000
    68  H    1.000000
    69  H    1.000001
    70  H    1.000000
    71  H    1.000000
    72  H    1.000000
    73  H    1.000001
    74  H    1.000001
    75  H    1.000001
    76  H    1.000001
    77  H    1.000000
    78  H    1.000000
    79  H    1.000000
    80  Mg  12.000000
    81  C    6.000002
    82  C    5.999999
    83  C    5.999999
    84  C    6.000002
    85  N    7.000001
    86  C    5.999995
    87  C    6.000002
    88  C    5.999999
    89  C    6.000004
    90  C    6.000000
    91  C    6.000001
    92  C    6.000001
    93  H    0.999999
    94  N    6.999999
    95  C    6.000004
    96  C    6.000003
    97  C    6.000002
    98  C    6.000002
    99  C    6.000000
   100  C    6.000002
   101  O    8.000004
   102  C    5.999999
   103  N    7.000001
   104  C    6.000003
   105  C    5.999999
   106  C    6.000001
   107  C    5.999996
   108  C    5.999999
   109  C    6.000000
   110  C    6.000000
   111  N    7.000000
   112  C    5.999996
   113  C    5.999996
   114  C    6.000000
   115  C    5.999996
   116  C    6.000000
   117  C    5.999998
   118  O    7.999997
   119  C    6.000000
   120  C    6.000000
   121  O    7.999999
   122  O    8.000000
   123  C    6.000000
   124  H    1.000001
   125  H    1.000001
   126  H    0.999999
   127  H    1.000000
   128  H    1.000000
   129  H    1.000000
   130  H    1.000000
   131  H    1.000002
   132  H    0.999999
   133  H    1.000000
   134  H    1.000001
   135  H    0.999999
   136  H    1.000002
   137  H    1.000002
   138  H    1.000002
   139  H    1.000001
   140  H    1.000001
   141  H    1.000002
   142  H    1.000000
   143  H    1.000000
   144  H    1.000001
   145  H    1.000000
   146  H    0.999999
   147  H    1.000000
   148  H    0.999999
   149  H    1.000000
   150  H    0.999999
   151  H    1.000000
   152  H    0.999998
   153  H    0.999998
   154  H    0.999998
   155  H    0.999999
   156  H    0.999999
   157  H    1.000000
   158  H    1.000000
 Sum of Mulliken charges = 624.00000

 Dipole moment (field-independent basis, Debye):
    X=             -0.0003    Y=              0.0005    Z=             -0.0004  Tot=              0.0007
 Quadrupole moment (field-independent basis, Debye-Ang):
   XX=              0.0047   YY=              0.0002   ZZ=             -0.0003
   XY=             -0.0164   XZ=              0.0035   YZ=             -0.0002

 Normal termination of Gaussian 16 at Thu Oct 14 17:41:46 2021.
