 Gaussian 16, Revision A.03,
 Gaussian 16:  ES64L-G16RevA.03 25-Dec-2016

 --------------------------------------------------------
 #p PBE1PBE/Def2SVP td=(nstates=5) density=(transition=1)
 --------------------------------------------------------

 --------------------------------
 TDDFT excited states in gaussian
 --------------------------------
 Symbolic Z-matrix:
 Charge =  0 Multiplicity = 1

                         Standard orientation:
 ---------------------------------------------------------------------
 Center     Atomic      Atomic             Coordinates (Angstroms)
 Number     Number       Type             X           Y           Z
 ---------------------------------------------------------------------
      1         12           0      -11.008937    0.252944   -0.806453
      2          6           0       -8.325631   -2.125747   -0.168764
      3          6           0      -13.218567   -2.302545   -0.192786
      4          6           0      -13.284429    2.536794    0.081566
      5          6           0       -8.679273    2.622208   -1.517503
      6          7           0      -10.755948   -1.938909   -0.045674
      7          6           0       -9.544421   -2.711802    0.067328
      8          6           0       -9.900311   -4.187674    0.267137
      9          6           0      -11.407635   -4.277800   -0.113252
     10          6           0      -11.886113   -2.759962   -0.146723
     11          6           0      -11.671786   -4.978135   -1.529389
     12          6           0       -9.484554   -4.825810    1.560309
     13          6           0       -9.113614   -3.887584    2.733010
     14          1           0       -8.727920   -4.307252    4.163245
     15          7           0      -13.053687    0.137435   -0.270691
     16          6           0      -13.766859   -1.020573   -0.052553
     17          6           0      -15.191758   -0.645842    0.208129
     18          6           0      -15.147327    0.733639    0.393138
     19          6           0      -13.798880    1.229716    0.128234
     20          6           0      -16.244095   -1.688513    0.344468
     21          6           0      -16.361724    1.602188    0.833064
     22          8           0      -17.398396    1.028325    1.116041
     23          6           0      -16.307832    3.073731    1.078190
     24          7           0      -10.872123    2.290726   -0.597296
     25          6           0      -12.042182    3.007011   -0.347709
     26          6           0      -11.808472    4.509682   -0.503425
     27          6           0      -10.453036    4.565151   -1.297140
     28          6           0       -9.994391    3.110024   -1.178048
     29          6           0      -12.910544    5.363531   -1.181708
     30          6           0       -9.401402    5.603997   -0.791245
     31          6           0       -9.195452    6.893774   -1.710147
     32          7           0       -8.918382    0.280768   -0.931321
     33          6           0       -8.108633    1.336758   -1.323445
     34          6           0       -6.758331    0.857938   -1.489523
     35          6           0       -6.831312   -0.441986   -0.970832
     36          6           0       -8.185522   -0.732805   -0.672808
     37          6           0       -5.587898    1.744776   -1.948463
     38          6           0       -6.093848   -1.639412   -0.707158
     39          8           0       -4.879482   -1.801743   -0.942476
     40          6           0       -7.029785   -2.863263   -0.302969
     41          6           0       -6.422961   -3.395000    0.933619
     42          8           0       -6.079771   -2.745003    1.926711
     43          8           0       -6.433180   -4.745512    0.817482
     44          6           0       -5.692471   -5.507471    1.871262
     45          1           0      -13.919381   -3.112023    0.019611
     46          1           0      -14.042741    3.271519    0.361063
     47          1           0       -7.971330    3.374837   -1.869755
     48          1           0       -9.303465   -4.584414   -0.554163
     49          1           0      -12.023083   -4.697827    0.682497
     50          1           0      -12.178058   -5.903212   -1.256531
     51          1           0      -10.722974   -5.114739   -2.048787
     52          1           0      -12.361079   -4.317763   -2.056788
     53          1           0       -8.694108   -5.531718    1.306030
     54          1           0      -10.374818   -5.411645    1.791507
     55          1           0       -9.966259   -3.214123    2.825451
     56          1           0       -8.239572   -3.294817    2.462495
     57          1           0      -16.541169   -1.675862    1.392722
     58          1           0      -15.814706   -2.644686    0.046898
     59          1           0      -17.056945   -1.473987   -0.350215
     60          1           0      -15.689274    3.436992    1.897995
     61          1           0      -17.268732    3.483454    1.388091
     62          1           0      -16.046648    3.429227    0.081540
     63          1           0      -11.721668    4.740600    0.558923
     64          1           0      -10.751318    4.743426   -2.330503
     65          1           0      -13.539046    5.904874   -0.473850
     66          1           0      -13.595741    4.710702   -1.721437
     67          1           0      -12.417973    6.019531   -1.900270
     68          1           0       -8.410202    5.186891   -0.611174
     69          1           0       -9.759894    5.874405    0.202043
     70          1           0       -9.166729    7.692685   -0.969615
     71          1           0       -9.986835    7.071642   -2.438437
     72          1           0       -8.297034    6.716690   -2.300332
     73          1           0       -4.790683    1.225377   -2.480687
     74          1           0       -5.204897    2.085761   -0.987232
     75          1           0       -5.929172    2.461731   -2.694873
     76          1           0       -7.047814   -3.586131   -1.119915
     77          1           0       -5.781383   -6.575784    1.671001
     78          1           0       -6.111877   -5.322220    2.860323
     79          1           0       -4.677752   -5.131637    1.747896
     80         12           0       10.123753    0.834097   -0.102036
     81          6           0       11.338030   -2.476447   -0.244192
     82          6           0        7.079010   -0.394326    1.076181
     83          6           0        9.401883    3.988828    0.966121
     84          6           0       13.475784    1.875259   -0.815989
     85          7           0        9.333756   -1.169633    0.312074
     86          6           0        9.997440   -2.340920    0.212420
     87          6           0        9.130794   -3.525333    0.751191
     88          6           0        7.691966   -2.831561    0.785239
     89          6           0        8.023198   -1.307329    0.684755
     90          6           0        6.641417   -3.131242   -0.308037
     91          6           0        9.679345   -3.956830    2.163683
     92          6           0        9.600185   -5.484995    2.434091
     93          1           0        9.164829   -5.897881    3.898892
     94          7           0        8.348572    1.754295    0.724370
     95          6           0        7.227522    1.047943    1.071246
     96          6           0        6.274520    1.993610    1.513628
     97          6           0        6.891257    3.278411    1.577278
     98          6           0        8.274640    3.082350    1.027965
     99          6           0        4.863869    1.665578    1.942474
    100          6           0        6.332718    4.508674    2.207139
    101          8           0        5.269449    4.501242    2.806430
    102          6           0        6.992232    5.788006    2.241443
    103          7           0       11.364456    2.658620    0.142117
    104          6           0       10.725992    3.867623    0.455655
    105          6           0       11.658751    5.021633    0.259402
    106          6           0       12.998030    4.370766   -0.249166
    107          6           0       12.629828    2.898831   -0.320308
    108          6           0       11.024361    6.014707   -0.722746
    109          6           0       14.272361    4.832571    0.553240
    110          6           0       15.379365    5.461771   -0.237105
    111          7           0       12.071887   -0.080030   -0.506905
    112          6           0       13.280002    0.491482   -0.822775
    113          6           0       14.253587   -0.547921   -1.223408
    114          6           0       13.504161   -1.718041   -0.930084
    115          6           0       12.205811   -1.380358   -0.596953
    116          6           0       15.714572   -0.404746   -1.620150
    117          6           0       13.635097   -3.144782   -0.798036
    118          8           0       14.629815   -3.870620   -0.951508
    119          6           0       12.286213   -3.729922   -0.380559
    120          6           0       11.831953   -4.759883   -1.333415
    121          8           0       11.614848   -5.870893   -1.009212
    122          8           0       11.501685   -4.262748   -2.560917
    123          6           0       10.813147   -5.289076   -3.373368
    124          1           0        6.088427   -0.746369    1.373146
    125          1           0        9.070789    4.991849    1.239791
    126          1           0       14.543514    1.995961   -1.013402
    127          1           0        9.200912   -4.346694    0.037851
    128          1           0        7.225798   -2.775557    1.768797
    129          1           0        7.132416   -3.440292   -1.231513
    130          1           0        5.938551   -2.330368   -0.537779
    131          1           0        6.078084   -3.990115    0.055226
    132          1           0        9.181842   -3.400499    2.958602
    133          1           0       10.722432   -3.640391    2.158131
    134          1           0       10.614347   -5.827861    2.228354
    135          1           0        8.945036   -5.833991    1.635610
    136          1           0        4.144697    2.483950    1.906077
    137          1           0        4.987486    1.314590    2.966631
    138          1           0        4.430040    0.752155    1.535546
    139          1           0        7.124839    6.100417    1.204836
    140          1           0        7.931957    5.732692    2.791700
    141          1           0        6.346565    6.494308    2.763399
    142          1           0       11.931454    5.461568    1.218369
    143          1           0       13.223439    4.444549   -1.313277
    144          1           0        9.959131    5.844031   -0.880367
    145          1           0       11.478720    5.950709   -1.711464
    146          1           0       10.976645    7.000746   -0.261583
    147          1           0       14.623276    3.927406    1.048871
    148          1           0       14.081893    5.640500    1.258748
    149          1           0       16.286943    4.899283   -0.019653
    150          1           0       15.570291    6.488016    0.077245
    151          1           0       15.145341    5.566489   -1.296567
    152          1           0       16.379384   -0.331036   -0.759277
    153          1           0       15.892005    0.410965   -2.322160
    154          1           0       15.906503   -1.388641   -2.048005
    155          1           0       12.403834   -4.299503    0.540415
    156          1           0       10.573112   -4.840518   -4.337711
    157          1           0        9.908919   -5.634523   -2.872422
    158          1           0       11.443629   -6.128176   -3.665454
 ---------------------------------------------------------------------

 SCF Done:  E(RPBE1PBE) =  -4067.31755054     A.U. after   16 cycles

 Excitation energies and oscillator strengths:

 Excited State   1:      Singlet-A      1.6855 eV  735.59 nm  f=0.0000  <S**2>=0.000
     312 -> 313        0.70708
 This state for optimization and/or second-order correction.
 Total Energy, E(TD-HF/TD-DFT) =  -4067.25560962
 Copying the excited state density for this state as the 1-particle RhoCI density.

 Excited State   2:      Singlet-A      1.8037 eV  687.38 nm  f=0.4418  <S**2>=0.000
     310 -> 316        0.15128
     312 -> 314        0.69144
     312 <- 314       -0.11664

 Excited State   3:      Singlet-A      1.8477 eV  671.02 nm  f=0.3182  <S**2>=0.000
     309 -> 315       -0.16743
     311 -> 313        0.68786
     311 <- 313       -0.11224

 Excited State   4:      Singlet-A      2.0019 eV  619.34 nm  f=0.0000  <S**2>=0.000
     311 -> 314        0.70707

 Excited State   5:      Singlet-A      2.2123 eV  560.44 nm  f=0.1026  <S**2>=0.000
     309 -> 313        0.65161
     311 -> 315        0.25493

 The electronic state is 1-A.
 Alpha  occ. eigenvalues --  -46.94032 -46.92680 -19.26079 -19.25567 -19.19966
 Alpha  occ. eigenvalues --  -19.19749 -19.19079 -19.18835 -19.17612 -19.17448
 Alpha  occ. eigenvalues --  -14.42263 -14.42129 -14.41963 -14.41149 -14.39419
 Alpha  occ. eigenvalues --  -14.39258 -14.38723 -14.38497 -10.36234 -10.35564
 Alpha  occ. eigenvalues --  -10.32487 -10.31680 -10.30970 -10.30515 -10.29757
 Alpha  occ. eigenvalues --  -10.29522 -10.29496 -10.29462 -10.29390 -10.29257
 Alpha  occ. eigenvalues --  -10.29009 -10.28888 -10.28738 -10.28625 -10.28392
 Alpha  occ. eigenvalues --  -10.28280 -10.28172 -10.27635 -10.27505 -10.27104
 Alpha  occ. eigenvalues --  -10.26689 -10.26688 -10.26683 -10.26485 -10.26457
 Alpha  occ. eigenvalues --  -10.26431 -10.26388 -10.26214 -10.26203 -10.26157
 Alpha  occ. eigenvalues --  -10.26136 -10.26130 -10.25951 -10.25829 -10.25824
 Alpha  occ. eigenvalues --  -10.25663 -10.25621 -10.25567 -10.25468 -10.25384
 Alpha  occ. eigenvalues --  -10.25131 -10.25103 -10.25071 -10.24946 -10.24878
 Alpha  occ. eigenvalues --  -10.24833 -10.24826 -10.24741 -10.24461 -10.24374
 Alpha  occ. eigenvalues --  -10.24338 -10.24334 -10.24247 -10.24244 -10.23978
 Alpha  occ. eigenvalues --  -10.23912 -10.23887 -10.23681 -10.23638 -10.23538
 Alpha  occ. eigenvalues --  -10.23506 -10.23055 -10.22887 -10.22562 -10.22494
 Alpha  occ. eigenvalues --  -10.22020  -3.15771  -3.14749  -1.88622  -1.88124
 Alpha  occ. eigenvalues --   -1.87986  -1.87560  -1.87146  -1.86953  -1.12576
 Alpha  occ. eigenvalues --   -1.10908  -1.05237  -1.04187  -1.03721  -1.03444
 Alpha  occ. eigenvalues --   -1.02382  -1.01628  -0.99681  -0.99573  -0.98773
 Alpha  occ. eigenvalues --   -0.98228  -0.97868  -0.97267  -0.97101  -0.94867
 Alpha  occ. eigenvalues --   -0.86776  -0.86405  -0.83643  -0.83575  -0.83220
 Alpha  occ. eigenvalues --   -0.83199  -0.82885  -0.82381  -0.82178  -0.81112
 Alpha  occ. eigenvalues --   -0.81089  -0.80901  -0.80508  -0.80027  -0.79012
 Alpha  occ. eigenvalues --   -0.78783  -0.78598  -0.78074  -0.76849  -0.76762
 Alpha  occ. eigenvalues --   -0.76588  -0.76576  -0.75349  -0.75066  -0.74759
 Alpha  occ. eigenvalues --   -0.74528  -0.72851  -0.72281  -0.72075  -0.71741
 Alpha  occ. eigenvalues --   -0.71024  -0.70850  -0.70610  -0.70352  -0.69625
 Alpha  occ. eigenvalues --   -0.69536  -0.67540  -0.67431  -0.66820  -0.66084
 Alpha  occ. eigenvalues --   -0.64016  -0.63628  -0.63499  -0.63330  -0.62246
 Alpha  occ. eigenvalues --   -0.62160  -0.61318  -0.61159  -0.60630  -0.60557
 Alpha  occ. eigenvalues --   -0.59982  -0.59798  -0.59426  -0.59263  -0.59051
 Alpha  occ. eigenvalues --   -0.58133  -0.57679  -0.56767  -0.54516  -0.54397
 Alpha  occ. eigenvalues --   -0.54103  -0.53758  -0.53683  -0.53416  -0.53334
 Alpha  occ. eigenvalues --   -0.52691  -0.52526  -0.52038  -0.51806  -0.51503
 Alpha  occ. eigenvalues --   -0.51358  -0.50845  -0.50734  -0.50456  -0.50007
 Alpha  occ. eigenvalues --   -0.49742  -0.49495  -0.49178  -0.48970  -0.48790
 Alpha  occ. eigenvalues --   -0.48314  -0.48053  -0.47835  -0.47767  -0.47645
 Alpha  occ. eigenvalues --   -0.47442  -0.47223  -0.47140  -0.46969  -0.46926
 Alpha  occ. eigenvalues --   -0.46706  -0.46482  -0.46151  -0.45918  -0.45869
 Alpha  occ. eigenvalues --   -0.45805  -0.45729  -0.45503  -0.45421  -0.45328
 Alpha  occ. eigenvalues --   -0.44588  -0.44546  -0.44371  -0.44337  -0.44049
 Alpha  occ. eigenvalues --   -0.43983  -0.43721  -0.43638  -0.43517  -0.43357
 Alpha  occ. eigenvalues --   -0.43082  -0.42999  -0.42913  -0.42808  -0.42634
 Alpha  occ. eigenvalues --   -0.42463  -0.42270  -0.42074  -0.41868  -0.41825
 Alpha  occ. eigenvalues --   -0.41563  -0.41501  -0.41413  -0.41367  -0.41253
 Alpha  occ. eigenvalues --   -0.41240  -0.41001  -0.40914  -0.40843  -0.40489
 Alpha  occ. eigenvalues --   -0.40355  -0.40219  -0.39937  -0.39764  -0.39708
 Alpha  occ. eigenvalues --   -0.39664  -0.39487  -0.39323  -0.39304  -0.38992
 Alpha  occ. eigenvalues --   -0.38817  -0.38731  -0.38671  -0.38343  -0.38273
 Alpha  occ. eigenvalues --   -0.38226  -0.38063  -0.37714  -0.37664  -0.37567
 Alpha  occ. eigenvalues --   -0.37501  -0.37365  -0.37344  -0.37067  -0.37037
 Alpha  occ. eigenvalues --   -0.36912  -0.36793  -0.36671  -0.36465  -0.35991
 Alpha  occ. eigenvalues --   -0.35953  -0.35792  -0.35754  -0.35437  -0.34897
 Alpha  occ. eigenvalues --   -0.34893  -0.34399  -0.34326  -0.34030  -0.33995
 Alpha  occ. eigenvalues --   -0.33493  -0.33387  -0.32725  -0.32410  -0.32399
 Alpha  occ. eigenvalues --   -0.32154  -0.32077  -0.31791  -0.31589  -0.31388
 Alpha  occ. eigenvalues --   -0.31274  -0.30871  -0.29659  -0.29278  -0.29188
 Alpha  occ. eigenvalues --   -0.29047  -0.28893  -0.28302  -0.27094  -0.26978
 Alpha  occ. eigenvalues --   -0.25831  -0.25823  -0.25563  -0.25399  -0.25277
 Alpha  occ. eigenvalues --   -0.24874  -0.24425  -0.24305  -0.21287  -0.21265
 Alpha  occ. eigenvalues --   -0.19085  -0.18454
 Alpha virt. eigenvalues --   -0.11619  -0.11096  -0.05598  -0.05298  -0.03741
 Alpha virt. eigenvalues --   -0.03126  -0.02012  -0.01838  -0.01400  -0.01367
 Alpha virt. eigenvalues --    0.00151   0.00738   0.01023   0.01447   0.01577

 Mulliken charges:
               1
     1  Mg  12.000000
     2  C    6.000000
     3  C    6.000000
     4  C    6.000000
     5  C    6.000000
     6  N    7.000000
     7  C    6.000000
     8  C    6.000000
     9  C    6.000000
    10  C    6.000000
    11  C    6.000000
    12  C    6.000000
    13  C    6.000000
    14  H    1.000000
    15  N    7.000000
    16  C    6.000000
    17  C    6.000000
    18  C    6.000000
    19  C    6.000000
    20  C    6.000000
    21  C    6.000000
    22  O    8.000000
    23  C    6.000000
    24  N    7.000000
    25  C    6.000000
    26  C    6.000000
    27  C    6.000000
    28  C    6.000000
    29  C    6.000000
    30  C    6.000000
    31  C    6.000000
    32  N    7.000000
    33  C    6.000000
    34  C    6.000000
    35  C    6.000000
    36  C    6.000000
    37  C    6.000000
    38  C    6.000000
    39  O    8.000000
    40  C    6.000000
    41  C    6.000000
    42  O    8.000000
    43  O    8.000000
    44  C    6.000000
    45  H    1.000000
    46  H    1.000000
    47  H    1.000000
    48  H    1.000000
    49  H    1.000000
    50  H    1.000000
    51  H    1.000000
    52  H    1.000000
    53  H    1.000000
    54  H    1.000000
    55  H    1.000000
    56  H    1.000000
    57  H    1.000000
    58  H    1.000000
    59  H    1.000000
    60  H    1.000000
    61  H    1.000000
    62  H    1.000000
    63  H    1.000000
    64  H    1.000000
    65  H    1.000000
    66  H    1.000000
    67  H    1.000000
    68  H    1.000000
    69  H    1.000000
    70  H    1.000000
    71  H    1.000000
    72  H    1.000000
    73  H    1.000000
    74  H    1.000000
    75  H    1.000000
    76  H    1.000000
    77  H    1.000000
    78  H    1.000000
    79  H    1.000000
    80  Mg  12.000000
    81  C    6.000000
    82  C    6.000000
    83  C    6.000000
    84  C    6.000000
    85  N    7.000000
    86  C    6.000000
    87  C    6.000000
    88  C    6.000000
    89  C    6.000000
    90  C    6.000000
    91  C    6.000000
    92  C    6.000000
    93  H    1.000000
    94  N    7.000000
    95  C    6.000000
    96  C    6.000000
    97  C    6.000000
    98  C    6.000000
    99  C    6.000000
   100  C    6.000000
   101  O    8.000000
   102  C    6.000000
   103  N    7.000000
   104  C    6.000000
   105  C    6.000000
   106  C    6.000000
   107  C    6.000000
   108  C    6.000000
   109  C    6.000000
   110  C    6.000000
   111  N    7.000000
   112  C    6.000000
   113  C    6.000000
   114  C    6.000000
   115  C    6.000000
   116  C    6.000000
   117  C    6.000000
   118  O    8.000000
   119  C    6.000000
   120  C    6.000000
   121  O    8.000000
   122  O    8.000000
   123  C    6.000000
   124  H    1.000000
   125  H    1.000000
   126  H    1.000000
   127  H    1.000000
   128  H    1.000000
   129  H    1.000000
   130  H    1.000000
   131  H    1.000000
   132  H    1.000000
   133  H    1.000000
   134  H    1.000000
   135  H    1.000000
   136  H    1.000000
   137  H    1.000000
   138  H    1.000000
   139  H    1.000000
   140  H    1.000000
   141  H    1.000000
   142  H    1.000000
   143  H    1.000000
   144  H    1.000000
   145  H    1.000000
   146  H    1.000000
   147  H    1.000000
   148  H    1.000000
   149  H    1.000000
   150  H    1.000000
   151  H    1.000000
   152  H    1.000000
   153  H    1.000000
   154  H    1.000000
   155  H    1.000000
   156  H    1.000000
   157  H    1.000000
   158  H    1.000000
 Sum of Mulliken charges = 624.00000

 Dipole moment (field-independent basis, Debye):
    X=              0.0000    Y=              0.0000    Z=             -0.0000  Tot=              0.0000
 Quadrupole moment (field-independent basis, Debye-Ang):
   XX=             -0.0000   YY=              0.0000   ZZ=              0.0000
   XY=             -0.0000   XZ=              0.0000   YZ=             -0.0000

 Normal termination of Gaussian 16 at Wed Oct 13 22:49:43 2021.
