 Gaussian 16, Revision A.03,
 Gaussian 16:  ES64L-G16RevA.03 25-Dec-2016

 --------------------------------------------------------
 #p PBE1PBE/Def2SVP td=(nstates=5) density=(transition=1)
 --------------------------------------------------------

 --------------------------------
 TDDFT excited states in gaussian
 --------------------------------
 Symbolic Z-matrix:
 Charge =  0 Multiplicity = 1

                         Standard orientation:
 ---------------------------------------------------------------------
 Center     Atomic      Atomic             Coordinates (Angstroms)
 Number     Number       Type             X           Y           Z
 ---------------------------------------------------------------------
      1         12           0      -20.894414   -0.652455   -0.280614
      2          6           0      -19.019737    2.350742    0.284507
      3          6           0      -23.765882    1.187594    0.229709
      4          6           0      -22.512565   -3.489019   -0.177180
      5          6           0      -17.858601   -2.304296   -0.536918
      6          7           0      -21.335667    1.535889    0.495103
      7          6           0      -20.390748    2.525812    0.512354
      8          6           0      -21.091426    3.908855    0.587460
      9          6           0      -22.633735    3.541995    0.632266
     10          6           0      -22.637693    1.978675    0.464994
     11          6           0      -23.457613    3.956530    1.923227
     12          6           0      -20.770211    4.876394   -0.582796
     13          6           0      -20.470074    6.294180   -0.248348
     14          1           0      -20.868200    6.968759    1.119726
     15          7           0      -22.918743   -1.138853    0.004008
     16          6           0      -23.993515   -0.252191    0.064802
     17          6           0      -25.238294   -1.024908    0.239526
     18          6           0      -24.872067   -2.405341    0.002255
     19          6           0      -23.391968   -2.399537   -0.058974
     20          6           0      -26.597592   -0.457434    0.516111
     21          6           0      -25.740840   -3.678566   -0.128026
     22          8           0      -25.359710   -4.757221   -0.629561
     23          6           0      -27.172828   -3.561962    0.209446
     24          7           0      -20.262056   -2.546455   -0.287395
     25          6           0      -21.176288   -3.569618   -0.164634
     26          6           0      -20.516146   -4.948337   -0.443525
     27          6           0      -19.068812   -4.492431   -0.927539
     28          6           0      -19.047976   -3.013411   -0.582583
     29          6           0      -20.485773   -6.013897    0.726915
     30          6           0      -18.727059   -4.715996   -2.392144
     31          6           0      -17.598894   -5.732307   -2.666777
     32          7           0      -18.853726   -0.105070   -0.350011
     33          6           0      -17.733714   -0.898410   -0.429527
     34          6           0      -16.524612   -0.073385   -0.308372
     35          6           0      -17.011204    1.202944   -0.087949
     36          6           0      -18.422298    1.141352   -0.118240
     37          6           0      -15.091701   -0.492539   -0.328008
     38          6           0      -16.567558    2.536404    0.106391
     39          8           0      -15.419652    3.063460    0.061149
     40          6           0      -17.791470    3.312273    0.353040
     41          6           0      -17.661695    4.093230    1.632753
     42          8           0      -17.663080    3.629930    2.721783
     43          8           0      -17.614667    5.398121    1.365329
     44          6           0      -17.187453    6.304515    2.376487
     45          1           0      -24.722092    1.690458    0.389604
     46          1           0      -22.919146   -4.502978   -0.205358
     47          1           0      -16.910450   -2.844500   -0.540805
     48          1           0      -20.757620    4.359738    1.522742
     49          1           0      -23.142273    3.972496   -0.229857
     50          1           0      -22.931470    4.603069    2.624995
     51          1           0      -23.647587    3.038063    2.480500
     52          1           0      -24.415638    4.393324    1.639643
     53          1           0      -21.587079    4.958672   -1.300726
     54          1           0      -19.894427    4.570350   -1.154296
     55          1           0      -20.986263    6.953306   -0.947005
     56          1           0      -19.396222    6.433155   -0.370257
     57          1           0      -27.010440   -0.926970    1.408703
     58          1           0      -27.218590   -0.723599   -0.339241
     59          1           0      -26.590608    0.632697    0.488982
     60          1           0      -27.240085   -3.310669    1.267995
     61          1           0      -27.577672   -4.567117    0.094214
     62          1           0      -27.709442   -2.925169   -0.493336
     63          1           0      -21.051940   -5.355805   -1.301438
     64          1           0      -18.349121   -5.051411   -0.329552
     65          1           0      -20.970976   -5.609422    1.614495
     66          1           0      -19.488330   -6.411036    0.919160
     67          1           0      -21.030940   -6.890011    0.375385
     68          1           0      -18.571807   -3.824217   -2.999538
     69          1           0      -19.609331   -5.159461   -2.852500
     70          1           0      -16.856081   -5.456189   -3.414901
     71          1           0      -18.059745   -6.573332   -3.185542
     72          1           0      -17.027250   -6.045711   -1.794264
     73          1           0      -14.950703   -1.484397   -0.758428
     74          1           0      -14.733795   -0.645099    0.690088
     75          1           0      -14.534591    0.336759   -0.763714
     76          1           0      -17.883032    3.996814   -0.489831
     77          1           0      -16.107664    6.175278    2.462771
     78          1           0      -17.577173    6.012834    3.351865
     79          1           0      -17.372255    7.338196    2.082959
     80         12           0       20.390708   -0.796345    0.329073
     81          6           0       19.436565    2.197701   -1.292732
     82          6           0       21.778857    1.106736    2.815115
     83          6           0       21.834789   -3.540209    1.492542
     84          6           0       19.355407   -2.552028   -2.516482
     85          7           0       20.724856    1.414131    0.629561
     86          6           0       20.133557    2.428109   -0.128697
     87          6           0       20.230013    3.776252    0.627246
     88          6           0       21.008061    3.398011    1.940263
     89          6           0       21.174046    1.855451    1.853998
     90          6           0       22.224790    4.236541    2.290896
     91          6           0       18.905311    4.504497    0.903056
     92          6           0       18.868484    5.966002    0.377954
     93          1           0       18.546154    7.021006    1.412867
     94          7           0       21.570975   -1.151758    1.997866
     95          6           0       22.079083   -0.259455    2.895664
     96          6           0       22.703392   -1.012815    3.957017
     97          6           0       22.858705   -2.392063    3.502927
     98          6           0       22.083411   -2.364577    2.272156
     99          6           0       23.373280   -0.305286    5.245886
    100          6           0       23.770420   -3.463782    3.921758
    101          8           0       23.827253   -4.581428    3.494100
    102          6           0       24.766291   -3.099996    5.018991
    103          7           0       20.737016   -2.743538   -0.542733
    104          6           0       21.313149   -3.717261    0.188795
    105          6           0       21.112696   -5.082388   -0.473450
    106          6           0       20.034381   -4.792384   -1.529795
    107          6           0       19.986817   -3.280728   -1.529503
    108          6           0       22.469057   -5.620335   -1.123471
    109          6           0       18.632366   -5.395215   -1.007801
    110          6           0       17.961525   -4.625028    0.162246
    111          7           0       19.447118   -0.380537   -1.519378
    112          6           0       19.092914   -1.186373   -2.533464
    113          6           0       18.481367   -0.379544   -3.555015
    114          6           0       18.551026    0.920984   -3.091978
    115          6           0       19.210901    0.908176   -1.860073
    116          6           0       17.897359   -0.804330   -4.888909
    117          6           0       18.229485    2.286690   -3.514777
    118          8           0       17.813645    2.851329   -4.487004
    119          6           0       18.716736    3.167839   -2.334287
    120          6           0       19.700732    4.110784   -2.921631
    121          8           0       20.650770    3.717353   -3.550593
    122          8           0       19.362146    5.443025   -2.747220
    123          6           0       20.136459    6.439385   -3.560516
    124          1           0       22.027931    1.707157    3.692699
    125          1           0       22.187791   -4.494601    1.889733
    126          1           0       18.816965   -3.029317   -3.337938
    127          1           0       20.899272    4.437066    0.075929
    128          1           0       20.366228    3.636084    2.788705
    129          1           0       22.567290    4.812028    1.432163
    130          1           0       23.055744    3.657709    2.694885
    131          1           0       21.876817    4.975257    3.012476
    132          1           0       18.599508    4.635393    1.941073
    133          1           0       18.069370    3.965616    0.457638
    134          1           0       18.247374    6.054707   -0.513307
    135          1           0       19.875977    6.220845    0.051619
    136          1           0       23.022201   -0.831510    6.133472
    137          1           0       23.104798    0.736277    5.418330
    138          1           0       24.458983   -0.220499    5.291763
    139          1           0       24.125277   -2.853872    5.865852
    140          1           0       25.297933   -2.231182    4.632181
    141          1           0       25.413791   -3.917839    5.336701
    142          1           0       20.694344   -5.834626    0.196138
    143          1           0       20.190113   -5.080302   -2.569720
    144          1           0       22.419220   -6.709254   -1.099681
    145          1           0       23.415479   -5.356928   -0.650027
    146          1           0       22.421127   -5.273224   -2.155497
    147          1           0       18.703022   -6.445920   -0.727187
    148          1           0       17.870075   -5.257829   -1.774827
    149          1           0       17.111154   -5.124600    0.625145
    150          1           0       17.597985   -3.677818   -0.236490
    151          1           0       18.733709   -4.419571    0.904327
    152          1           0       17.038986   -1.471304   -4.811925
    153          1           0       18.715250   -1.345584   -5.363794
    154          1           0       17.680869    0.040936   -5.542152
    155          1           0       17.818505    3.713262   -2.045364
    156          1           0       20.312367    7.183446   -2.783645
    157          1           0       19.550230    6.881192   -4.366059
    158          1           0       21.070322    6.149674   -4.041605
 ---------------------------------------------------------------------

 SCF Done:  E(RPBE1PBE) =  -4067.38105137     A.U. after   17 cycles

 Excitation energies and oscillator strengths:

 Excited State   1:      Singlet-A      1.8639 eV  665.18 nm  f=0.4507  <S**2>=0.000
     310 -> 315        0.17180
     312 -> 314        0.68805
     312 <- 314       -0.11018
 This state for optimization and/or second-order correction.
 Total Energy, E(TD-HF/TD-DFT) =  -4067.31255333
 Copying the excited state density for this state as the 1-particle RhoCI density.

 Excited State   2:      Singlet-A      1.8680 eV  663.73 nm  f=0.3423  <S**2>=0.000
     309 -> 316       -0.16666
     311 -> 313        0.68862
     311 <- 313       -0.11073

 Excited State   3:      Singlet-A      1.9170 eV  646.76 nm  f=0.0000  <S**2>=0.000
     312 -> 313        0.70711

 Excited State   4:      Singlet-A      2.0340 eV  609.55 nm  f=0.0000  <S**2>=0.000
     311 -> 314        0.70710

 Excited State   5:      Singlet-A      2.2040 eV  562.53 nm  f=0.1195  <S**2>=0.000
     310 -> 314        0.66060
     312 -> 315       -0.24065

 The electronic state is 1-A.
 Alpha  occ. eigenvalues --  -46.92922 -46.92314 -19.25756 -19.25541 -19.19769
 Alpha  occ. eigenvalues --  -19.19741 -19.19448 -19.19034 -19.18997 -19.18627
 Alpha  occ. eigenvalues --  -14.41682 -14.41542 -14.41374 -14.41168 -14.39427
 Alpha  occ. eigenvalues --  -14.39349 -14.39229 -14.38857 -10.35919 -10.35766
 Alpha  occ. eigenvalues --  -10.32306 -10.32262 -10.31587 -10.31489 -10.29269
 Alpha  occ. eigenvalues --  -10.29222 -10.29009 -10.28891 -10.28645 -10.28555
 Alpha  occ. eigenvalues --  -10.28528 -10.28500 -10.28452 -10.28265 -10.27966
 Alpha  occ. eigenvalues --  -10.27957 -10.27698 -10.27591 -10.27486 -10.27413
 Alpha  occ. eigenvalues --  -10.26991 -10.26793 -10.26751 -10.26728 -10.26519
 Alpha  occ. eigenvalues --  -10.26143 -10.26099 -10.26087 -10.25868 -10.25838
 Alpha  occ. eigenvalues --  -10.25832 -10.25816 -10.25812 -10.25731 -10.25667
 Alpha  occ. eigenvalues --  -10.25537 -10.25430 -10.25373 -10.25321 -10.25298
 Alpha  occ. eigenvalues --  -10.25120 -10.25005 -10.24877 -10.24747 -10.24703
 Alpha  occ. eigenvalues --  -10.24613 -10.24306 -10.24300 -10.24207 -10.24193
 Alpha  occ. eigenvalues --  -10.24098 -10.23930 -10.23819 -10.23698 -10.23555
 Alpha  occ. eigenvalues --  -10.23482 -10.23454 -10.23446 -10.23426 -10.23026
 Alpha  occ. eigenvalues --  -10.23020 -10.22930 -10.22874 -10.22696 -10.22604
 Alpha  occ. eigenvalues --  -10.22356  -3.14910  -3.14471  -1.87732  -1.87297
 Alpha  occ. eigenvalues --   -1.87294  -1.87125  -1.86859  -1.86692  -1.13318
 Alpha  occ. eigenvalues --   -1.10386  -1.06388  -1.05835  -1.04435  -1.03229
 Alpha  occ. eigenvalues --   -1.02551  -1.02409  -0.99807  -0.99351  -0.98957
 Alpha  occ. eigenvalues --   -0.98526  -0.98373  -0.97249  -0.96601  -0.96545
 Alpha  occ. eigenvalues --   -0.87791  -0.86682  -0.83482  -0.83174  -0.83063
 Alpha  occ. eigenvalues --   -0.82745  -0.82705  -0.82569  -0.82073  -0.81906
 Alpha  occ. eigenvalues --   -0.81303  -0.80849  -0.80638  -0.80600  -0.78850
 Alpha  occ. eigenvalues --   -0.78702  -0.77812  -0.77749  -0.76880  -0.76751
 Alpha  occ. eigenvalues --   -0.76357  -0.76041  -0.75476  -0.75175  -0.74863
 Alpha  occ. eigenvalues --   -0.74416  -0.72692  -0.72663  -0.72010  -0.71690
 Alpha  occ. eigenvalues --   -0.71466  -0.71034  -0.70614  -0.70439  -0.69621
 Alpha  occ. eigenvalues --   -0.69578  -0.67555  -0.67542  -0.66221  -0.65980
 Alpha  occ. eigenvalues --   -0.63742  -0.63683  -0.63623  -0.63402  -0.62501
 Alpha  occ. eigenvalues --   -0.61878  -0.61620  -0.60774  -0.60372  -0.59899
 Alpha  occ. eigenvalues --   -0.59828  -0.59637  -0.59453  -0.59256  -0.59047
 Alpha  occ. eigenvalues --   -0.58976  -0.57525  -0.56826  -0.55008  -0.54748
 Alpha  occ. eigenvalues --   -0.54490  -0.54260  -0.53921  -0.53844  -0.53499
 Alpha  occ. eigenvalues --   -0.53345  -0.52808  -0.52604  -0.52378  -0.52147
 Alpha  occ. eigenvalues --   -0.50888  -0.50748  -0.50605  -0.49887  -0.49698
 Alpha  occ. eigenvalues --   -0.49656  -0.49512  -0.49212  -0.48653  -0.48336
 Alpha  occ. eigenvalues --   -0.48005  -0.47990  -0.47765  -0.47646  -0.47550
 Alpha  occ. eigenvalues --   -0.47321  -0.47080  -0.46978  -0.46926  -0.46688
 Alpha  occ. eigenvalues --   -0.46534  -0.46215  -0.46140  -0.46114  -0.45947
 Alpha  occ. eigenvalues --   -0.45833  -0.45709  -0.45317  -0.44761  -0.44634
 Alpha  occ. eigenvalues --   -0.44620  -0.44387  -0.44378  -0.44056  -0.44021
 Alpha  occ. eigenvalues --   -0.43909  -0.43890  -0.43721  -0.43643  -0.43415
 Alpha  occ. eigenvalues --   -0.43270  -0.43055  -0.42988  -0.42945  -0.42926
 Alpha  occ. eigenvalues --   -0.42550  -0.42415  -0.42252  -0.42112  -0.42029
 Alpha  occ. eigenvalues --   -0.41653  -0.41559  -0.41510  -0.41089  -0.40941
 Alpha  occ. eigenvalues --   -0.40907  -0.40887  -0.40767  -0.40628  -0.40587
 Alpha  occ. eigenvalues --   -0.40458  -0.40302  -0.40078  -0.40076  -0.39798
 Alpha  occ. eigenvalues --   -0.39552  -0.39306  -0.39285  -0.39104  -0.38904
 Alpha  occ. eigenvalues --   -0.38491  -0.38471  -0.38326  -0.38148  -0.38090
 Alpha  occ. eigenvalues --   -0.38019  -0.37797  -0.37703  -0.37614  -0.37434
 Alpha  occ. eigenvalues --   -0.37329  -0.37132  -0.36969  -0.36858  -0.36857
 Alpha  occ. eigenvalues --   -0.36611  -0.36515  -0.36309  -0.36306  -0.36287
 Alpha  occ. eigenvalues --   -0.36135  -0.35834  -0.35726  -0.35229  -0.35203
 Alpha  occ. eigenvalues --   -0.34966  -0.34664  -0.34647  -0.33985  -0.33946
 Alpha  occ. eigenvalues --   -0.33288  -0.33210  -0.33041  -0.32878  -0.32810
 Alpha  occ. eigenvalues --   -0.32091  -0.32002  -0.31382  -0.31347  -0.31253
 Alpha  occ. eigenvalues --   -0.31183  -0.30907  -0.29587  -0.29495  -0.29261
 Alpha  occ. eigenvalues --   -0.29107  -0.28735  -0.28504  -0.27230  -0.27103
 Alpha  occ. eigenvalues --   -0.26140  -0.26136  -0.26036  -0.25987  -0.25741
 Alpha  occ. eigenvalues --   -0.25686  -0.25331  -0.25107  -0.21120  -0.21017
 Alpha  occ. eigenvalues --   -0.19183  -0.18940
 Alpha virt. eigenvalues --   -0.11579  -0.11384  -0.05055  -0.04990  -0.04366
 Alpha virt. eigenvalues --   -0.03678  -0.02397  -0.01923  -0.01115  -0.00521
 Alpha virt. eigenvalues --    0.00824   0.01166   0.01171   0.01649   0.01727

 Mulliken charges:
               1
     1  Mg  11.999878
     2  C    6.019516
     3  C    5.996633
     4  C    5.973055
     5  C    6.003157
     6  N    7.006125
     7  C    5.971468
     8  C    6.009484
     9  C    5.994215
    10  C    6.024769
    11  C    5.997869
    12  C    6.002171
    13  C    6.000947
    14  H    0.995116
    15  N    6.996368
    16  C    6.039392
    17  C    6.019437
    18  C    6.013331
    19  C    6.032868
    20  C    5.997432
    21  C    6.014774
    22  O    8.029178
    23  C    5.992753
    24  N    6.992789
    25  C    6.035799
    26  C    5.988084
    27  C    6.008171
    28  C    5.972544
    29  C    6.000903
    30  C    6.008227
    31  C    6.001268
    32  N    7.002238
    33  C    5.969620
    34  C    5.965684
    35  C    6.000772
    36  C    5.970241
    37  C    6.002411
    38  C    5.982815
    39  O    7.970340
    40  C    6.005121
    41  C    5.994617
    42  O    7.995105
    43  O    7.998302
    44  C    6.001324
    45  H    1.009878
    46  H    1.004859
    47  H    0.988053
    48  H    1.000566
    49  H    1.001396
    50  H    1.011408
    51  H    0.996114
    52  H    1.000820
    53  H    0.991740
    54  H    1.006977
    55  H    0.996659
    56  H    1.004905
    57  H    1.016942
    58  H    1.017242
    59  H    1.016292
    60  H    1.007472
    61  H    1.014229
    62  H    1.007051
    63  H    0.999030
    64  H    0.998256
    65  H    0.997022
    66  H    1.009060
    67  H    0.999087
    68  H    1.001712
    69  H    0.986795
    70  H    1.000246
    71  H    0.993702
    72  H    0.999426
    73  H    0.982395
    74  H    0.978327
    75  H    0.985529
    76  H    0.990237
    77  H    1.000038
    78  H    0.995351
    79  H    0.994871
    80  Mg  12.000125
    81  C    5.996996
    82  C    6.000788
    83  C    6.002375
    84  C    5.999700
    85  N    6.998903
    86  C    6.004168
    87  C    5.998381
    88  C    6.001329
    89  C    5.996645
    90  C    6.000364
    91  C    5.999988
    92  C    5.999642
    93  H    1.000991
    94  N    7.000379
    95  C    5.995556
    96  C    5.996995
    97  C    5.997380
    98  C    5.996727
    99  C    6.000168
   100  C    5.998687
   101  O    7.996038
   102  C    6.000290
   103  N    7.000683
   104  C    5.995573
   105  C    6.001256
   106  C    5.999116
   107  C    6.003594
   108  C    6.000676
   109  C    5.999320
   110  C    5.999785
   111  N    6.999374
   112  C    6.004438
   113  C    6.004187
   114  C    5.999761
   115  C    6.005052
   116  C    6.000108
   117  C    6.002034
   118  O    8.003370
   119  C    6.000147
   120  C    6.000917
   121  O    8.000165
   122  O    8.000329
   123  C    5.999707
   124  H    0.998566
   125  H    0.999300
   126  H    1.001497
   127  H    1.000181
   128  H    0.999694
   129  H    0.998617
   130  H    1.000753
   131  H    0.999262
   132  H    1.001028
   133  H    0.999329
   134  H    0.999476
   135  H    1.000175
   136  H    0.997904
   137  H    0.997705
   138  H    0.997456
   139  H    0.999206
   140  H    0.999348
   141  H    0.997976
   142  H    0.999948
   143  H    0.999886
   144  H    0.999484
   145  H    1.000775
   146  H    0.998435
   147  H    1.001352
   148  H    0.999704
   149  H    1.000633
   150  H    0.998663
   151  H    1.002232
   152  H    1.002665
   153  H    1.002169
   154  H    1.001791
   155  H    1.001100
   156  H    1.000761
   157  H    1.000339
   158  H    1.000381
 Sum of Mulliken charges = 624.00000

 Dipole moment (field-independent basis, Debye):
    X=            -11.0858    Y=             -2.0692    Z=             -0.5952  Tot=             11.2930
 Quadrupole moment (field-independent basis, Debye-Ang):
   XX=            402.0896   YY=              0.6688   ZZ=             -1.3106
   XY=             61.3964   XZ=            -35.3095   YZ=             -1.1164

 Normal termination of Gaussian 16 at Fri Oct 15 11:04:02 2021.
