 Gaussian 16, Revision A.03,
 Gaussian 16:  ES64L-G16RevA.03 25-Dec-2016

 --------------------------------------------------------
 #p PBE1PBE/Def2SVP td=(nstates=5) density=(transition=1)
 --------------------------------------------------------

 --------------------------------
 TDDFT excited states in gaussian
 --------------------------------
 Symbolic Z-matrix:
 Charge =  0 Multiplicity = 1

                         Standard orientation:
 ---------------------------------------------------------------------
 Center     Atomic      Atomic             Coordinates (Angstroms)
 Number     Number       Type             X           Y           Z
 ---------------------------------------------------------------------
      1         12           0       16.330857    0.594317   -0.116916
      2          6           0       15.258728   -2.289546    1.599701
      3          6           0       13.827917    2.349924    1.360863
      4          6           0       17.329997    3.303082   -1.878806
      5          6           0       18.561407   -1.377786   -1.904092
      6          7           0       14.692121    0.081947    1.215880
      7          6           0       14.514212   -1.132500    1.884185
      8          6           0       13.443281   -0.976778    2.921697
      9          6           0       12.723217    0.314633    2.466134
     10          6           0       13.835322    0.974788    1.610911
     11          6           0       11.427985    0.154404    1.609110
     12          6           0       13.937593   -0.911899    4.415819
     13          6           0       13.177856   -1.790533    5.357948
     14          1           0       12.766267   -1.163363    6.703027
     15          7           0       15.737374    2.524009   -0.145518
     16          6           0       14.715937    3.111072    0.619708
     17          6           0       14.658652    4.495621    0.367329
     18          6           0       15.709835    4.836226   -0.608032
     19          6           0       16.307561    3.565023   -0.901823
     20          6           0       13.611978    5.439193    0.883536
     21          6           0       16.112321    6.197040   -1.325723
     22          8           0       17.045054    6.241805   -2.092343
     23          6           0       15.401203    7.500190   -0.990044
     24          7           0       17.674267    0.887713   -1.752346
     25          6           0       17.882452    2.112189   -2.301723
     26          6           0       18.935144    2.005650   -3.506236
     27          6           0       19.553428    0.552707   -3.309272
     28          6           0       18.532665   -0.043606   -2.249057
     29          6           0       18.365606    2.202466   -4.938370
     30          6           0       21.035714    0.546905   -2.791155
     31          6           0       21.902603   -0.269774   -3.654424
     32          7           0       16.795336   -1.420608   -0.200134
     33          6           0       17.810448   -2.065655   -0.905004
     34          6           0       17.843665   -3.457959   -0.548574
     35          6           0       16.850363   -3.590655    0.400171
     36          6           0       16.272026   -2.377770    0.605124
     37          6           0       18.896823   -4.441219   -1.122692
     38          6           0       16.159014   -4.534934    1.258599
     39          8           0       16.279636   -5.739777    1.291442
     40          6           0       15.049912   -3.706880    2.078769
     41          6           0       13.718167   -4.263113    1.777234
     42          8           0       13.223130   -4.342171    0.622337
     43          8           0       13.160421   -4.699030    2.943302
     44          6           0       12.004545   -5.617039    2.763777
     45          1           0       12.976503    2.838152    1.839515
     46          1           0       17.701710    4.120026   -2.500539
     47          1           0       19.215657   -1.994586   -2.522930
     48          1           0       12.659865   -1.733703    2.867927
     49          1           0       12.418502    0.957509    3.292122
     50          1           0       10.832479   -0.722274    1.867217
     51          1           0       11.741978    0.121293    0.565519
     52          1           0       10.760470    1.015590    1.593854
     53          1           0       13.877284    0.142283    4.685638
     54          1           0       15.002116   -1.133941    4.496074
     55          1           0       13.875837   -2.619566    5.475746
     56          1           0       12.226079   -2.071865    4.907498
     57          1           0       13.938977    6.126718    1.663898
     58          1           0       12.828908    4.866181    1.378446
     59          1           0       13.092950    6.077693    0.169177
     60          1           0       15.962014    8.279531   -1.504554
     61          1           0       15.273059    7.622993    0.085807
     62          1           0       14.344692    7.419044   -1.247255
     63          1           0       19.660048    2.816913   -3.437443
     64          1           0       19.472454    0.015993   -4.255688
     65          1           0       17.284600    2.320910   -5.019490
     66          1           0       18.605413    1.378553   -5.610963
     67          1           0       18.838675    3.098681   -5.340631
     68          1           0       21.055843    0.080943   -1.805272
     69          1           0       21.506840    1.528807   -2.751336
     70          1           0       22.447434    0.394710   -4.325553
     71          1           0       21.466221   -1.094062   -4.217425
     72          1           0       22.601836   -0.831123   -3.034600
     73          1           0       19.716833   -3.867148   -1.554774
     74          1           0       18.436668   -5.185189   -1.774585
     75          1           0       19.300759   -4.938679   -0.241735
     76          1           0       15.232886   -3.744875    3.152930
     77          1           0       11.697260   -6.029995    3.724439
     78          1           0       12.407077   -6.469059    2.215504
     79          1           0       11.245428   -5.061034    2.212884
     80         12           0      -16.121167    0.466622    0.306835
     81          6           0      -15.454828   -2.685724   -0.828317
     82          6           0      -12.733801    0.627917    1.384961
     83          6           0      -16.622500    3.712496    1.080709
     84          6           0      -19.044087    0.498717   -1.588592
     85          7           0      -14.136456   -0.816123   -0.075680
     86          6           0      -14.228245   -2.148219   -0.347364
     87          6           0      -12.864393   -2.777592   -0.278484
     88          6           0      -11.955714   -1.676103    0.421923
     89          6           0      -12.969397   -0.507199    0.632400
     90          6           0      -10.992964   -2.163554    1.442230
     91          6           0      -12.226284   -3.442998   -1.588230
     92          6           0      -12.573886   -2.854361   -2.923388
     93          1           0      -11.420839   -2.572629   -3.876490
     94          7           0      -14.928259    1.864229    1.328166
     95          6           0      -13.624755    1.750355    1.700545
     96          6           0      -13.138469    2.940693    2.333194
     97          6           0      -14.329082    3.835737    2.358527
     98          6           0      -15.373154    3.144829    1.570619
     99          6           0      -11.815322    3.207052    2.873852
    100          6           0      -14.489736    5.191153    3.031871
    101          8           0      -13.558491    5.740762    3.503478
    102          6           0      -15.745738    6.015456    3.093547
    103          7           0      -17.527392    1.905311   -0.285284
    104          6           0      -17.598226    3.097540    0.326207
    105          6           0      -18.759359    4.010342   -0.333757
    106          6           0      -19.706261    2.830605   -0.873250
    107          6           0      -18.688615    1.718516   -0.963997
    108          6           0      -19.469689    4.977121    0.617798
    109          6           0      -20.475620    3.218640   -2.148850
    110          6           0      -21.980776    2.952217   -2.268686
    111          7           0      -17.024286   -0.783133   -1.049926
    112          6           0      -18.232397   -0.689675   -1.729639
    113          6           0      -18.559256   -1.900322   -2.377004
    114          6           0      -17.538878   -2.770571   -2.030510
    115          6           0      -16.603653   -2.047962   -1.208012
    116          6           0      -19.781177   -2.209242   -3.185683
    117          6           0      -17.006067   -4.068298   -2.074077
    118          8           0      -17.468099   -5.041859   -2.665670
    119          6           0      -15.574756   -4.049426   -1.465923
    120          6           0      -15.603192   -5.209761   -0.481990
    121          8           0      -14.756712   -6.128233   -0.456392
    122          8           0      -16.614404   -4.963738    0.416624
    123          6           0      -16.775203   -5.758670    1.658681
    124          1           0      -11.659309    0.659297    1.576827
    125          1           0      -16.689447    4.799849    1.154167
    126          1           0      -19.996782    0.494433   -2.121593
    127          1           0      -12.928584   -3.667246    0.349080
    128          1           0      -11.329023   -1.262565   -0.367705
    129          1           0      -11.019363   -1.593692    2.370950
    130          1           0       -9.986381   -2.275966    1.039390
    131          1           0      -11.284394   -3.164342    1.761106
    132          1           0      -12.483928   -4.492554   -1.730667
    133          1           0      -11.144599   -3.305984   -1.572044
    134          1           0      -13.292481   -2.036179   -2.888851
    135          1           0      -13.064889   -3.642598   -3.495039
    136          1           0      -11.388273    2.269952    3.229659
    137          1           0      -11.804165    3.931373    3.687434
    138          1           0      -11.214328    3.594132    2.050215
    139          1           0      -16.420211    5.159166    3.116447
    140          1           0      -15.904918    6.614998    2.197815
    141          1           0      -15.868437    6.673265    3.954130
    142          1           0      -18.297734    4.494774   -1.194716
    143          1           0      -20.462243    2.420248   -0.204229
    144          1           0      -20.456230    4.557008    0.815502
    145          1           0      -19.392892    5.998935    0.247323
    146          1           0      -18.986243    5.052686    1.591341
    147          1           0      -19.983908    2.704036   -2.974812
    148          1           0      -20.261275    4.266390   -2.360039
    149          1           0      -22.629934    3.763034   -2.599594
    150          1           0      -22.402124    2.483056   -1.378647
    151          1           0      -22.000929    2.100800   -2.948220
    152          1           0      -20.136016   -3.236724   -3.101694
    153          1           0      -19.561835   -2.001332   -4.233204
    154          1           0      -20.652774   -1.623545   -2.890576
    155          1           0      -14.943523   -4.226335   -2.335903
    156          1           0      -17.074619   -5.148612    2.510723
    157          1           0      -15.820875   -6.237035    1.879558
    158          1           0      -17.480181   -6.587972    1.701129
 ---------------------------------------------------------------------

 SCF Done:  E(RPBE1PBE) =  -4067.34723154     A.U. after   16 cycles

 Excitation energies and oscillator strengths:

 Excited State   1:      Singlet-A      1.7944 eV  690.97 nm  f=0.3663  <S**2>=0.000
     309 -> 315       -0.16551
     311 -> 313        0.69588
     311 <- 313       -0.11766
 This state for optimization and/or second-order correction.
 Total Energy, E(TD-HF/TD-DFT) =  -4067.28128992
 Copying the excited state density for this state as the 1-particle RhoCI density.

 Excited State   2:      Singlet-A      1.7997 eV  688.93 nm  f=0.0000  <S**2>=0.000
     312 -> 313        0.70710

 Excited State   3:      Singlet-A      1.8995 eV  652.72 nm  f=0.3794  <S**2>=0.000
     310 -> 316        0.17454
     312 -> 314        0.69175
     312 <- 314       -0.10893

 Excited State   4:      Singlet-A      2.0603 eV  601.76 nm  f=0.0000  <S**2>=0.000
     311 -> 314        0.70710

 Excited State   5:      Singlet-A      2.1559 eV  575.10 nm  f=0.1304  <S**2>=0.000
     308 -> 313       -0.10009
     309 -> 313        0.65394
     311 -> 315        0.23178

 The electronic state is 1-A.
 Alpha  occ. eigenvalues --  -46.93379 -46.90601 -19.26791 -19.26303 -19.20526
 Alpha  occ. eigenvalues --  -19.19970 -19.19770 -19.19360 -19.18540 -19.17650
 Alpha  occ. eigenvalues --  -14.42142 -14.41535 -14.41484 -14.41053 -14.39859
 Alpha  occ. eigenvalues --  -14.39250 -14.38942 -14.38309 -10.37460 -10.36441
 Alpha  occ. eigenvalues --  -10.33375 -10.32288 -10.31278 -10.30946 -10.29963
 Alpha  occ. eigenvalues --  -10.29685 -10.29377 -10.29229 -10.28921 -10.28867
 Alpha  occ. eigenvalues --  -10.28808 -10.28682 -10.28290 -10.28264 -10.28260
 Alpha  occ. eigenvalues --  -10.28206 -10.28178 -10.28156 -10.27407 -10.27006
 Alpha  occ. eigenvalues --  -10.26889 -10.26797 -10.26409 -10.26265 -10.26262
 Alpha  occ. eigenvalues --  -10.26146 -10.26134 -10.25983 -10.25924 -10.25840
 Alpha  occ. eigenvalues --  -10.25836 -10.25808 -10.25766 -10.25715 -10.25571
 Alpha  occ. eigenvalues --  -10.25511 -10.25511 -10.25463 -10.25433 -10.25421
 Alpha  occ. eigenvalues --  -10.25315 -10.25279 -10.25169 -10.25037 -10.24779
 Alpha  occ. eigenvalues --  -10.24506 -10.24437 -10.24422 -10.24334 -10.24084
 Alpha  occ. eigenvalues --  -10.24075 -10.24070 -10.23916 -10.23861 -10.23678
 Alpha  occ. eigenvalues --  -10.23668 -10.23590 -10.23508 -10.23439 -10.23347
 Alpha  occ. eigenvalues --  -10.23005 -10.22796 -10.22742 -10.22654 -10.22183
 Alpha  occ. eigenvalues --  -10.22090  -3.15431  -3.12903  -1.88227  -1.87842
 Alpha  occ. eigenvalues --   -1.87629  -1.85750  -1.85266  -1.85153  -1.10522
 Alpha  occ. eigenvalues --   -1.10349  -1.06416  -1.06337  -1.05171  -1.03934
 Alpha  occ. eigenvalues --   -1.02005  -1.01122  -0.99780  -0.99508  -0.98967
 Alpha  occ. eigenvalues --   -0.98105  -0.97660  -0.97192  -0.96941  -0.95973
 Alpha  occ. eigenvalues --   -0.87963  -0.86982  -0.84137  -0.83448  -0.83035
 Alpha  occ. eigenvalues --   -0.82927  -0.82770  -0.82291  -0.82207  -0.81607
 Alpha  occ. eigenvalues --   -0.81363  -0.80643  -0.80391  -0.80213  -0.78899
 Alpha  occ. eigenvalues --   -0.78544  -0.78254  -0.78111  -0.77409  -0.77178
 Alpha  occ. eigenvalues --   -0.76455  -0.76211  -0.75493  -0.75342  -0.74996
 Alpha  occ. eigenvalues --   -0.74904  -0.72823  -0.72469  -0.72146  -0.71634
 Alpha  occ. eigenvalues --   -0.71418  -0.71094  -0.70984  -0.70038  -0.69904
 Alpha  occ. eigenvalues --   -0.69200  -0.68096  -0.67350  -0.66244  -0.65385
 Alpha  occ. eigenvalues --   -0.64398  -0.63859  -0.63042  -0.62749  -0.62476
 Alpha  occ. eigenvalues --   -0.61957  -0.61202  -0.60888  -0.60689  -0.60122
 Alpha  occ. eigenvalues --   -0.59939  -0.59592  -0.59267  -0.59078  -0.58866
 Alpha  occ. eigenvalues --   -0.58590  -0.58139  -0.56534  -0.54872  -0.54824
 Alpha  occ. eigenvalues --   -0.54597  -0.54036  -0.53839  -0.53551  -0.52715
 Alpha  occ. eigenvalues --   -0.52653  -0.52402  -0.52089  -0.52013  -0.51871
 Alpha  occ. eigenvalues --   -0.51173  -0.50674  -0.50395  -0.50262  -0.50030
 Alpha  occ. eigenvalues --   -0.49903  -0.49683  -0.49477  -0.49005  -0.48530
 Alpha  occ. eigenvalues --   -0.48402  -0.48043  -0.47985  -0.47974  -0.47756
 Alpha  occ. eigenvalues --   -0.47296  -0.47169  -0.47098  -0.46516  -0.46434
 Alpha  occ. eigenvalues --   -0.46433  -0.46421  -0.46411  -0.46033  -0.45849
 Alpha  occ. eigenvalues --   -0.45757  -0.45688  -0.45456  -0.45402  -0.45207
 Alpha  occ. eigenvalues --   -0.44989  -0.44665  -0.44658  -0.44347  -0.44343
 Alpha  occ. eigenvalues --   -0.44171  -0.44034  -0.43988  -0.43870  -0.43667
 Alpha  occ. eigenvalues --   -0.43546  -0.43350  -0.42981  -0.42650  -0.42513
 Alpha  occ. eigenvalues --   -0.42396  -0.42351  -0.42037  -0.41959  -0.41931
 Alpha  occ. eigenvalues --   -0.41864  -0.41705  -0.41421  -0.41319  -0.41212
 Alpha  occ. eigenvalues --   -0.41159  -0.40959  -0.40790  -0.40559  -0.40497
 Alpha  occ. eigenvalues --   -0.40318  -0.40175  -0.40165  -0.40089  -0.39837
 Alpha  occ. eigenvalues --   -0.39787  -0.39590  -0.39488  -0.39443  -0.39210
 Alpha  occ. eigenvalues --   -0.39131  -0.39004  -0.38825  -0.38359  -0.38259
 Alpha  occ. eigenvalues --   -0.38156  -0.37984  -0.37847  -0.37633  -0.37538
 Alpha  occ. eigenvalues --   -0.37493  -0.37443  -0.37129  -0.37016  -0.36930
 Alpha  occ. eigenvalues --   -0.36792  -0.36754  -0.36712  -0.36571  -0.36440
 Alpha  occ. eigenvalues --   -0.36229  -0.36101  -0.35846  -0.35503  -0.35330
 Alpha  occ. eigenvalues --   -0.35158  -0.34882  -0.34071  -0.33968  -0.33769
 Alpha  occ. eigenvalues --   -0.33706  -0.33336  -0.33080  -0.32830  -0.32826
 Alpha  occ. eigenvalues --   -0.32354  -0.31857  -0.31730  -0.31387  -0.31173
 Alpha  occ. eigenvalues --   -0.31046  -0.30693  -0.29836  -0.29473  -0.29117
 Alpha  occ. eigenvalues --   -0.29007  -0.28612  -0.28571  -0.27184  -0.26927
 Alpha  occ. eigenvalues --   -0.26460  -0.26357  -0.25883  -0.25619  -0.25296
 Alpha  occ. eigenvalues --   -0.25129  -0.24974  -0.23776  -0.21440  -0.20911
 Alpha  occ. eigenvalues --   -0.19385  -0.19105
 Alpha virt. eigenvalues --   -0.12082  -0.11398  -0.05510  -0.04823  -0.03915
 Alpha virt. eigenvalues --   -0.03535  -0.01917  -0.01820  -0.01672  -0.00174
 Alpha virt. eigenvalues --   -0.00072   0.00586   0.00684   0.01457   0.01795

 Mulliken charges:
               1
     1  Mg  11.999980
     2  C    6.000367
     3  C    6.000197
     4  C    5.999642
     5  C    5.999841
     6  N    7.000231
     7  C    5.999637
     8  C    6.000074
     9  C    5.999906
    10  C    6.000145
    11  C    5.999932
    12  C    6.000037
    13  C    5.999940
    14  H    1.000119
    15  N    6.999972
    16  C    6.000191
    17  C    6.000327
    18  C    6.000127
    19  C    6.000320
    20  C    5.999798
    21  C    6.000105
    22  O    8.000183
    23  C    5.999967
    24  N    6.999810
    25  C    6.000342
    26  C    5.999954
    27  C    6.000030
    28  C    5.999861
    29  C    6.000031
    30  C    6.000062
    31  C    6.000051
    32  N    6.999994
    33  C    5.999773
    34  C    5.999587
    35  C    6.000040
    36  C    5.999617
    37  C    6.000048
    38  C    5.999802
    39  O    7.999665
    40  C    6.000001
    41  C    5.999968
    42  O    7.999944
    43  O    8.000002
    44  C    6.000020
    45  H    1.000336
    46  H    0.999990
    47  H    0.999762
    48  H    1.000008
    49  H    1.000162
    50  H    1.000203
    51  H    0.999963
    52  H    1.000200
    53  H    0.999943
    54  H    0.999962
    55  H    0.999951
    56  H    1.000053
    57  H    1.000286
    58  H    1.000289
    59  H    1.000310
    60  H    1.000088
    61  H    1.000094
    62  H    1.000144
    63  H    0.999941
    64  H    0.999909
    65  H    0.999988
    66  H    0.999980
    67  H    0.999949
    68  H    1.000023
    69  H    0.999868
    70  H    0.999883
    71  H    0.999969
    72  H    0.999940
    73  H    0.999824
    74  H    0.999722
    75  H    0.999780
    76  H    0.999935
    77  H    0.999978
    78  H    0.999900
    79  H    1.000026
    80  Mg  11.997505
    81  C    5.999105
    82  C    6.014212
    83  C    6.017156
    84  C    5.987209
    85  N    7.004829
    86  C    6.025061
    87  C    5.990567
    88  C    6.013288
    89  C    5.964890
    90  C    6.001277
    91  C    5.999491
    92  C    5.997290
    93  H    1.010141
    94  N    7.003867
    95  C    5.957869
    96  C    5.976824
    97  C    5.993453
    98  C    5.959891
    99  C    6.003706
   100  C    5.989623
   101  O    7.980974
   102  C    5.999083
   103  N    6.997436
   104  C    5.970889
   105  C    6.009530
   106  C    5.988953
   107  C    6.035021
   108  C    6.000373
   109  C    5.997910
   110  C    6.001315
   111  N    6.999442
   112  C    6.031792
   113  C    6.024077
   114  C    6.006680
   115  C    6.024006
   116  C    5.997831
   117  C    6.016919
   118  O    8.034025
   119  C    5.998149
   120  C    6.005893
   121  O    8.011004
   122  O    7.994999
   123  C    5.995220
   124  H    0.991066
   125  H    0.993476
   126  H    1.008066
   127  H    0.998022
   128  H    0.994375
   129  H    1.005153
   130  H    0.996040
   131  H    0.991105
   132  H    0.996884
   133  H    1.008867
   134  H    0.995985
   135  H    0.996124
   136  H    0.982303
   137  H    0.985223
   138  H    0.978952
   139  H    0.995503
   140  H    0.988638
   141  H    0.987807
   142  H    0.996239
   143  H    1.003112
   144  H    0.992552
   145  H    0.999083
   146  H    1.006445
   147  H    0.997199
   148  H    1.009384
   149  H    1.004503
   150  H    1.000953
   151  H    0.995223
   152  H    1.012687
   153  H    1.017366
   154  H    1.017131
   155  H    1.008072
   156  H    1.006981
   157  H    1.006656
   158  H    1.004047
 Sum of Mulliken charges = 624.00000

 Dipole moment (field-independent basis, Debye):
    X=             -5.1906    Y=             -7.1659    Z=             -5.4187  Tot=             10.3757
 Quadrupole moment (field-independent basis, Debye-Ang):
   XX=            160.1604   YY=             -3.2957   ZZ=             -0.5117
   XY=            113.7200   XZ=             86.1253   YZ=             -4.6714

 Normal termination of Gaussian 16 at Thu Oct 14 00:52:56 2021.
