 Gaussian 16, Revision A.03,
 Gaussian 16:  ES64L-G16RevA.03 25-Dec-2016

 --------------------------------------------------------
 #p PBE1PBE/Def2SVP td=(nstates=5) density=(transition=1)
 --------------------------------------------------------

 --------------------------------
 TDDFT excited states in gaussian
 --------------------------------
 Symbolic Z-matrix:
 Charge =  0 Multiplicity = 1

                         Standard orientation:
 ---------------------------------------------------------------------
 Center     Atomic      Atomic             Coordinates (Angstroms)
 Number     Number       Type             X           Y           Z
 ---------------------------------------------------------------------
      1         12           0       24.395713    0.396239   -0.292872
      2          6           0       23.220143   -1.752098    2.240028
      3          6           0       22.998057    3.020916    1.346739
      4          6           0       25.446390    2.395559   -2.810558
      5          6           0       25.393442   -2.392692   -2.105312
      6          7           0       23.176714    0.600651    1.495026
      7          6           0       22.915684   -0.395180    2.440198
      8          6           0       22.293695    0.223853    3.655724
      9          6           0       21.816293    1.595989    3.123651
     10          6           0       22.737198    1.758481    1.886914
     11          6           0       20.322834    1.719901    2.685453
     12          6           0       23.225861    0.343901    4.919689
     13          6           0       22.600220   -0.119681    6.196588
     14          1           0       22.796471    0.785448    7.427122
     15          7           0       24.326737    2.390908   -0.598309
     16          6           0       23.774088    3.362910    0.252184
     17          6           0       23.990838    4.649101   -0.279496
     18          6           0       24.738494    4.512322   -1.542282
     19          6           0       24.876795    3.091351   -1.688096
     20          6           0       23.427413    5.929651    0.263705
     21          6           0       25.226940    5.570574   -2.624138
     22          8           0       25.856341    5.220573   -3.594217
     23          6           0       25.005623    7.062109   -2.416991
     24          7           0       25.195219    0.033184   -2.240805
     25          6           0       25.523349    1.045920   -3.084130
     26          6           0       26.089254    0.455336   -4.463014
     27          6           0       26.352723   -1.074203   -4.112001
     28          6           0       25.595071   -1.175650   -2.720141
     29          6           0       25.172947    0.613436   -5.707805
     30          6           0       27.871171   -1.459143   -4.003429
     31          6           0       28.194106   -2.614040   -4.855261
     32          7           0       24.290370   -1.655053   -0.040503
     33          6           0       24.841352   -2.671269   -0.819671
     34          6           0       24.632790   -3.942817   -0.182234
     35          6           0       23.982150   -3.631596    0.994279
     36          6           0       23.819500   -2.283942    1.064590
     37          6           0       25.174276   -5.270858   -0.772703
     38          6           0       23.376852   -4.189624    2.189581
     39          8           0       23.195326   -5.356685    2.458451
     40          6           0       22.821278   -2.956168    3.060434
     41          6           0       21.366919   -3.116147    3.242396
     42          8           0       20.535539   -3.201711    2.300809
     43          8           0       21.106949   -3.192908    4.579311
     44          6           0       19.760884   -3.730179    4.911678
     45          1           0       22.487838    3.807725    1.906192
     46          1           0       25.799845    2.964384   -3.672896
     47          1           0       25.647169   -3.260136   -2.717365
     48          1           0       21.368589   -0.257663    3.974923
     49          1           0       21.953818    2.410440    3.835095
     50          1           0       19.636570    1.112039    3.276517
     51          1           0       20.279462    1.446427    1.630892
     52          1           0       19.921975    2.732574    2.650022
     53          1           0       23.518591    1.393137    4.953625
     54          1           0       24.171344   -0.178738    4.771826
     55          1           0       23.068833   -1.096968    6.313471
     56          1           0       21.517241   -0.157545    6.079740
     57          1           0       24.141412    6.587034    0.760333
     58          1           0       22.718620    5.698283    1.057783
     59          1           0       22.890454    6.589135   -0.417571
     60          1           0       25.556270    7.552878   -3.218573
     61          1           0       25.251943    7.367897   -1.399751
     62          1           0       23.936633    7.271883   -2.369935
     63          1           0       26.978979    1.007994   -4.765214
     64          1           0       25.850812   -1.687898   -4.861524
     65          1           0       24.186084    1.043400   -5.533409
     66          1           0       24.977947   -0.330203   -6.217943
     67          1           0       25.707194    1.256816   -6.407413
     68          1           0       28.077899   -1.765791   -2.977407
     69          1           0       28.561986   -0.672401   -4.305903
     70          1           0       28.652795   -2.248568   -5.774407
     71          1           0       27.412753   -3.336362   -5.088903
     72          1           0       28.886441   -3.269099   -4.326307
     73          1           0       25.936664   -5.040942   -1.517399
     74          1           0       24.363755   -5.922752   -1.101776
     75          1           0       25.692638   -5.738993    0.063278
     76          1           0       23.312076   -2.896992    4.032215
     77          1           0       19.672808   -3.890555    5.986084
     78          1           0       19.746563   -4.732485    4.483015
     79          1           0       19.033622   -3.052209    4.464094
     80         12           0      -24.076094    0.585184    0.489481
     81          6           0      -23.678116   -2.771595   -0.702180
     82          6           0      -20.595266    0.990530    0.001014
     83          6           0      -24.501127    3.894344    0.848778
     84          6           0      -27.494092    0.169102    0.249595
     85          7           0      -22.301852   -0.738517   -0.258595
     86          6           0      -22.472872   -2.022685   -0.694305
     87          6           0      -21.209268   -2.495909   -1.395169
     88          6           0      -20.217271   -1.371988   -0.877355
     89          6           0      -21.034737   -0.262725   -0.333941
     90          6           0      -19.142734   -1.795415    0.179681
     91          6           0      -21.469434   -2.645924   -2.928449
     92          6           0      -20.947160   -3.929648   -3.695301
     93          1           0      -19.917608   -3.774635   -4.829040
     94          7           0      -22.794294    2.154113    0.622802
     95          6           0      -21.390311    2.145201    0.411307
     96          6           0      -20.835383    3.468376    0.629066
     97          6           0      -21.996819    4.309877    0.868866
     98          6           0      -23.152948    3.436670    0.791312
     99          6           0      -19.403553    3.750124    0.437631
    100          6           0      -21.887519    5.815823    1.164723
    101          8           0      -20.728678    6.318772    1.087278
    102          6           0      -23.062344    6.742496    1.543346
    103          7           0      -25.754629    1.981500    0.289060
    104          6           0      -25.697537    3.247952    0.653978
    105          6           0      -27.071028    3.830344    0.563547
    106          6           0      -27.999285    2.593500    0.430595
    107          6           0      -27.018597    1.481059    0.220577
    108          6           0      -27.581397    4.836828    1.681492
    109          6           0      -29.098928    2.679526   -0.749370
    110          6           0      -30.597935    2.701746   -0.362159
    111          7           0      -25.341745   -0.967164    0.106502
    112          6           0      -26.683579   -1.000456    0.043557
    113          6           0      -27.158088   -2.296957   -0.275520
    114          6           0      -25.997338   -3.030994   -0.530289
    115          6           0      -24.893188   -2.165077   -0.327057
    116          6           0      -28.529879   -2.836546   -0.348218
    117          6           0      -25.586104   -4.332972   -0.956676
    118          8           0      -26.276755   -5.271459   -1.284989
    119          6           0      -23.944884   -4.189831   -1.137811
    120          6           0      -23.261184   -5.153728   -0.267344
    121          8           0      -23.558935   -5.398315    0.908683
    122          8           0      -22.228369   -5.689736   -1.006606
    123          6           0      -21.400911   -6.691004   -0.335728
    124          1           0      -19.527784    1.177472   -0.125367
    125          1           0      -24.704082    4.966896    0.862522
    126          1           0      -28.550655   -0.073445    0.382518
    127          1           0      -20.904473   -3.411429   -0.887542
    128          1           0      -19.847353   -1.043845   -1.849448
    129          1           0      -19.275491   -1.153558    1.051774
    130          1           0      -18.113194   -1.656793   -0.149625
    131          1           0      -19.242211   -2.807280    0.573720
    132          1           0      -20.937650   -1.763033   -3.282446
    133          1           0      -22.502377   -2.518121   -3.251391
    134          1           0      -21.849977   -4.411632   -4.069973
    135          1           0      -20.623692   -4.657468   -2.951780
    136          1           0      -19.149840    3.379428   -0.555780
    137          1           0      -18.811739    3.158539    1.135809
    138          1           0      -19.053095    4.765122    0.626694
    139          1           0      -23.670638    6.894146    0.651519
    140          1           0      -22.594134    7.541238    2.117638
    141          1           0      -23.616895    6.140652    2.264106
    142          1           0      -27.091936    4.433838   -0.343055
    143          1           0      -28.349967    2.469963    1.455301
    144          1           0      -28.296976    5.474495    1.161824
    145          1           0      -26.722040    5.378436    2.076491
    146          1           0      -28.089873    4.231186    2.431861
    147          1           0      -28.869490    1.816248   -1.373821
    148          1           0      -28.828527    3.522801   -1.384744
    149          1           0      -31.190296    1.982284   -0.925902
    150          1           0      -30.983171    3.708413   -0.526527
    151          1           0      -30.777996    2.544977    0.701538
    152          1           0      -28.538990   -3.924890   -0.297997
    153          1           0      -28.781271   -2.454045   -1.337628
    154          1           0      -29.168049   -2.216744    0.281484
    155          1           0      -23.658566   -4.219316   -2.188512
    156          1           0      -22.005394   -7.480248    0.111832
    157          1           0      -20.779514   -6.208883    0.420380
    158          1           0      -20.754408   -7.161036   -1.076851
 ---------------------------------------------------------------------

 SCF Done:  E(RPBE1PBE) =  -4067.37996936     A.U. after   16 cycles

 Excitation energies and oscillator strengths:

 Excited State   1:      Singlet-A      1.8632 eV  665.42 nm  f=0.3749  <S**2>=0.000
     309 -> 315       -0.18029
     312 -> 314        0.69249
     312 <- 314       -0.10916
 This state for optimization and/or second-order correction.
 Total Energy, E(TD-HF/TD-DFT) =  -4067.31149667
 Copying the excited state density for this state as the 1-particle RhoCI density.

 Excited State   2:      Singlet-A      1.8995 eV  652.73 nm  f=0.3806  <S**2>=0.000
     310 -> 316        0.17463
     311 -> 313        0.69184
     311 <- 313       -0.10895

 Excited State   3:      Singlet-A      1.9753 eV  627.67 nm  f=0.0000  <S**2>=0.000
     312 -> 313        0.70711

 Excited State   4:      Singlet-A      2.0392 eV  608.00 nm  f=0.0000  <S**2>=0.000
     311 -> 314        0.70711

 Excited State   5:      Singlet-A      2.2138 eV  560.05 nm  f=0.1484  <S**2>=0.000
     310 -> 313        0.66236
     311 -> 316       -0.22969

 The electronic state is 1-A.
 Alpha  occ. eigenvalues --  -46.92291 -46.90617 -19.26856 -19.26320 -19.20718
 Alpha  occ. eigenvalues --  -19.19987 -19.19965 -19.19787 -19.19377 -19.18425
 Alpha  occ. eigenvalues --  -14.41500 -14.41389 -14.41070 -14.40966 -14.39603
 Alpha  occ. eigenvalues --  -14.39447 -14.38958 -14.38326 -10.37025 -10.36458
 Alpha  occ. eigenvalues --  -10.33391 -10.32582 -10.32478 -10.32304 -10.29616
 Alpha  occ. eigenvalues --  -10.29394 -10.28928 -10.28883 -10.28494 -10.28306
 Alpha  occ. eigenvalues --  -10.28280 -10.28276 -10.28194 -10.28172 -10.28115
 Alpha  occ. eigenvalues --  -10.28047 -10.28032 -10.27435 -10.27424 -10.27022
 Alpha  occ. eigenvalues --  -10.26756 -10.26477 -10.26426 -10.26322 -10.26294
 Alpha  occ. eigenvalues --  -10.26149 -10.25852 -10.25795 -10.25782 -10.25731
 Alpha  occ. eigenvalues --  -10.25603 -10.25587 -10.25527 -10.25527 -10.25479
 Alpha  occ. eigenvalues --  -10.25449 -10.25442 -10.25423 -10.25362 -10.25332
 Alpha  occ. eigenvalues --  -10.25193 -10.25100 -10.25074 -10.24911 -10.24902
 Alpha  occ. eigenvalues --  -10.24804 -10.24523 -10.24453 -10.24298 -10.24158
 Alpha  occ. eigenvalues --  -10.24099 -10.24091 -10.24008 -10.23932 -10.23899
 Alpha  occ. eigenvalues --  -10.23696 -10.23695 -10.23525 -10.23517 -10.23455
 Alpha  occ. eigenvalues --  -10.23362 -10.22812 -10.22530 -10.22287 -10.22199
 Alpha  occ. eigenvalues --  -10.22105  -3.14424  -3.12919  -1.87253  -1.86786
 Alpha  occ. eigenvalues --   -1.86664  -1.85767  -1.85282  -1.85169  -1.11239
 Alpha  occ. eigenvalues --   -1.10538  -1.06353  -1.05576  -1.05188  -1.02904
 Alpha  occ. eigenvalues --   -1.01987  -1.01139  -1.00114  -0.99524  -0.99405
 Alpha  occ. eigenvalues --   -0.98335  -0.98121  -0.97209  -0.97033  -0.95989
 Alpha  occ. eigenvalues --   -0.87484  -0.86998  -0.83672  -0.83463  -0.82943
 Alpha  occ. eigenvalues --   -0.82612  -0.82415  -0.82308  -0.82289  -0.81818
 Alpha  occ. eigenvalues --   -0.81379  -0.80659  -0.80343  -0.80230  -0.78940
 Alpha  occ. eigenvalues --   -0.78560  -0.78127  -0.78109  -0.77194  -0.76978
 Alpha  occ. eigenvalues --   -0.76227  -0.76212  -0.75697  -0.75510  -0.75013
 Alpha  occ. eigenvalues --   -0.74792  -0.72582  -0.72486  -0.71957  -0.71650
 Alpha  occ. eigenvalues --   -0.71193  -0.71111  -0.70579  -0.70055  -0.69710
 Alpha  occ. eigenvalues --   -0.69217  -0.67669  -0.67367  -0.66665  -0.65402
 Alpha  occ. eigenvalues --   -0.64166  -0.63841  -0.63058  -0.62849  -0.62491
 Alpha  occ. eigenvalues --   -0.61973  -0.61217  -0.60904  -0.60589  -0.60151
 Alpha  occ. eigenvalues --   -0.59955  -0.59651  -0.59608  -0.59292  -0.59094
 Alpha  occ. eigenvalues --   -0.58606  -0.57496  -0.56550  -0.54840  -0.54719
 Alpha  occ. eigenvalues --   -0.54613  -0.54556  -0.54053  -0.53856  -0.53470
 Alpha  occ. eigenvalues --   -0.52919  -0.52731  -0.52419  -0.52223  -0.52105
 Alpha  occ. eigenvalues --   -0.50774  -0.50690  -0.50422  -0.50279  -0.50155
 Alpha  occ. eigenvalues --   -0.50047  -0.49494  -0.49438  -0.49116  -0.48418
 Alpha  occ. eigenvalues --   -0.48316  -0.48059  -0.47990  -0.47969  -0.47561
 Alpha  occ. eigenvalues --   -0.47313  -0.47185  -0.47099  -0.46605  -0.46450
 Alpha  occ. eigenvalues --   -0.46449  -0.46318  -0.45928  -0.45875  -0.45865
 Alpha  occ. eigenvalues --   -0.45773  -0.45473  -0.45168  -0.45005  -0.44961
 Alpha  occ. eigenvalues --   -0.44674  -0.44580  -0.44521  -0.44359  -0.44226
 Alpha  occ. eigenvalues --   -0.44051  -0.44033  -0.44005  -0.43562  -0.43482
 Alpha  occ. eigenvalues --   -0.43367  -0.43157  -0.42666  -0.42560  -0.42433
 Alpha  occ. eigenvalues --   -0.42412  -0.42358  -0.42330  -0.42159  -0.41948
 Alpha  occ. eigenvalues --   -0.41754  -0.41437  -0.41374  -0.41335  -0.41176
 Alpha  occ. eigenvalues --   -0.41136  -0.40806  -0.40789  -0.40692  -0.40575
 Alpha  occ. eigenvalues --   -0.40513  -0.40374  -0.40105  -0.40054  -0.39853
 Alpha  occ. eigenvalues --   -0.39788  -0.39504  -0.39459  -0.39314  -0.39226
 Alpha  occ. eigenvalues --   -0.39147  -0.38570  -0.38435  -0.38353  -0.38275
 Alpha  occ. eigenvalues --   -0.38172  -0.38099  -0.37923  -0.37864  -0.37766
 Alpha  occ. eigenvalues --   -0.37650  -0.37647  -0.37459  -0.37227  -0.37032
 Alpha  occ. eigenvalues --   -0.36770  -0.36728  -0.36429  -0.36127  -0.36117
 Alpha  occ. eigenvalues --   -0.35918  -0.35862  -0.35702  -0.35346  -0.35282
 Alpha  occ. eigenvalues --   -0.35183  -0.34899  -0.34087  -0.33938  -0.33785
 Alpha  occ. eigenvalues --   -0.33746  -0.33352  -0.33224  -0.32846  -0.32842
 Alpha  occ. eigenvalues --   -0.32644  -0.32583  -0.31746  -0.31521  -0.31403
 Alpha  occ. eigenvalues --   -0.31062  -0.30865  -0.29921  -0.29490  -0.29275
 Alpha  occ. eigenvalues --   -0.29134  -0.28639  -0.28588  -0.26995  -0.26943
 Alpha  occ. eigenvalues --   -0.26476  -0.26116  -0.25899  -0.25715  -0.25635
 Alpha  occ. eigenvalues --   -0.25204  -0.25145  -0.24907  -0.21149  -0.20927
 Alpha  occ. eigenvalues --   -0.19122  -0.18947
 Alpha virt. eigenvalues --   -0.11414  -0.11354  -0.05224  -0.04839  -0.03930
 Alpha virt. eigenvalues --   -0.03552  -0.02043  -0.01689  -0.00553  -0.00192
 Alpha virt. eigenvalues --   -0.00191   0.00670   0.00894   0.01443   0.01831

 Mulliken charges:
               1
     1  Mg  11.999929
     2  C    5.999719
     3  C    5.999928
     4  C    6.000294
     5  C    6.000133
     6  N    6.999984
     7  C    6.000152
     8  C    5.999974
     9  C    6.000074
    10  C    5.999717
    11  C    5.999995
    12  C    5.999959
    13  C    5.999995
    14  H    1.000090
    15  N    7.000180
    16  C    5.999571
    17  C    5.999871
    18  C    5.999880
    19  C    5.999870
    20  C    6.000024
    21  C    5.999712
    22  O    7.999921
    23  C    5.999952
    24  N    7.000180
    25  C    5.999809
    26  C    5.999974
    27  C    5.999886
    28  C    6.000133
    29  C    6.000039
    30  C    6.000004
    31  C    6.000015
    32  N    7.000080
    33  C    6.000298
    34  C    6.000199
    35  C    5.999933
    36  C    6.000330
    37  C    6.000000
    38  C    6.000043
    39  O    8.000277
    40  C    5.999941
    41  C    6.000000
    42  O    8.000041
    43  O    8.000029
    44  C    5.999958
    45  H    0.999935
    46  H    0.999877
    47  H    1.000013
    48  H    1.000011
    49  H    1.000014
    50  H    0.999871
    51  H    0.999966
    52  H    0.999976
    53  H    1.000087
    54  H    0.999988
    55  H    0.999959
    56  H    0.999971
    57  H    0.999873
    58  H    0.999918
    59  H    0.999841
    60  H    0.999922
    61  H    1.000024
    62  H    0.999974
    63  H    1.000008
    64  H    0.999966
    65  H    1.000014
    66  H    0.999918
    67  H    1.000021
    68  H    0.999992
    69  H    1.000081
    70  H    1.000066
    71  H    0.999971
    72  H    1.000037
    73  H    1.000083
    74  H    1.000173
    75  H    1.000168
    76  H    1.000113
    77  H    1.000028
    78  H    1.000025
    79  H    1.000022
    80  Mg  11.999495
    81  C    6.013425
    82  C    5.981637
    83  C    5.984582
    84  C    6.019889
    85  N    6.995897
    86  C    5.974021
    87  C    6.007295
    88  C    5.991532
    89  C    6.029735
    90  C    5.997760
    91  C    6.007264
    92  C    6.000613
    93  H    0.990307
    94  N    6.997116
    95  C    6.045692
    96  C    6.019521
    97  C    6.011773
    98  C    6.031589
    99  C    5.996094
   100  C    6.012779
   101  O    8.022005
   102  C    6.001872
   103  N    7.000293
   104  C    6.031399
   105  C    5.989717
   106  C    6.010643
   107  C    5.965479
   108  C    5.998555
   109  C    6.001525
   110  C    6.001131
   111  N    7.000305
   112  C    5.964869
   113  C    5.971942
   114  C    5.996155
   115  C    5.972215
   116  C    5.998756
   117  C    5.984325
   118  O    7.973636
   119  C    5.996110
   120  C    5.995096
   121  O    7.995490
   122  O    7.997489
   123  C    6.002210
   124  H    1.008203
   125  H    1.007183
   126  H    0.993537
   127  H    1.000354
   128  H    1.001920
   129  H    0.995099
   130  H    1.001416
   131  H    1.012213
   132  H    0.988132
   133  H    1.005113
   134  H    1.003434
   135  H    1.000043
   136  H    1.018939
   137  H    1.019530
   138  H    1.013205
   139  H    1.010431
   140  H    1.011478
   141  H    1.007493
   142  H    1.001009
   143  H    0.997837
   144  H    1.005268
   145  H    0.992621
   146  H    1.006805
   147  H    1.005750
   148  H    0.990952
   149  H    1.002177
   150  H    0.994382
   151  H    0.998778
   152  H    0.987417
   153  H    0.981415
   154  H    0.981469
   155  H    0.990572
   156  H    0.998156
   157  H    0.993586
   158  H    0.994845
 Sum of Mulliken charges = 624.00000

 Dipole moment (field-independent basis, Debye):
    X=              5.9637    Y=              8.2227    Z=              1.7111  Tot=             10.3008
 Quadrupole moment (field-independent basis, Debye-Ang):
   XX=           -285.5451   YY=              8.4550   ZZ=             -0.3319
   XY=           -195.2372   XZ=            -39.3513   YZ=              2.0690

 Normal termination of Gaussian 16 at Thu Oct 14 01:26:06 2021.
