 Gaussian 16, Revision A.03,
 Gaussian 16:  ES64L-G16RevA.03 25-Dec-2016

 ---------------------------------------------------
 #p PBE1PBE/Def2SVP td=(nstates=5) density=(current)
 ---------------------------------------------------

 --------------------------------
 TDDFT excited states in gaussian
 --------------------------------
 Symbolic Z-matrix:
 Charge =  0 Multiplicity = 1

                         Standard orientation:
 ---------------------------------------------------------------------
 Center     Atomic      Atomic             Coordinates (Angstroms)
 Number     Number       Type             X           Y           Z
 ---------------------------------------------------------------------
      1         12           0       -0.757163    0.065795   -0.602750
      2          6           0        2.860667    0.138794   -0.189319
      3          6           0       -0.515881   -3.353512   -0.802000
      4          6           0       -3.910624   -0.143375    0.490108
      5          6           0       -0.789892    3.462721   -0.524232
      6          7           0        1.001910   -1.438665   -0.303967
      7          6           0        2.413646   -1.158783   -0.222752
      8          6           0        3.200028   -2.462756   -0.384107
      9          6           0        2.158534   -3.476869   -0.942417
     10          6           0        0.758130   -2.758345   -0.704750
     11          6           0        2.357769   -3.812235   -2.495969
     12          6           0        4.031777   -2.912321    0.781419
     13          6           0        3.726328   -2.283854    2.161571
     14          1           0        4.394190   -2.636005    3.503363
     15          7           0       -2.101034   -1.548304   -0.338025
     16          6           0       -1.789931   -2.885071   -0.454002
     17          6           0       -3.051020   -3.671625   -0.281661
     18          6           0       -3.966047   -2.737619    0.197431
     19          6           0       -3.365754   -1.405619    0.198310
     20          6           0       -3.068352   -5.144445   -0.490626
     21          6           0       -5.407665   -3.081647    0.672885
     22          8           0       -5.729692   -4.256016    0.708086
     23          6           0       -6.375768   -2.091865    1.231040
     24          7           0       -2.062455    1.509459    0.050751
     25          6           0       -3.379772    1.135583    0.313985
     26          6           0       -4.269054    2.363432    0.510076
     27          6           0       -3.394254    3.520267   -0.095501
     28          6           0       -2.045662    2.811281   -0.238926
     29          6           0       -5.698454    2.345230   -0.090069
     30          6           0       -3.329788    4.841572    0.735800
     31          6           0       -4.144246    6.080608    0.142699
     32          7           0        0.709234    1.556418   -0.482297
     33          6           0        0.525965    2.930069   -0.546054
     34          6           0        1.812769    3.571895   -0.657226
     35          6           0        2.701316    2.510140   -0.439671
     36          6           0        1.956419    1.307283   -0.365232
     37          6           0        2.000350    5.093882   -0.781276
     38          6           0        4.080066    2.136897   -0.356333
     39          8           0        5.044653    2.917973   -0.482445
     40          6           0        4.290757    0.558252   -0.330937
     41          6           0        5.181109    0.326588    0.823937
     42          8           0        5.043773    0.779732    1.965124
     43          8           0        6.105262   -0.579854    0.421722
     44          6           0        7.238696   -0.834776    1.365134
     45          1           0       -0.438828   -4.441390   -0.847736
     46          1           0       -4.944324   -0.227369    0.832724
     47          1           0       -0.832091    4.548846   -0.625548
     48          1           0        3.845210   -2.133189   -1.198531
     49          1           0        2.066514   -4.373536   -0.329281
     50          1           0        2.658557   -4.859113   -2.485784
     51          1           0        3.094722   -3.131129   -2.922199
     52          1           0        1.368631   -3.713139   -2.944470
     53          1           0        5.070166   -2.792215    0.473051
     54          1           0        3.819118   -3.981900    0.780322
     55          1           0        2.654715   -2.431741    2.298950
     56          1           0        3.919815   -1.211630    2.124166
     57          1           0       -3.216116   -5.583005    0.495822
     58          1           0       -2.116990   -5.435138   -0.935146
     59          1           0       -3.847344   -5.397735   -1.210588
     60          1           0       -6.128892   -1.605301    2.173887
     61          1           0       -7.326052   -2.545589    1.510926
     62          1           0       -6.506178   -1.437508    0.369230
     63          1           0       -4.293260    2.336222    1.600083
     64          1           0       -3.803888    3.675478   -1.093851
     65          1           0       -6.474815    2.119203    0.641577
     66          1           0       -5.771894    1.549363   -0.830468
     67          1           0       -5.853044    3.301103   -0.591769
     68          1           0       -2.318394    5.197921    0.933228
     69          1           0       -3.704637    4.550107    1.717020
     70          1           0       -4.627679    6.477231    1.035143
     71          1           0       -4.884742    5.824757   -0.615282
     72          1           0       -3.420112    6.715532   -0.366549
     73          1           0        2.894353    5.410801   -1.318779
     74          1           0        2.104233    5.369930    0.267500
     75          1           0        1.205301    5.522561   -1.390991
     76          1           0        4.723578    0.238820   -1.280091
     77          1           0        7.904367   -1.582543    0.932668
     78          1           0        6.879250   -1.225705    2.317203
     79          1           0        7.693981    0.151747    1.440064
 ---------------------------------------------------------------------

 SCF Done:  E(RPBE1PBE) =  -2033.65294591     A.U. after   16 cycles

 Excitation energies and oscillator strengths:

 Excited State   1:      Singlet-A      1.8047 eV  687.00 nm  f=0.3461  <S**2>=0.000
     155 ->158         0.15289
     156 ->157         0.69768
     156 <-157        -0.11785
 This state for optimization and/or second-order correction.
 Total Energy, E(TD-HF/TD-DFT) =  -2033.58662355
 Copying the excited state density for this state as the 1-particle RhoCI density.

 Excited State   2:      Singlet-A      2.2730 eV  545.47 nm  f=0.0802  <S**2>=0.000
     155 ->157         0.63282
     156 ->158        -0.29900

 Excited State   3:      Singlet-A      2.7286 eV  454.38 nm  f=0.0002  <S**2>=0.000
     154 ->157         0.68140
     154 ->159         0.12529
     154 ->160        -0.11052

 Excited State   4:      Singlet-A      3.0415 eV  407.64 nm  f=0.0011  <S**2>=0.000
     152 ->157         0.66648
     153 ->157         0.14323
     156 ->158        -0.11473

 Excited State   5:      Singlet-A      3.1063 eV  399.13 nm  f=0.0014  <S**2>=0.000
     151 ->157        -0.21507
     153 ->157         0.65137

 The electronic state is 1-A.
 Alpha  occ. eigenvalues --  -46.92685 -19.26069 -19.19744 -19.19085 -19.17605
 Alpha  occ. eigenvalues --  -14.41969 -14.41153 -14.39263 -14.38501 -10.36228
 Alpha  occ. eigenvalues --  -10.32493 -10.30963 -10.29465 -10.29373 -10.29263
 Alpha  occ. eigenvalues --  -10.29016 -10.28394 -10.28285 -10.28176 -10.27109
 Alpha  occ. eigenvalues --  -10.26486 -10.26443 -10.26390 -10.26219 -10.26214
 Alpha  occ. eigenvalues --  -10.25831 -10.25615 -10.25571 -10.25468 -10.25108
 Alpha  occ. eigenvalues --  -10.25077 -10.24953 -10.24897 -10.24839 -10.24745
 Alpha  occ. eigenvalues --  -10.24383 -10.24331 -10.23986 -10.23905 -10.23646
 Alpha  occ. eigenvalues --  -10.23540 -10.23511 -10.22022  -3.14754  -1.87565
 Alpha  occ. eigenvalues --   -1.87150  -1.86957  -1.10899  -1.05244  -1.02375
 Alpha  occ. eigenvalues --   -1.01622  -0.99685  -0.98779  -0.97272  -0.94869
 Alpha  occ. eigenvalues --   -0.86405  -0.83652  -0.83226  -0.82889  -0.81094
 Alpha  occ. eigenvalues --   -0.80905  -0.80513  -0.78600  -0.78079  -0.76768
 Alpha  occ. eigenvalues --   -0.76595  -0.75347  -0.74532  -0.72286  -0.72083
 Alpha  occ. eigenvalues --   -0.70850  -0.70355  -0.69539  -0.67545  -0.66087
 Alpha  occ. eigenvalues --   -0.64030  -0.63332  -0.62162  -0.61324  -0.60566
 Alpha  occ. eigenvalues --   -0.59802  -0.59264  -0.58135  -0.56762  -0.54109
 Alpha  occ. eigenvalues --   -0.53762  -0.53685  -0.52521  -0.52042  -0.51808
 Alpha  occ. eigenvalues --   -0.51363  -0.50729  -0.49741  -0.49184  -0.48790
 Alpha  occ. eigenvalues --   -0.48314  -0.47773  -0.47455  -0.47141  -0.46975
 Alpha  occ. eigenvalues --   -0.46484  -0.45924  -0.45807  -0.45507  -0.45329
 Alpha  occ. eigenvalues --   -0.44597  -0.44338  -0.43989  -0.43644  -0.43358
 Alpha  occ. eigenvalues --   -0.42997  -0.42811  -0.42469  -0.42278  -0.41871
 Alpha  occ. eigenvalues --   -0.41565  -0.41372  -0.41242  -0.41003  -0.40493
 Alpha  occ. eigenvalues --   -0.40226  -0.39941  -0.39710  -0.39310  -0.38820
 Alpha  occ. eigenvalues --   -0.38733  -0.38349  -0.38231  -0.37667  -0.37571
 Alpha  occ. eigenvalues --   -0.37371  -0.37075  -0.37042  -0.36794  -0.36667
 Alpha  occ. eigenvalues --   -0.35962  -0.35752  -0.34903  -0.34331  -0.34039
 Alpha  occ. eigenvalues --   -0.33388  -0.32416  -0.32158  -0.31592  -0.31392
 Alpha  occ. eigenvalues --   -0.30869  -0.29276  -0.29050  -0.28306  -0.27098
 Alpha  occ. eigenvalues --   -0.25837  -0.25404  -0.25279  -0.24298  -0.21269
 Alpha  occ. eigenvalues --   -0.18459
 Alpha virt. eigenvalues --   -0.11100  -0.05304  -0.03128  -0.02014  -0.01401
 Alpha virt. eigenvalues --    0.00158   0.01018   0.02147   0.02783   0.04288
 Alpha virt. eigenvalues --    0.04837   0.05574   0.06061   0.06318   0.06849

 Mulliken charges:
               1
     1  Mg   0.951927
     2  C   -0.023823
     3  C   -0.067043
     4  C   -0.079496
     5  C   -0.083306
     6  N   -0.405291
     7  C   -0.013107
     8  C   -0.028452
     9  C   -0.172304
    10  C    0.060759
    11  C    0.025979
    12  C    0.016484
    13  C   -0.130400
    14  H    0.044083
    15  N   -0.497463
    16  C    0.146002
    17  C   -0.170524
    18  C   -0.091665
    19  C    0.180805
    20  C    0.094510
    21  C    0.038450
    22  O   -0.238403
    23  C   -0.011936
    24  N   -0.431442
    25  C    0.113680
    26  C   -0.151484
    27  C   -0.052276
    28  C    0.063943
    29  C    0.017998
    30  C   -0.035177
    31  C   -0.079088
    32  N   -0.418985
    33  C    0.113069
    34  C   -0.182374
    35  C   -0.016893
    36  C    0.141140
    37  C    0.061631
    38  C    0.103551
    39  O   -0.257557
    40  C   -0.087698
    41  C    0.291600
    42  O   -0.267662
    43  O   -0.371509
    44  C    0.123979
    45  H    0.011766
    46  H   -0.026808
    47  H   -0.000262
    48  H    0.043563
    49  H    0.051594
    50  H    0.054269
    51  H    0.055031
    52  H    0.049253
    53  H    0.041553
    54  H    0.027446
    55  H    0.056767
    56  H    0.087002
    57  H    0.074512
    58  H    0.024192
    59  H    0.062225
    60  H    0.077112
    61  H    0.047291
    62  H    0.061838
    63  H    0.069106
    64  H    0.050677
    65  H    0.048324
    66  H    0.046262
    67  H    0.049869
    68  H    0.053990
    69  H    0.035519
    70  H    0.057877
    71  H    0.042943
    72  H    0.054299
    73  H    0.056764
    74  H    0.077607
    75  H    0.044873
    76  H    0.079161
    77  H    0.062170
    78  H    0.071909
    79  H    0.076076
 Sum of Mulliken charges =  -0.00000

 Dipole moment (field-independent basis, Debye):
    X=             -3.0560    Y=              0.4817    Z=             -2.6968  Tot=              4.1041
 Quadrupole moment (field-independent basis, Debye-Ang):
   XX=           -253.3660   YY=           -252.7349   ZZ=           -256.2277
   XY=            -53.9007   XZ=             -4.2694   YZ=              3.0082

 Normal termination of Gaussian 16 at Wed Oct 13 15:46:12 2021.
