 Gaussian 16, Revision A.03,
 Gaussian 16:  ES64L-G16RevA.03 25-Dec-2016

 --------------------------------------------------------
 #p PBE1PBE/Def2SVP td=(nstates=5) density=(transition=1)
 --------------------------------------------------------

 --------------------------------
 TDDFT excited states in gaussian
 --------------------------------
 Symbolic Z-matrix:
 Charge =  0 Multiplicity = 1

                         Standard orientation:
 ---------------------------------------------------------------------
 Center     Atomic      Atomic             Coordinates (Angstroms)
 Number     Number       Type             X           Y           Z
 ---------------------------------------------------------------------
      1         12           0      -28.184107    0.096610   -0.048683
      2          6           0      -25.112925   -1.599057    0.088536
      3          6           0      -28.975215   -1.280676    2.954575
      4          6           0      -30.792708    2.068466   -0.106825
      5          6           0      -26.689889    1.992061   -2.720945
      6          7           0      -27.180804   -1.313450    1.284543
      7          6           0      -25.935496   -1.862543    1.163974
      8          6           0      -25.561862   -2.504392    2.508509
      9          6           0      -26.932292   -2.841078    3.085792
     10          6           0      -27.721825   -1.672209    2.465856
     11          6           0      -27.466867   -4.210854    2.607692
     12          6           0      -24.757550   -1.504318    3.418898
     13          6           0      -23.220719   -1.839013    3.749540
     14          1           0      -22.128263   -0.852693    3.302570
     15          7           0      -29.649936    0.403101    1.268968
     16          6           0      -29.823437   -0.280186    2.450632
     17          6           0      -31.088507    0.095170    3.000309
     18          6           0      -31.747609    0.992001    2.095843
     19          6           0      -30.741416    1.212926    1.017026
     20          6           0      -31.633286   -0.457449    4.361828
     21          6           0      -33.209591    1.539662    2.278230
     22          8           0      -33.890520    1.139513    3.171714
     23          6           0      -33.797657    2.312966    1.191267
     24          7           0      -28.535104    2.000637   -1.046972
     25          6           0      -29.848264    2.323752   -1.119044
     26          6           0      -30.212979    3.068170   -2.392524
     27          6           0      -28.859776    3.360161   -3.022765
     28          6           0      -27.936223    2.387816   -2.209723
     29          6           0      -31.145220    2.233066   -3.346146
     30          6           0      -28.301896    4.860735   -3.036951
     31          6           0      -28.238563    5.676100   -4.300574
     32          7           0      -26.419127    0.080188   -1.240522
     33          6           0      -25.948954    0.895479   -2.278067
     34          6           0      -24.612798    0.520891   -2.687934
     35          6           0      -24.268325   -0.469601   -1.801344
     36          6           0      -25.361719   -0.716046   -0.907166
     37          6           0      -23.834207    1.164356   -3.758757
     38          6           0      -23.198139   -1.380435   -1.424804
     39          8           0      -22.107305   -1.584088   -1.971927
     40          6           0      -23.732435   -2.210445   -0.276577
     41          6           0      -23.755011   -3.662770   -0.740565
     42          8           0      -24.399306   -3.998069   -1.731848
     43          8           0      -22.875680   -4.458987    0.009610
     44          6           0      -22.821182   -5.837501   -0.397877
     45          1           0      -29.262029   -1.858283    3.835447
     46          1           0      -31.801043    2.456939   -0.257913
     47          1           0      -26.289777    2.497194   -3.602771
     48          1           0      -24.864239   -3.312181    2.285963
     49          1           0      -26.857021   -2.811039    4.172061
     50          1           0      -27.739129   -4.625251    3.577759
     51          1           0      -26.606642   -4.695678    2.145254
     52          1           0      -28.304945   -4.196821    1.910790
     53          1           0      -25.255722   -1.479984    4.388013
     54          1           0      -24.875888   -0.506606    2.996952
     55          1           0      -23.001542   -2.750950    3.193658
     56          1           0      -23.021315   -2.074285    4.794318
     57          1           0      -32.007477    0.259505    5.091967
     58          1           0      -30.799455   -0.996993    4.812139
     59          1           0      -32.439001   -1.179884    4.230169
     60          1           0      -33.242141    3.213140    0.927332
     61          1           0      -34.809953    2.595417    1.480245
     62          1           0      -34.024752    1.661895    0.348205
     63          1           0      -30.792638    3.971298   -2.198686
     64          1           0      -28.834039    2.992904   -4.048722
     65          1           0      -32.198990    2.497317   -3.259254
     66          1           0      -30.929390    1.171217   -3.227947
     67          1           0      -30.854807    2.478308   -4.368731
     68          1           0      -27.393061    5.074950   -2.475638
     69          1           0      -29.108852    5.272282   -2.430107
     70          1           0      -28.916123    6.529336   -4.301844
     71          1           0      -28.508832    5.050780   -5.151817
     72          1           0      -27.198033    5.993808   -4.363290
     73          1           0      -24.202962    2.184474   -3.869296
     74          1           0      -24.085511    0.618605   -4.668652
     75          1           0      -22.763468    1.083116   -3.577306
     76          1           0      -22.965422   -2.076597    0.485030
     77          1           0      -23.669956   -6.440556   -0.074269
     78          1           0      -21.926549   -6.331703   -0.020114
     79          1           0      -22.754018   -5.985426   -1.475362
     80         12           0       27.145796    0.687284    0.273490
     81          6           0       28.136070   -2.557112   -0.204856
     82          6           0       24.634479    0.255958   -1.895984
     83          6           0       26.447659    3.961671    0.666104
     84          6           0       30.180868    1.228357    2.200884
     85          7           0       26.637248   -0.945621   -1.136079
     86          6           0       27.088567   -2.204597   -1.082689
     87          6           0       26.260289   -3.150290   -2.095266
     88          6           0       25.155245   -2.134213   -2.570080
     89          6           0       25.492527   -0.806825   -1.861508
     90          6           0       25.005653   -2.052603   -4.101717
     91          6           0       25.683693   -4.431210   -1.428112
     92          6           0       24.578598   -5.231690   -2.191598
     93          1           0       25.007476   -6.565378   -2.913144
     94          7           0       25.748468    1.958463   -0.555088
     95          6           0       24.752245    1.589267   -1.333036
     96          6           0       23.917544    2.750517   -1.601285
     97          6           0       24.465894    3.901956   -0.960371
     98          6           0       25.604332    3.297306   -0.234342
     99          6           0       22.739587    2.787772   -2.560806
    100          6           0       24.052441    5.368651   -1.023153
    101          8           0       24.810022    6.256907   -0.643547
    102          6           0       22.706864    5.710370   -1.560537
    103          7           0       28.206459    2.368564    1.259714
    104          6           0       27.677153    3.585191    1.309430
    105          6           0       28.459391    4.517836    2.248993
    106          6           0       29.470787    3.541351    2.843688
    107          6           0       29.288644    2.320252    2.021815
    108          6           0       29.075842    5.791685    1.652036
    109          6           0       29.425466    3.446879    4.347807
    110          6           0       30.717145    3.910326    5.111226
    111          7           0       28.759804   -0.388664    0.919136
    112          6           0       29.881243   -0.085759    1.762113
    113          6           0       30.658825   -1.272414    2.043665
    114          6           0       29.953236   -2.242249    1.278443
    115          6           0       28.855222   -1.659277    0.633394
    116          6           0       31.778460   -1.518468    2.992442
    117          6           0       29.916508   -3.673741    1.115968
    118          8           0       30.495661   -4.622125    1.666427
    119          6           0       28.864375   -3.976290    0.078501
    120          6           0       29.574341   -4.402885   -1.225283
    121          8           0       30.581217   -3.893490   -1.740787
    122          8           0       28.886289   -5.461306   -1.739943
    123          6           0       29.405963   -6.084249   -2.998445
    124          1           0       23.713952    0.213499   -2.481905
    125          1           0       26.417079    5.052979    0.690037
    126          1           0       30.994508    1.434032    2.898751
    127          1           0       26.974097   -3.363894   -2.890022
    128          1           0       24.207528   -2.458896   -2.140585
    129          1           0       23.937157   -2.034637   -4.313638
    130          1           0       25.407323   -2.935830   -4.598497
    131          1           0       25.490870   -1.158433   -4.493217
    132          1           0       25.133769   -4.072201   -0.558187
    133          1           0       26.488162   -5.136187   -1.218805
    134          1           0       24.260339   -4.608034   -3.027615
    135          1           0       23.792514   -5.499200   -1.486316
    136          1           0       22.562954    1.811315   -3.011787
    137          1           0       22.939704    3.504605   -3.356804
    138          1           0       21.822446    3.104138   -2.065573
    139          1           0       22.015459    5.052567   -1.033147
    140          1           0       22.449599    5.626047   -2.615943
    141          1           0       22.428227    6.746824   -1.373287
    142          1           0       27.774110    4.847108    3.029318
    143          1           0       30.463349    3.930496    2.617473
    144          1           0       28.918040    6.545378    2.423097
    145          1           0       28.629537    6.017128    0.683596
    146          1           0       30.123728    5.694214    1.368424
    147          1           0       29.361184    2.375324    4.534160
    148          1           0       28.598903    3.997625    4.795851
    149          1           0       31.482233    4.216189    4.397154
    150          1           0       31.093247    3.046821    5.660727
    151          1           0       30.560225    4.665376    5.881668
    152          1           0       31.917568   -0.653789    3.640813
    153          1           0       32.673821   -1.549611    2.372659
    154          1           0       31.486791   -2.416871    3.538327
    155          1           0       28.288318   -4.792540    0.514796
    156          1           0       29.675953   -5.381305   -3.786908
    157          1           0       28.756132   -6.848201   -3.424012
    158          1           0       30.350632   -6.550402   -2.718961
 ---------------------------------------------------------------------

 SCF Done:  E(RPBE1PBE) =  -4067.38329209     A.U. after   16 cycles

 Excitation energies and oscillator strengths:

 Excited State   1:      Singlet-A      1.8784 eV  660.05 nm  f=0.4614  <S**2>=0.000
     309 -> 315        0.17093
     311 -> 313       -0.25070
     312 -> 314        0.64298
 This state for optimization and/or second-order correction.
 Total Energy, E(TD-HF/TD-DFT) =  -4067.31426143
 Copying the excited state density for this state as the 1-particle RhoCI density.

 Excited State   2:      Singlet-A      1.8792 eV  659.79 nm  f=0.2814  <S**2>=0.000
     310 -> 316        0.15545
     311 -> 313        0.64356
     312 -> 314        0.25044

 Excited State   3:      Singlet-A      2.0192 eV  614.01 nm  f=0.0000  <S**2>=0.000
     312 -> 313        0.70711

 Excited State   4:      Singlet-A      2.0657 eV  600.22 nm  f=0.0000  <S**2>=0.000
     311 -> 314        0.70711

 Excited State   5:      Singlet-A      2.2592 eV  548.80 nm  f=0.1112  <S**2>=0.000
     310 -> 313        0.65064
     311 -> 316       -0.25677

 The electronic state is 1-A.
 Alpha  occ. eigenvalues --  -46.92576 -46.92095 -19.26682 -19.26289 -19.20792
 Alpha  occ. eigenvalues --  -19.19723 -19.19658 -19.19328 -19.18940 -19.17996
 Alpha  occ. eigenvalues --  -14.41658 -14.41610 -14.41442 -14.41373 -14.39629
 Alpha  occ. eigenvalues --  -14.39093 -14.39015 -14.38957 -10.37279 -10.36627
 Alpha  occ. eigenvalues --  -10.33143 -10.32233 -10.31665 -10.30531 -10.29404
 Alpha  occ. eigenvalues --  -10.29404 -10.28896 -10.28883 -10.28732 -10.28643
 Alpha  occ. eigenvalues --  -10.28548 -10.28416 -10.28355 -10.28244 -10.28097
 Alpha  occ. eigenvalues --  -10.27907 -10.27799 -10.27792 -10.27455 -10.27305
 Alpha  occ. eigenvalues --  -10.26866 -10.26831 -10.26427 -10.26275 -10.26246
 Alpha  occ. eigenvalues --  -10.26195 -10.26136 -10.26006 -10.25999 -10.25955
 Alpha  occ. eigenvalues --  -10.25820 -10.25732 -10.25705 -10.25614 -10.25587
 Alpha  occ. eigenvalues --  -10.25574 -10.25398 -10.25302 -10.25180 -10.24946
 Alpha  occ. eigenvalues --  -10.24902 -10.24826 -10.24765 -10.24569 -10.24537
 Alpha  occ. eigenvalues --  -10.24525 -10.24498 -10.24438 -10.24395 -10.24353
 Alpha  occ. eigenvalues --  -10.24099 -10.24044 -10.23952 -10.23895 -10.23765
 Alpha  occ. eigenvalues --  -10.23755 -10.23642 -10.23630 -10.23625 -10.23366
 Alpha  occ. eigenvalues --  -10.23155 -10.23139 -10.23137 -10.23019 -10.22792
 Alpha  occ. eigenvalues --  -10.22195  -3.14682  -3.14284  -1.87514  -1.87098
 Alpha  occ. eigenvalues --   -1.87050  -1.86918  -1.86673  -1.86507  -1.10723
 Alpha  occ. eigenvalues --   -1.10343  -1.06720  -1.05032  -1.03800  -1.03014
 Alpha  occ. eigenvalues --   -1.02746  -1.01371  -1.00329  -0.99395  -0.99037
 Alpha  occ. eigenvalues --   -0.98907  -0.98562  -0.97670  -0.97508  -0.96798
 Alpha  occ. eigenvalues --   -0.87392  -0.85664  -0.84223  -0.83465  -0.83283
 Alpha  occ. eigenvalues --   -0.82994  -0.82878  -0.82479  -0.81936  -0.81775
 Alpha  occ. eigenvalues --   -0.81469  -0.81465  -0.81305  -0.79342  -0.78868
 Alpha  occ. eigenvalues --   -0.78534  -0.78461  -0.77595  -0.76834  -0.76775
 Alpha  occ. eigenvalues --   -0.76497  -0.76388  -0.75395  -0.75393  -0.75200
 Alpha  occ. eigenvalues --   -0.74415  -0.72858  -0.72360  -0.71833  -0.71545
 Alpha  occ. eigenvalues --   -0.71033  -0.70724  -0.70602  -0.70392  -0.69696
 Alpha  occ. eigenvalues --   -0.69468  -0.67328  -0.67100  -0.66613  -0.66140
 Alpha  occ. eigenvalues --   -0.63776  -0.63446  -0.63424  -0.63045  -0.62512
 Alpha  occ. eigenvalues --   -0.62207  -0.61983  -0.61246  -0.60290  -0.60278
 Alpha  occ. eigenvalues --   -0.60101  -0.59458  -0.59423  -0.59045  -0.58915
 Alpha  occ. eigenvalues --   -0.58427  -0.57293  -0.57206  -0.55230  -0.54773
 Alpha  occ. eigenvalues --   -0.54629  -0.54230  -0.53753  -0.53499  -0.53471
 Alpha  occ. eigenvalues --   -0.53258  -0.52976  -0.52613  -0.52302  -0.51874
 Alpha  occ. eigenvalues --   -0.50893  -0.50864  -0.50691  -0.50230  -0.49817
 Alpha  occ. eigenvalues --   -0.49660  -0.49409  -0.49110  -0.48639  -0.48595
 Alpha  occ. eigenvalues --   -0.48304  -0.48155  -0.47997  -0.47706  -0.47627
 Alpha  occ. eigenvalues --   -0.47457  -0.47184  -0.47142  -0.47083  -0.46769
 Alpha  occ. eigenvalues --   -0.46764  -0.46373  -0.46333  -0.45758  -0.45660
 Alpha  occ. eigenvalues --   -0.45627  -0.45509  -0.45327  -0.45140  -0.45016
 Alpha  occ. eigenvalues --   -0.44763  -0.44573  -0.44476  -0.44377  -0.44213
 Alpha  occ. eigenvalues --   -0.44171  -0.43961  -0.43916  -0.43689  -0.43605
 Alpha  occ. eigenvalues --   -0.43556  -0.43318  -0.43193  -0.43021  -0.42854
 Alpha  occ. eigenvalues --   -0.42759  -0.42456  -0.42286  -0.42256  -0.41944
 Alpha  occ. eigenvalues --   -0.41858  -0.41464  -0.41319  -0.41168  -0.41044
 Alpha  occ. eigenvalues --   -0.41019  -0.40899  -0.40872  -0.40727  -0.40666
 Alpha  occ. eigenvalues --   -0.40144  -0.40024  -0.39706  -0.39553  -0.39269
 Alpha  occ. eigenvalues --   -0.39233  -0.39134  -0.39089  -0.39015  -0.38851
 Alpha  occ. eigenvalues --   -0.38798  -0.38666  -0.38658  -0.38398  -0.38364
 Alpha  occ. eigenvalues --   -0.38152  -0.37916  -0.37755  -0.37673  -0.37409
 Alpha  occ. eigenvalues --   -0.37252  -0.37044  -0.37001  -0.36849  -0.36845
 Alpha  occ. eigenvalues --   -0.36793  -0.36735  -0.36570  -0.36466  -0.36376
 Alpha  occ. eigenvalues --   -0.36028  -0.35949  -0.35821  -0.35679  -0.35610
 Alpha  occ. eigenvalues --   -0.35390  -0.35296  -0.34952  -0.34220  -0.34003
 Alpha  occ. eigenvalues --   -0.33911  -0.33232  -0.32999  -0.32870  -0.32488
 Alpha  occ. eigenvalues --   -0.32085  -0.32082  -0.31732  -0.31662  -0.31614
 Alpha  occ. eigenvalues --   -0.31201  -0.31017  -0.29928  -0.29722  -0.29498
 Alpha  occ. eigenvalues --   -0.29133  -0.29028  -0.28672  -0.26974  -0.26776
 Alpha  occ. eigenvalues --   -0.26622  -0.26138  -0.26131  -0.25869  -0.25597
 Alpha  occ. eigenvalues --   -0.25362  -0.25280  -0.24791  -0.21302  -0.20857
 Alpha  occ. eigenvalues --   -0.18728  -0.18687
 Alpha virt. eigenvalues --   -0.11027  -0.10897  -0.05660  -0.05331  -0.03721
 Alpha virt. eigenvalues --   -0.03583  -0.01895  -0.01874  -0.00892  -0.00836
 Alpha virt. eigenvalues --   -0.00370   0.00738   0.00789   0.00951   0.01752

 Mulliken charges:
               1
     1  Mg  12.000402
     2  C    6.019955
     3  C    5.986712
     4  C    5.984023
     5  C    6.010807
     6  N    7.003998
     7  C    5.972554
     8  C    6.000000
     9  C    5.993164
    10  C    6.029208
    11  C    5.998698
    12  C    6.000838
    13  C    5.999660
    14  H    1.005049
    15  N    6.994010
    16  C    6.035997
    17  C    6.017122
    18  C    6.010351
    19  C    6.034501
    20  C    5.997550
    21  C    6.012807
    22  O    8.016048
    23  C    5.993589
    24  N    7.001394
    25  C    6.028964
    26  C    5.992328
    27  C    6.004984
    28  C    5.969224
    29  C    5.995967
    30  C    6.008459
    31  C    5.999305
    32  N    7.001367
    33  C    5.967963
    34  C    5.972795
    35  C    6.000731
    36  C    5.969503
    37  C    6.001877
    38  C    5.980916
    39  O    7.971906
    40  C    6.002906
    41  C    5.993377
    42  O    7.998068
    43  O    7.997765
    44  C    6.002707
    45  H    1.010047
    46  H    1.007458
    47  H    0.991289
    48  H    1.004160
    49  H    1.002090
    50  H    1.000898
    51  H    1.014346
    52  H    0.999060
    53  H    0.988539
    54  H    1.000305
    55  H    1.002026
    56  H    0.996192
    57  H    1.015529
    58  H    1.014351
    59  H    1.016514
    60  H    1.009006
    61  H    1.011646
    62  H    1.008717
    63  H    0.999514
    64  H    1.000543
    65  H    0.997963
    66  H    1.002883
    67  H    1.010586
    68  H    1.000353
    69  H    0.987653
    70  H    0.994852
    71  H    0.998505
    72  H    1.001635
    73  H    0.984650
    74  H    0.982788
    75  H    0.987232
    76  H    0.990758
    77  H    0.993533
    78  H    0.995889
    79  H    0.998942
    80  Mg  11.999648
    81  C    6.005580
    82  C    5.991734
    83  C    5.998696
    84  C    6.003191
    85  N    7.000037
    86  C    5.989129
    87  C    6.002485
    88  C    5.996550
    89  C    6.011970
    90  C    5.999532
    91  C    6.001953
    92  C    5.999373
    93  H    1.000130
    94  N    6.999636
    95  C    6.014735
    96  C    6.007477
    97  C    6.005564
    98  C    6.009130
    99  C    5.998822
   100  C    6.004932
   101  O    8.009090
   102  C    5.997602
   103  N    7.000699
   104  C    6.011490
   105  C    5.996170
   106  C    6.004327
   107  C    5.987975
   108  C    5.999381
   109  C    5.999941
   110  C    6.000145
   111  N    7.000137
   112  C    5.987044
   113  C    5.990612
   114  C    5.997127
   115  C    5.991042
   116  C    6.000299
   117  C    5.994214
   118  O    7.987648
   119  C    6.000845
   120  C    5.997891
   121  O    7.999147
   122  O    7.999277
   123  C    6.000352
   124  H    1.001624
   125  H    1.002884
   126  H    0.995911
   127  H    1.000096
   128  H    1.000413
   129  H    0.999508
   130  H    1.003554
   131  H    0.999251
   132  H    0.998700
   133  H    1.002024
   134  H    0.997698
   135  H    0.999336
   136  H    1.007062
   137  H    1.006407
   138  H    1.006647
   139  H    1.001906
   140  H    1.003386
   141  H    1.005202
   142  H    1.000010
   143  H    1.000039
   144  H    1.001611
   145  H    0.997627
   146  H    1.003526
   147  H    1.001984
   148  H    0.996007
   149  H    0.999353
   150  H    1.001107
   151  H    0.998082
   152  H    0.994062
   153  H    0.994046
   154  H    0.995719
   155  H    0.996743
   156  H    0.998270
   157  H    0.997893
   158  H    0.999553
 Sum of Mulliken charges = 624.00000

 Dipole moment (field-independent basis, Debye):
    X=            -10.3093    Y=              2.7599    Z=              3.9568  Tot=             11.3823
 Quadrupole moment (field-independent basis, Debye-Ang):
   XX=            285.7628   YY=              0.4256   ZZ=              0.5419
   XY=             54.1530   XZ=           -181.5287   YZ=              0.4719

 Normal termination of Gaussian 16 at Fri Oct 15 16:00:33 2021.
