 Gaussian 16, Revision A.03,
 Gaussian 16:  ES64L-G16RevA.03 25-Dec-2016

 --------------------------------------------------------
 #p PBE1PBE/Def2SVP td=(nstates=5) density=(transition=1)
 --------------------------------------------------------

 --------------------------------
 TDDFT excited states in gaussian
 --------------------------------
 Symbolic Z-matrix:
 Charge =  0 Multiplicity = 1

                         Standard orientation:
 ---------------------------------------------------------------------
 Center     Atomic      Atomic             Coordinates (Angstroms)
 Number     Number       Type             X           Y           Z
 ---------------------------------------------------------------------
      1         12           0       12.707759   -0.691502   -0.340022
      2          6           0       14.980605    1.910403    0.057065
      3          6           0       10.169503    1.465273    0.465238
      4          6           0       10.574671   -3.347817   -0.430324
      5          6           0       15.520868   -2.791298   -0.897343
      6          7           0       12.591200    1.422590    0.230402
      7          6           0       13.649659    2.291746    0.198555
      8          6           0       13.078289    3.681061    0.492375
      9          6           0       11.635297    3.454531    0.906781
     10          6           0       11.441110    2.008213    0.465840
     11          6           0       11.214380    3.710869    2.328964
     12          6           0       13.273499    4.767635   -0.669303
     13          6           0       12.508514    6.116505   -0.476959
     14          1           0       13.230992    7.282219    0.247749
     15          7           0       10.646242   -0.855984   -0.167048
     16          6           0        9.783128    0.125549    0.195127
     17          6           0        8.479744   -0.480871    0.275824
     18          6           0        8.609387   -1.877721    0.020453
     19          6           0        9.970339   -2.098757   -0.182775
     20          6           0        7.276865    0.348655    0.604074
     21          6           0        7.480253   -2.943572    0.128524
     22          8           0        7.727240   -4.131360    0.236813
     23          6           0        6.068323   -2.612127    0.230850
     24          7           0       13.010491   -2.644761   -0.612904
     25          6           0       11.981730   -3.584950   -0.662171
     26          6           0       12.493574   -5.003107   -0.968864
     27          6           0       13.978943   -4.720153   -1.378529
     28          6           0       14.165282   -3.267066   -0.973955
     29          6           0       12.181521   -6.047259    0.021729
     30          6           0       14.463222   -5.042551   -2.898942
     31          6           0       15.601516   -6.033174   -3.161246
     32          7           0       14.896986   -0.521619   -0.361503
     33          6           0       15.856336   -1.468854   -0.585616
     34          6           0       17.162301   -0.903796   -0.527844
     35          6           0       16.871959    0.501753   -0.341850
     36          6           0       15.468214    0.648552   -0.159870
     37          6           0       18.413062   -1.666291   -0.747535
     38          6           0       17.479077    1.812341   -0.304707
     39          8           0       18.610463    2.225147   -0.468005
     40          6           0       16.206781    2.807807   -0.021662
     41          6           0       16.471076    3.717502    1.122193
     42          8           0       16.585260    3.341597    2.268224
     43          8           0       16.555417    5.005910    0.747050
     44          6           0       16.565251    6.047263    1.845068
     45          1           0        9.350961    2.159271    0.668612
     46          1           0        9.870726   -4.182263   -0.446733
     47          1           0       16.238499   -3.585101   -1.115751
     48          1           0       13.700719    3.960926    1.342178
     49          1           0       10.989495    4.126937    0.342611
     50          1           0       11.101105    2.679890    2.662744
     51          1           0       10.316800    4.325665    2.397412
     52          1           0       12.024125    4.116696    2.935742
     53          1           0       12.880353    4.232786   -1.534128
     54          1           0       14.333073    4.986898   -0.795552
     55          1           0       11.599702    5.983663    0.108655
     56          1           0       12.199199    6.466618   -1.461758
     57          1           0        7.402436    1.428068    0.694475
     58          1           0        6.966953    0.030452    1.598914
     59          1           0        6.425645    0.143450   -0.045392
     60          1           0        5.734556   -1.859275    0.944193
     61          1           0        5.395077   -3.460626    0.352173
     62          1           0        5.843660   -2.279933   -0.782479
     63          1           0       11.908397   -5.170407   -1.873532
     64          1           0       14.479044   -5.306841   -0.608114
     65          1           0       11.531309   -6.859789   -0.303618
     66          1           0       11.706637   -5.557900    0.872493
     67          1           0       13.054143   -6.587218    0.389039
     68          1           0       14.773213   -4.098673   -3.346980
     69          1           0       13.709427   -5.401624   -3.600655
     70          1           0       16.557420   -5.576586   -3.419232
     71          1           0       15.347580   -6.856596   -3.828172
     72          1           0       15.847248   -6.501578   -2.208092
     73          1           0       18.354214   -2.595592   -0.181427
     74          1           0       19.305493   -1.088813   -0.507812
     75          1           0       18.374844   -2.062177   -1.762892
     76          1           0       16.133312    3.437908   -0.907453
     77          1           0       16.997449    6.907679    1.334696
     78          1           0       17.184546    5.683158    2.664577
     79          1           0       15.523063    6.241422    2.098964
     80         12           0      -13.006169   -0.610715    0.380467
     81          6           0      -13.573215    2.460883   -1.212803
     82          6           0      -11.670420    1.126809    3.035837
     83          6           0      -12.454223   -3.515639    1.846227
     84          6           0      -14.255819   -2.215863   -2.483895
     85          7           0      -12.767940    1.544878    0.832237
     86          6           0      -13.040271    2.664338    0.045687
     87          6           0      -12.988804    4.021239    0.851807
     88          6           0      -12.254766    3.529845    2.084457
     89          6           0      -12.224715    1.947764    2.001619
     90          6           0      -10.736860    4.026953    2.074225
     91          6           0      -14.515181    4.326128    1.191277
     92          6           0      -14.999574    5.836681    1.058266
     93          1           0      -13.868822    6.765694    1.419376
     94          7           0      -12.066836   -1.101080    2.078449
     95          6           0      -11.586710   -0.295946    3.022029
     96          6           0      -11.055980   -1.017133    4.148480
     97          6           0      -11.424930   -2.359020    3.928487
     98          6           0      -11.971772   -2.391753    2.519856
     99          6           0      -10.358278   -0.424816    5.317702
    100          6           0      -11.408575   -3.549394    4.865188
    101          8           0      -11.996726   -4.607885    4.616035
    102          6           0      -10.550968   -3.511242    6.133118
    103          7           0      -13.280265   -2.607265   -0.283468
    104          6           0      -13.013162   -3.614666    0.613334
    105          6           0      -13.504714   -4.932730    0.018812
    106          6           0      -14.213789   -4.512458   -1.359554
    107          6           0      -13.976113   -3.025468   -1.386198
    108          6           0      -12.319433   -5.959137   -0.053458
    109          6           0      -15.667446   -4.921356   -1.538695
    110          6           0      -15.945505   -5.687289   -2.869937
    111          7           0      -13.736197   -0.010725   -1.473433
    112          6           0      -14.201762   -0.795344   -2.574913
    113          6           0      -14.571797    0.044211   -3.657828
    114          6           0      -14.336382    1.331075   -3.145200
    115          6           0      -13.788607    1.219458   -1.850393
    116          6           0      -15.130849   -0.287640   -5.003850
    117          6           0      -14.419913    2.728555   -3.426340
    118          8           0      -14.760003    3.350472   -4.405269
    119          6           0      -14.027712    3.495742   -2.131977
    120          6           0      -13.055077    4.563063   -2.480922
    121          8           0      -11.884120    4.427321   -2.824239
    122          8           0      -13.679639    5.730194   -2.296200
    123          6           0      -12.896848    6.931810   -2.495483
    124          1           0      -11.352032    1.548867    3.991185
    125          1           0      -12.235146   -4.443488    2.380573
    126          1           0      -14.708051   -2.669060   -3.368590
    127          1           0      -12.592276    4.750456    0.146006
    128          1           0      -12.785619    3.835412    2.985459
    129          1           0      -10.493424    4.601763    1.180457
    130          1           0      -10.090377    3.150763    2.119832
    131          1           0      -10.648242    4.618998    2.985187
    132          1           0      -14.793612    4.050914    2.208114
    133          1           0      -15.103518    3.676301    0.542918
    134          1           0      -15.718541    6.078516    1.841106
    135          1           0      -15.578951    5.992599    0.147892
    136          1           0      -11.021899   -0.556839    6.173350
    137          1           0      -10.197250    0.644250    5.186056
    138          1           0       -9.399191   -0.894877    5.533136
    139          1           0      -10.479596   -4.579849    6.334508
    140          1           0      -10.992406   -2.938960    6.949893
    141          1           0       -9.511523   -3.202150    6.024688
    142          1           0      -14.252700   -5.465595    0.605830
    143          1           0      -13.643942   -4.944858   -2.182095
    144          1           0      -12.720584   -6.897151    0.330512
    145          1           0      -11.423066   -5.639368    0.478025
    146          1           0      -12.128344   -6.270288   -1.081156
    147          1           0      -16.376385   -4.096527   -1.474055
    148          1           0      -15.816062   -5.693900   -0.782924
    149          1           0      -15.013616   -5.901265   -3.393541
    150          1           0      -16.451926   -5.055603   -3.599458
    151          1           0      -16.472677   -6.623646   -2.685949
    152          1           0      -16.157626   -0.549337   -4.746732
    153          1           0      -14.501352   -1.076525   -5.414961
    154          1           0      -15.178494    0.579232   -5.661411
    155          1           0      -14.949464    4.014377   -1.865008
    156          1           0      -12.432814    6.914313   -3.482017
    157          1           0      -12.046091    7.080262   -1.829589
    158          1           0      -13.598449    7.763334   -2.426560
 ---------------------------------------------------------------------

 SCF Done:  E(RPBE1PBE) =  -4067.40562068     A.U. after   16 cycles

 Excitation energies and oscillator strengths:

 Excited State   1:      Singlet-A      1.8564 eV  667.87 nm  f=0.4485  <S**2>=0.000
     309 -> 316       -0.16377
     311 -> 313        0.65728
     312 -> 314       -0.22030
     311 <- 313       -0.10586
 This state for optimization and/or second-order correction.
 Total Energy, E(TD-HF/TD-DFT) =  -4067.33739928
 Copying the excited state density for this state as the 1-particle RhoCI density.

 Excited State   2:      Singlet-A      1.8620 eV  665.87 nm  f=0.3030  <S**2>=0.000
     310 -> 315       -0.14721
     311 -> 313        0.21983
     312 -> 314        0.65803
     312 <- 314       -0.10253

 Excited State   3:      Singlet-A      1.9086 eV  649.61 nm  f=0.0000  <S**2>=0.000
     312 -> 313        0.70709

 Excited State   4:      Singlet-A      1.9371 eV  640.04 nm  f=0.0000  <S**2>=0.000
     311 -> 314        0.70710

 Excited State   5:      Singlet-A      2.2290 eV  556.23 nm  f=0.0867  <S**2>=0.000
     309 -> 313        0.64382
     311 -> 316        0.27287

 The electronic state is 1-A.
 Alpha  occ. eigenvalues --  -46.91262 -46.91233 -19.26048 -19.25061 -19.19969
 Alpha  occ. eigenvalues --  -19.19272 -19.19204 -19.18922 -19.18475 -19.17961
 Alpha  occ. eigenvalues --  -14.42215 -14.41843 -14.41542 -14.41201 -14.39773
 Alpha  occ. eigenvalues --  -14.38725 -14.38327 -14.38098 -10.35489 -10.34951
 Alpha  occ. eigenvalues --  -10.33201 -10.32687 -10.31807 -10.30585 -10.29508
 Alpha  occ. eigenvalues --  -10.29355 -10.29330 -10.28925 -10.28845 -10.28713
 Alpha  occ. eigenvalues --  -10.28506 -10.28462 -10.28285 -10.28149 -10.28088
 Alpha  occ. eigenvalues --  -10.28016 -10.27440 -10.27318 -10.27126 -10.27091
 Alpha  occ. eigenvalues --  -10.26735 -10.26624 -10.26428 -10.26361 -10.26156
 Alpha  occ. eigenvalues --  -10.25986 -10.25937 -10.25800 -10.25754 -10.25467
 Alpha  occ. eigenvalues --  -10.25460 -10.25427 -10.25330 -10.25324 -10.25200
 Alpha  occ. eigenvalues --  -10.25130 -10.25125 -10.25099 -10.25047 -10.25009
 Alpha  occ. eigenvalues --  -10.24912 -10.24895 -10.24763 -10.24716 -10.24710
 Alpha  occ. eigenvalues --  -10.24665 -10.24509 -10.24503 -10.24497 -10.24477
 Alpha  occ. eigenvalues --  -10.24351 -10.23993 -10.23982 -10.23790 -10.23691
 Alpha  occ. eigenvalues --  -10.23544 -10.23484 -10.23478 -10.23409 -10.23246
 Alpha  occ. eigenvalues --  -10.23204 -10.23035 -10.23023 -10.22994 -10.22950
 Alpha  occ. eigenvalues --  -10.21705  -3.13519  -3.13499  -1.86372  -1.86357
 Alpha  occ. eigenvalues --   -1.85876  -1.85874  -1.85774  -1.85725  -1.12051
 Alpha  occ. eigenvalues --   -1.10612  -1.05690  -1.04909  -1.04423  -1.04272
 Alpha  occ. eigenvalues --   -1.02059  -1.01550  -0.99854  -0.99521  -0.98815
 Alpha  occ. eigenvalues --   -0.98797  -0.97943  -0.97586  -0.97077  -0.96996
 Alpha  occ. eigenvalues --   -0.87237  -0.86799  -0.83906  -0.83478  -0.83020
 Alpha  occ. eigenvalues --   -0.82763  -0.82748  -0.82644  -0.82302  -0.81878
 Alpha  occ. eigenvalues --   -0.81614  -0.81252  -0.81013  -0.80992  -0.78900
 Alpha  occ. eigenvalues --   -0.78356  -0.77991  -0.77914  -0.76791  -0.76706
 Alpha  occ. eigenvalues --   -0.76623  -0.76053  -0.75711  -0.75615  -0.75095
 Alpha  occ. eigenvalues --   -0.74748  -0.73125  -0.73110  -0.72115  -0.71890
 Alpha  occ. eigenvalues --   -0.71571  -0.71193  -0.70204  -0.70017  -0.69520
 Alpha  occ. eigenvalues --   -0.69380  -0.67675  -0.67234  -0.66269  -0.65889
 Alpha  occ. eigenvalues --   -0.63676  -0.63537  -0.63314  -0.63265  -0.62719
 Alpha  occ. eigenvalues --   -0.62134  -0.61859  -0.61344  -0.60091  -0.59909
 Alpha  occ. eigenvalues --   -0.59879  -0.59790  -0.59632  -0.59166  -0.59110
 Alpha  occ. eigenvalues --   -0.58753  -0.57175  -0.56002  -0.55277  -0.55066
 Alpha  occ. eigenvalues --   -0.54283  -0.54261  -0.53783  -0.53589  -0.53444
 Alpha  occ. eigenvalues --   -0.53292  -0.52570  -0.52427  -0.51963  -0.51692
 Alpha  occ. eigenvalues --   -0.51241  -0.50971  -0.50325  -0.50290  -0.49938
 Alpha  occ. eigenvalues --   -0.49761  -0.49353  -0.49107  -0.49082  -0.48518
 Alpha  occ. eigenvalues --   -0.48401  -0.48113  -0.47787  -0.47515  -0.47362
 Alpha  occ. eigenvalues --   -0.47286  -0.47152  -0.47130  -0.46900  -0.46801
 Alpha  occ. eigenvalues --   -0.46733  -0.46482  -0.46038  -0.45876  -0.45608
 Alpha  occ. eigenvalues --   -0.45586  -0.45432  -0.45334  -0.45193  -0.45066
 Alpha  occ. eigenvalues --   -0.44948  -0.44806  -0.44637  -0.44556  -0.44323
 Alpha  occ. eigenvalues --   -0.44053  -0.43936  -0.43897  -0.43694  -0.43599
 Alpha  occ. eigenvalues --   -0.43370  -0.43219  -0.43127  -0.42937  -0.42856
 Alpha  occ. eigenvalues --   -0.42660  -0.42426  -0.42409  -0.42257  -0.42139
 Alpha  occ. eigenvalues --   -0.41962  -0.41804  -0.41603  -0.41583  -0.41410
 Alpha  occ. eigenvalues --   -0.41342  -0.41215  -0.41126  -0.40977  -0.40871
 Alpha  occ. eigenvalues --   -0.40786  -0.40132  -0.39971  -0.39905  -0.39829
 Alpha  occ. eigenvalues --   -0.39595  -0.39573  -0.39374  -0.39361  -0.39237
 Alpha  occ. eigenvalues --   -0.39140  -0.39046  -0.38866  -0.38614  -0.38522
 Alpha  occ. eigenvalues --   -0.38268  -0.38069  -0.37976  -0.37669  -0.37632
 Alpha  occ. eigenvalues --   -0.37544  -0.37503  -0.37331  -0.36860  -0.36768
 Alpha  occ. eigenvalues --   -0.36640  -0.36570  -0.36329  -0.36138  -0.36055
 Alpha  occ. eigenvalues --   -0.35811  -0.35731  -0.35440  -0.35291  -0.35082
 Alpha  occ. eigenvalues --   -0.35073  -0.34729  -0.34459  -0.34206  -0.33791
 Alpha  occ. eigenvalues --   -0.33753  -0.33356  -0.32727  -0.32723  -0.32487
 Alpha  occ. eigenvalues --   -0.32298  -0.32025  -0.31917  -0.31570  -0.31418
 Alpha  occ. eigenvalues --   -0.31341  -0.30990  -0.29546  -0.29482  -0.29250
 Alpha  occ. eigenvalues --   -0.29098  -0.28241  -0.27883  -0.27271  -0.26612
 Alpha  occ. eigenvalues --   -0.26534  -0.26458  -0.26058  -0.25374  -0.25343
 Alpha  occ. eigenvalues --   -0.25194  -0.24687  -0.24674  -0.21116  -0.21088
 Alpha  occ. eigenvalues --   -0.18769  -0.18754
 Alpha virt. eigenvalues --   -0.11228  -0.11135  -0.05392  -0.05369  -0.03611
 Alpha virt. eigenvalues --   -0.03589  -0.01718  -0.01692   0.00478   0.00563
 Alpha virt. eigenvalues --    0.00815   0.01348   0.01366   0.01683   0.01694

 Mulliken charges:
               1
     1  Mg  12.002693
     2  C    6.015773
     3  C    5.986066
     4  C    5.985879
     5  C    6.009094
     6  N    7.004792
     7  C    5.969717
     8  C    6.006261
     9  C    5.993772
    10  C    6.025849
    11  C    5.999016
    12  C    6.004542
    13  C    5.998291
    14  H    1.001090
    15  N    6.996338
    16  C    6.032686
    17  C    6.026429
    18  C    6.007894
    19  C    6.030341
    20  C    5.995692
    21  C    6.011145
    22  O    8.019862
    23  C    5.993365
    24  N    6.996437
    25  C    6.038324
    26  C    5.991756
    27  C    6.012711
    28  C    5.966559
    29  C    5.997828
    30  C    6.002635
    31  C    6.000322
    32  N    7.002197
    33  C    5.971393
    34  C    5.970897
    35  C    5.997291
    36  C    5.972312
    37  C    6.000892
    38  C    5.984379
    39  O    7.971724
    40  C    5.997273
    41  C    5.996751
    42  O    7.995453
    43  O    7.998937
    44  C    6.000781
    45  H    1.007898
    46  H    1.008504
    47  H    0.989586
    48  H    1.000780
    49  H    0.999438
    50  H    0.995862
    51  H    1.000257
    52  H    1.011209
    53  H    0.994217
    54  H    1.005197
    55  H    0.993943
    56  H    0.997926
    57  H    1.018646
    58  H    1.020164
    59  H    1.018394
    60  H    1.004721
    61  H    1.012792
    62  H    1.006869
    63  H    0.999135
    64  H    0.998158
    65  H    1.001562
    66  H    0.997029
    67  H    1.011362
    68  H    1.002747
    69  H    0.989343
    70  H    1.003959
    71  H    0.994903
    72  H    0.998261
    73  H    0.983038
    74  H    0.987499
    75  H    0.980764
    76  H    0.993295
    77  H    0.996757
    78  H    0.998350
    79  H    0.993995
    80  Mg  12.000862
    81  C    5.991960
    82  C    5.998761
    83  C    6.007750
    84  C    6.000728
    85  N    6.994438
    86  C    6.010313
    87  C    5.998801
    88  C    6.000891
    89  C    5.993609
    90  C    6.001094
    91  C    5.999696
    92  C    5.998990
    93  H    1.001869
    94  N    7.002047
    95  C    5.990584
    96  C    5.991928
    97  C    5.996871
    98  C    5.987802
    99  C    6.001429
   100  C    5.996032
   101  O    7.990902
   102  C    6.001987
   103  N    7.002280
   104  C    5.990142
   105  C    6.003504
   106  C    5.996363
   107  C    6.008743
   108  C    6.001021
   109  C    5.997707
   110  C    5.999881
   111  N    7.000183
   112  C    6.010574
   113  C    6.007590
   114  C    6.001081
   115  C    6.009262
   116  C    6.000768
   117  C    6.005546
   118  O    8.010092
   119  C    6.001443
   120  C    6.000973
   121  O    8.001528
   122  O    8.000410
   123  C    5.999419
   124  H    0.996075
   125  H    0.999311
   126  H    1.004556
   127  H    0.998831
   128  H    0.999432
   129  H    0.995559
   130  H    1.001032
   131  H    0.998935
   132  H    1.003450
   133  H    0.997928
   134  H    1.001212
   135  H    0.998781
   136  H    0.994415
   137  H    0.994979
   138  H    0.993950
   139  H    0.995862
   140  H    0.997550
   141  H    0.997118
   142  H    0.999897
   143  H    1.000896
   144  H    0.999537
   145  H    1.001754
   146  H    0.997179
   147  H    0.999979
   148  H    1.003969
   149  H    1.000570
   150  H    0.999114
   151  H    1.002102
   152  H    1.004934
   153  H    1.004321
   154  H    1.003886
   155  H    1.001563
   156  H    1.000214
   157  H    1.001957
   158  H    1.001298
 Sum of Mulliken charges = 624.00000

 Dipole moment (field-independent basis, Debye):
    X=            -11.0954    Y=             -0.7202    Z=             -1.9454  Tot=             11.2876
 Quadrupole moment (field-independent basis, Debye-Ang):
   XX=           -214.1190   YY=             -0.4147   ZZ=             -3.1239
   XY=            -19.3410   XZ=             50.2943   YZ=              0.3922

 Normal termination of Gaussian 16 at Fri Oct 15 05:51:21 2021.
