 Gaussian 16, Revision A.03,
 Gaussian 16:  ES64L-G16RevA.03 25-Dec-2016

 --------------------------------------------------------
 #p PBE1PBE/Def2SVP td=(nstates=5) density=(transition=1)
 --------------------------------------------------------

 --------------------------------
 TDDFT excited states in gaussian
 --------------------------------
 Symbolic Z-matrix:
 Charge =  0 Multiplicity = 1

                         Standard orientation:
 ---------------------------------------------------------------------
 Center     Atomic      Atomic             Coordinates (Angstroms)
 Number     Number       Type             X           Y           Z
 ---------------------------------------------------------------------
      1         12           0       21.547822   -0.364648    0.032452
      2          6           0       18.178349   -1.305722   -0.301053
      3          6           0       21.781795   -0.258958   -3.396285
      4          6           0       24.419779    1.226102    0.441023
      5          6           0       21.096135   -0.259343    3.554203
      6          7           0       20.083493   -0.490586   -1.616663
      7          6           0       18.726919   -0.898203   -1.535055
      8          6           0       18.170950   -1.300062   -2.838678
      9          6           0       19.395909   -1.045322   -3.819181
     10          6           0       20.517537   -0.600804   -2.893744
     11          6           0       19.681967   -2.256313   -4.739881
     12          6           0       17.030510   -0.456046   -3.320302
     13          6           0       17.106827    1.047641   -3.016552
     14          1           0       16.557376    2.121331   -4.034630
     15          7           0       22.972719    0.371454   -1.288624
     16          6           0       22.919264    0.195021   -2.622669
     17          6           0       24.160641    0.655385   -3.192764
     18          6           0       24.984660    1.026722   -2.101825
     19          6           0       24.160488    0.861782   -0.893693
     20          6           0       24.478424    0.745517   -4.661150
     21          6           0       26.431950    1.507833   -2.201275
     22          8           0       26.984303    1.615475   -3.278673
     23          6           0       27.306010    2.004720   -1.088057
     24          7           0       22.492650    0.605158    1.709301
     25          6           0       23.738653    1.167436    1.627579
     26          6           0       24.350331    1.412790    3.046080
     27          6           0       23.114750    1.204121    3.973135
     28          6           0       22.183738    0.458726    3.042111
     29          6           0       25.503814    0.461844    3.447194
     30          6           0       22.306597    2.526430    4.376616
     31          6           0       21.941202    2.678579    5.808741
     32          7           0       20.083203   -0.781218    1.363616
     33          6           0       20.124115   -0.868320    2.700013
     34          6           0       18.966323   -1.700859    3.201284
     35          6           0       18.218765   -1.920930    2.000797
     36          6           0       18.862620   -1.219233    0.942616
     37          6           0       18.616205   -2.163441    4.608303
     38          6           0       16.966367   -2.435053    1.526576
     39          8           0       16.050321   -2.975129    2.126345
     40          6           0       16.913429   -2.074149   -0.012785
     41          6           0       15.791365   -1.072684   -0.192114
     42          8           0       15.750605    0.048222    0.195051
     43          8           0       14.834364   -1.649501   -0.999675
     44          6           0       13.830320   -0.701444   -1.493038
     45          1           0       21.905326   -0.418521   -4.469298
     46          1           0       25.435561    1.587983    0.608684
     47          1           0       21.086207   -0.328066    4.643977
     48          1           0       17.841842   -2.335510   -2.751358
     49          1           0       19.330629   -0.155634   -4.445433
     50          1           0       19.759280   -1.754602   -5.704622
     51          1           0       18.828203   -2.928601   -4.654167
     52          1           0       20.638689   -2.735187   -4.530451
     53          1           0       16.047559   -0.870404   -3.094647
     54          1           0       16.900230   -0.440097   -4.402595
     55          1           0       18.161746    1.236590   -2.814819
     56          1           0       16.594985    1.109266   -2.056016
     57          1           0       24.935070    1.705376   -4.904759
     58          1           0       23.582989    0.537318   -5.246644
     59          1           0       25.207290   -0.049341   -4.821238
     60          1           0       26.986903    2.936216   -0.621634
     61          1           0       28.201740    2.289715   -1.640119
     62          1           0       27.654138    1.209780   -0.427663
     63          1           0       24.737460    2.431426    3.067262
     64          1           0       23.333076    0.606194    4.858340
     65          1           0       25.156188   -0.181920    4.254969
     66          1           0       26.447285    0.995328    3.561608
     67          1           0       25.707560   -0.204847    2.610036
     68          1           0       21.412677    2.640991    3.763955
     69          1           0       22.981112    3.335727    4.096507
     70          1           0       22.306845    3.607590    6.245681
     71          1           0       22.266801    1.845606    6.432259
     72          1           0       20.861629    2.731615    5.946868
     73          1           0       17.626464   -1.761843    4.825697
     74          1           0       19.452080   -1.905657    5.259826
     75          1           0       18.476541   -3.241670    4.531812
     76          1           0       16.773611   -2.954478   -0.639741
     77          1           0       14.219035    0.310396   -1.607016
     78          1           0       13.059139   -0.728181   -0.723126
     79          1           0       13.379826   -1.176607   -2.364038
     80         12           0      -20.524665    0.910801   -0.321701
     81          6           0      -21.831096   -2.424983   -0.297080
     82          6           0      -17.451375   -0.527864    0.641992
     83          6           0      -19.360343    3.882087    0.399397
     84          6           0      -23.662178    2.086641   -0.901249
     85          7           0      -19.758791   -1.238657    0.061298
     86          6           0      -20.487126   -2.367594   -0.112849
     87          6           0      -19.560732   -3.566246    0.009071
     88          6           0      -18.124797   -3.037463    0.284103
     89          6           0      -18.428276   -1.526930    0.303339
     90          6           0      -17.458003   -3.632031    1.649356
     91          6           0      -19.556673   -4.475290   -1.293791
     92          6           0      -19.708817   -5.981318   -1.077746
     93          1           0      -19.113659   -6.684537    0.207600
     94          7           0      -18.659716    1.584956    0.476551
     95          6           0      -17.592546    0.866079    0.753554
     96          6           0      -16.582484    1.766056    1.234453
     97          6           0      -17.006443    3.107509    1.057306
     98          6           0      -18.378069    2.901809    0.671995
     99          6           0      -15.159496    1.313399    1.557514
    100          6           0      -16.311711    4.458858    1.117206
    101          8           0      -16.904498    5.514812    0.992369
    102          6           0      -14.816951    4.427031    1.280369
    103          7           0      -21.491778    2.672045    0.077793
    104          6           0      -20.734200    3.841851    0.159816
    105          6           0      -21.565803    5.125921   -0.106836
    106          6           0      -22.876862    4.461652   -0.673605
    107          6           0      -22.677363    2.956472   -0.496513
    108          6           0      -21.730732    5.948081    1.179559
    109          6           0      -23.107671    4.731038   -2.235474
    110          6           0      -24.162413    5.705199   -2.641102
    111          7           0      -22.323502    0.061637   -0.662924
    112          6           0      -23.536810    0.686385   -0.855066
    113          6           0      -24.653739   -0.252613   -0.918367
    114          6           0      -24.023073   -1.530016   -0.704637
    115          6           0      -22.658425   -1.270474   -0.435838
    116          6           0      -26.030619    0.113486   -1.340397
    117          6           0      -24.223352   -2.970997   -0.702970
    118          8           0      -25.285124   -3.581727   -0.923138
    119          6           0      -22.767706   -3.645746   -0.397665
    120          6           0      -22.946409   -4.364599    0.853919
    121          8           0      -23.333721   -3.846602    1.878426
    122          8           0      -22.618762   -5.656128    0.729142
    123          6           0      -22.767089   -6.630525    1.855332
    124          1           0      -16.459104   -0.922717    0.869523
    125          1           0      -18.975511    4.886030    0.205066
    126          1           0      -24.633531    2.506369   -1.169982
    127          1           0      -19.890261   -4.136066    0.877888
    128          1           0      -17.415543   -3.369395   -0.474296
    129          1           0      -17.927292   -4.574443    1.931885
    130          1           0      -17.608414   -2.850225    2.394292
    131          1           0      -16.387188   -3.772907    1.503261
    132          1           0      -18.709210   -4.323412   -1.960849
    133          1           0      -20.413895   -4.213743   -1.914047
    134          1           0      -19.326060   -6.549377   -1.925892
    135          1           0      -20.789145   -6.119373   -1.121852
    136          1           0      -14.447760    1.464210    0.745686
    137          1           0      -15.140883    0.298126    1.954862
    138          1           0      -14.839129    1.916487    2.406772
    139          1           0      -14.301996    3.661874    0.698677
    140          1           0      -14.471561    4.289709    2.304087
    141          1           0      -14.392353    5.310160    0.802908
    142          1           0      -21.023901    5.713438   -0.847459
    143          1           0      -23.721446    4.857874   -0.109727
    144          1           0      -21.106042    5.618640    2.009703
    145          1           0      -22.750236    5.898522    1.560378
    146          1           0      -21.509946    6.994498    0.966392
    147          1           0      -23.364301    3.847055   -2.819240
    148          1           0      -22.195231    5.034760   -2.747285
    149          1           0      -23.712736    6.556254   -3.150970
    150          1           0      -24.601227    5.999709   -1.687607
    151          1           0      -24.875815    5.235617   -3.318272
    152          1           0      -26.501297   -0.692739   -1.902011
    153          1           0      -25.946668    1.071295   -1.853540
    154          1           0      -26.603595    0.271660   -0.425711
    155          1           0      -22.478063   -4.350872   -1.175607
    156          1           0      -23.769432   -6.546631    2.275707
    157          1           0      -22.052987   -6.453634    2.659989
    158          1           0      -22.507368   -7.654022    1.586378
 ---------------------------------------------------------------------

 SCF Done:  E(RPBE1PBE) =  -4067.36237166     A.U. after   16 cycles

 Excitation energies and oscillator strengths:

 Excited State   1:      Singlet-A      1.8294 eV  677.75 nm  f=0.3780  <S**2>=0.000
     309 -> 315        0.16649
     311 -> 313        0.69501
     311 <- 313       -0.11475
 This state for optimization and/or second-order correction.
 Total Energy, E(TD-HF/TD-DFT) =  -4067.29514411
 Copying the excited state density for this state as the 1-particle RhoCI density.

 Excited State   2:      Singlet-A      1.8475 eV  671.08 nm  f=0.3757  <S**2>=0.000
     310 -> 316        0.16126
     312 -> 314        0.69486
     312 <- 314       -0.11626

 Excited State   3:      Singlet-A      1.9097 eV  649.22 nm  f=0.0000  <S**2>=0.000
     312 -> 313        0.70711

 Excited State   4:      Singlet-A      1.9804 eV  626.05 nm  f=0.0000  <S**2>=0.000
     311 -> 314        0.70710

 Excited State   5:      Singlet-A      2.2073 eV  561.69 nm  f=0.1240  <S**2>=0.000
     310 -> 314        0.66030
     312 -> 316       -0.23222

 The electronic state is 1-A.
 Alpha  occ. eigenvalues --  -46.92025 -46.91993 -19.25831 -19.25296 -19.20626
 Alpha  occ. eigenvalues --  -19.19713 -19.19392 -19.19262 -19.18673 -19.18451
 Alpha  occ. eigenvalues --  -14.41914 -14.41440 -14.41364 -14.41264 -14.39279
 Alpha  occ. eigenvalues --  -14.39149 -14.39082 -14.38708 -10.36274 -10.35418
 Alpha  occ. eigenvalues --  -10.32879 -10.32645 -10.32169 -10.31753 -10.29706
 Alpha  occ. eigenvalues --  -10.29073 -10.29028 -10.28705 -10.28644 -10.28521
 Alpha  occ. eigenvalues --  -10.28521 -10.28466 -10.28382 -10.28244 -10.28096
 Alpha  occ. eigenvalues --  -10.27960 -10.27616 -10.27314 -10.27312 -10.27104
 Alpha  occ. eigenvalues --  -10.26914 -10.26675 -10.26519 -10.26356 -10.26224
 Alpha  occ. eigenvalues --  -10.26178 -10.26169 -10.26151 -10.26023 -10.25967
 Alpha  occ. eigenvalues --  -10.25962 -10.25892 -10.25830 -10.25810 -10.25678
 Alpha  occ. eigenvalues --  -10.25673 -10.25633 -10.25505 -10.25419 -10.25381
 Alpha  occ. eigenvalues --  -10.25092 -10.24749 -10.24692 -10.24607 -10.24474
 Alpha  occ. eigenvalues --  -10.24277 -10.24151 -10.24111 -10.24082 -10.24071
 Alpha  occ. eigenvalues --  -10.24068 -10.23999 -10.23928 -10.23902 -10.23631
 Alpha  occ. eigenvalues --  -10.23515 -10.23477 -10.23320 -10.23318 -10.23281
 Alpha  occ. eigenvalues --  -10.22960 -10.22942 -10.22927 -10.22823 -10.22805
 Alpha  occ. eigenvalues --  -10.22443  -3.14230  -3.14214  -1.87035  -1.87016
 Alpha  occ. eigenvalues --   -1.86610  -1.86594  -1.86463  -1.86455  -1.12030
 Alpha  occ. eigenvalues --   -1.11268  -1.05554  -1.05144  -1.04735  -1.03816
 Alpha  occ. eigenvalues --   -1.03168  -1.02126  -0.99340  -0.99241  -0.98711
 Alpha  occ. eigenvalues --   -0.98148  -0.97941  -0.97735  -0.97290  -0.96564
 Alpha  occ. eigenvalues --   -0.87568  -0.86490  -0.84176  -0.83766  -0.82929
 Alpha  occ. eigenvalues --   -0.82726  -0.82583  -0.82340  -0.81872  -0.81438
 Alpha  occ. eigenvalues --   -0.81268  -0.80751  -0.80664  -0.80137  -0.79036
 Alpha  occ. eigenvalues --   -0.78511  -0.78489  -0.78410  -0.77027  -0.76913
 Alpha  occ. eigenvalues --   -0.75985  -0.75921  -0.75595  -0.75185  -0.75024
 Alpha  occ. eigenvalues --   -0.74834  -0.72567  -0.72320  -0.71971  -0.71826
 Alpha  occ. eigenvalues --   -0.71167  -0.71161  -0.70555  -0.70387  -0.69534
 Alpha  occ. eigenvalues --   -0.69217  -0.67198  -0.66944  -0.66119  -0.65878
 Alpha  occ. eigenvalues --   -0.63967  -0.63319  -0.63164  -0.63056  -0.62229
 Alpha  occ. eigenvalues --   -0.62052  -0.61552  -0.61315  -0.60320  -0.59951
 Alpha  occ. eigenvalues --   -0.59650  -0.59580  -0.59211  -0.59091  -0.59013
 Alpha  occ. eigenvalues --   -0.58930  -0.56999  -0.56690  -0.55035  -0.54544
 Alpha  occ. eigenvalues --   -0.54104  -0.53731  -0.53549  -0.53438  -0.53425
 Alpha  occ. eigenvalues --   -0.53093  -0.52720  -0.52587  -0.52037  -0.51987
 Alpha  occ. eigenvalues --   -0.51139  -0.50672  -0.50564  -0.50176  -0.49997
 Alpha  occ. eigenvalues --   -0.49747  -0.49699  -0.49225  -0.48853  -0.48715
 Alpha  occ. eigenvalues --   -0.48113  -0.47964  -0.47643  -0.47595  -0.47559
 Alpha  occ. eigenvalues --   -0.47400  -0.47016  -0.46918  -0.46875  -0.46797
 Alpha  occ. eigenvalues --   -0.46685  -0.46646  -0.46286  -0.45975  -0.45896
 Alpha  occ. eigenvalues --   -0.45800  -0.45785  -0.45564  -0.45132  -0.45003
 Alpha  occ. eigenvalues --   -0.44739  -0.44645  -0.44515  -0.44257  -0.44028
 Alpha  occ. eigenvalues --   -0.43966  -0.43776  -0.43695  -0.43552  -0.43452
 Alpha  occ. eigenvalues --   -0.43364  -0.43223  -0.43197  -0.43101  -0.43068
 Alpha  occ. eigenvalues --   -0.42791  -0.42417  -0.42254  -0.42017  -0.41917
 Alpha  occ. eigenvalues --   -0.41833  -0.41630  -0.41483  -0.41437  -0.41275
 Alpha  occ. eigenvalues --   -0.41129  -0.40912  -0.40838  -0.40722  -0.40664
 Alpha  occ. eigenvalues --   -0.40629  -0.40276  -0.40027  -0.40004  -0.39877
 Alpha  occ. eigenvalues --   -0.39504  -0.39263  -0.39192  -0.39069  -0.38873
 Alpha  occ. eigenvalues --   -0.38729  -0.38655  -0.38445  -0.38423  -0.38150
 Alpha  occ. eigenvalues --   -0.38062  -0.37756  -0.37686  -0.37643  -0.37406
 Alpha  occ. eigenvalues --   -0.37367  -0.37234  -0.37198  -0.37065  -0.37032
 Alpha  occ. eigenvalues --   -0.36744  -0.36561  -0.36405  -0.36289  -0.36188
 Alpha  occ. eigenvalues --   -0.36094  -0.35907  -0.35683  -0.35441  -0.35300
 Alpha  occ. eigenvalues --   -0.35188  -0.34817  -0.34656  -0.34187  -0.34061
 Alpha  occ. eigenvalues --   -0.33454  -0.33341  -0.32912  -0.32865  -0.32283
 Alpha  occ. eigenvalues --   -0.32118  -0.31994  -0.31486  -0.31476  -0.31260
 Alpha  occ. eigenvalues --   -0.31192  -0.30775  -0.29941  -0.29647  -0.29439
 Alpha  occ. eigenvalues --   -0.28733  -0.28695  -0.28322  -0.27027  -0.26880
 Alpha  occ. eigenvalues --   -0.26455  -0.26118  -0.25832  -0.25562  -0.25532
 Alpha  occ. eigenvalues --   -0.25278  -0.25157  -0.25047  -0.21254  -0.20761
 Alpha  occ. eigenvalues --   -0.18731  -0.18599
 Alpha virt. eigenvalues --   -0.11265  -0.11137  -0.05346  -0.04707  -0.04044
 Alpha virt. eigenvalues --   -0.04029  -0.02325  -0.01933  -0.01351  -0.00997
 Alpha virt. eigenvalues --    0.00703   0.00851   0.00983   0.01111   0.01378

 Mulliken charges:
               1
     1  Mg  12.001985
     2  C    6.027557
     3  C    5.992190
     4  C    5.978653
     5  C    6.007266
     6  N    7.006573
     7  C    5.960522
     8  C    6.013888
     9  C    5.991484
    10  C    6.029016
    11  C    5.998127
    12  C    6.003502
    13  C    6.005642
    14  H    0.991543
    15  N    6.991953
    16  C    6.039863
    17  C    6.022039
    18  C    6.005474
    19  C    6.042641
    20  C    5.997277
    21  C    6.010636
    22  O    8.018405
    23  C    5.996379
    24  N    6.996096
    25  C    6.032684
    26  C    5.993693
    27  C    6.005451
    28  C    5.976736
    29  C    6.000173
    30  C    6.007190
    31  C    6.000254
    32  N    7.001201
    33  C    5.965888
    34  C    5.960930
    35  C    6.005139
    36  C    5.962855
    37  C    6.000382
    38  C    5.985014
    39  O    7.975096
    40  C    5.998015
    41  C    5.997295
    42  O    7.996298
    43  O    7.997978
    44  C    6.001218
    45  H    1.012233
    46  H    1.007576
    47  H    0.988888
    48  H    0.998694
    49  H    0.998145
    50  H    1.000135
    51  H    1.012235
    52  H    0.998213
    53  H    1.003493
    54  H    0.991445
    55  H    0.990526
    56  H    1.006635
    57  H    1.015855
    58  H    1.017103
    59  H    1.017407
    60  H    1.010482
    61  H    1.010679
    62  H    1.011127
    63  H    0.999614
    64  H    1.000251
    65  H    1.012020
    66  H    1.000085
    67  H    0.995350
    68  H    1.000764
    69  H    0.986124
    70  H    0.994717
    71  H    0.999429
    72  H    1.002944
    73  H    0.981733
    74  H    0.982695
    75  H    0.981383
    76  H    0.990260
    77  H    0.996044
    78  H    0.998627
    79  H    0.994888
    80  Mg  11.999926
    81  C    6.000753
    82  C    5.999809
    83  C    5.999036
    84  C    6.000089
    85  N    7.000306
    86  C    5.999048
    87  C    6.000340
    88  C    5.999555
    89  C    6.001023
    90  C    5.999958
    91  C    6.000026
    92  C    6.000025
    93  H    0.999840
    94  N    6.999854
    95  C    6.001066
    96  C    6.000877
    97  C    6.000312
    98  C    6.001194
    99  C    5.999856
   100  C    6.000473
   101  O    8.000875
   102  C    5.999716
   103  N    6.999681
   104  C    6.001479
   105  C    5.999635
   106  C    6.000262
   107  C    5.999136
   108  C    5.999932
   109  C    6.000289
   110  C    6.000013
   111  N    6.999907
   112  C    5.999101
   113  C    5.998698
   114  C    6.000071
   115  C    5.998870
   116  C    6.000148
   117  C    5.999432
   118  O    7.999062
   119  C    5.999780
   120  C    5.999836
   121  O    7.999919
   122  O    7.999929
   123  C    6.000072
   124  H    1.000443
   125  H    1.000179
   126  H    0.999567
   127  H    1.000017
   128  H    1.000223
   129  H    1.000434
   130  H    0.999958
   131  H    1.000098
   132  H    0.999752
   133  H    1.000223
   134  H    0.999926
   135  H    1.000162
   136  H    1.000763
   137  H    1.000617
   138  H    1.000609
   139  H    1.000205
   140  H    1.000384
   141  H    1.000484
   142  H    0.999975
   143  H    0.999874
   144  H    0.999863
   145  H    1.000341
   146  H    1.000051
   147  H    1.000157
   148  H    0.999564
   149  H    0.999745
   150  H    0.999903
   151  H    1.000021
   152  H    0.999374
   153  H    0.999377
   154  H    0.999199
   155  H    0.999695
   156  H    0.999950
   157  H    0.999819
   158  H    0.999842
 Sum of Mulliken charges = 624.00000

 Dipole moment (field-independent basis, Debye):
    X=              7.8065    Y=              2.7732    Z=             -6.3515  Tot=             10.4391
 Quadrupole moment (field-independent basis, Debye-Ang):
   XX=            306.1597   YY=             -3.2015   ZZ=             -0.9180
   XY=             52.4298   XZ=           -141.8246   YZ=              3.7628

 Normal termination of Gaussian 16 at Wed Oct 13 23:37:29 2021.
