 Gaussian 16, Revision A.03,
 Gaussian 16:  ES64L-G16RevA.03 25-Dec-2016

 --------------------------------------------------------
 #p PBE1PBE/Def2SVP td=(nstates=5) density=(transition=1)
 --------------------------------------------------------

 --------------------------------
 TDDFT excited states in gaussian
 --------------------------------
 Symbolic Z-matrix:
 Charge =  0 Multiplicity = 1

                         Standard orientation:
 ---------------------------------------------------------------------
 Center     Atomic      Atomic             Coordinates (Angstroms)
 Number     Number       Type             X           Y           Z
 ---------------------------------------------------------------------
      1         12           0       11.685273   -0.463161   -0.426024
      2          6           0        9.782483    2.418682   -0.047195
      3          6           0       14.497104    1.550307    0.496530
      4          6           0       13.525548   -3.181935   -0.261893
      5          6           0        8.704608   -2.319326   -0.593382
      6          7           0       12.045566    1.693949    0.268509
      7          6           0       11.086170    2.681045    0.237225
      8          6           0       11.688565    4.015441    0.685306
      9          6           0       13.211288    3.729668    0.567513
     10          6           0       13.286744    2.228115    0.478346
     11          6           0       14.011258    4.383872   -0.626573
     12          6           0       11.250903    4.430357    2.099628
     13          6           0       11.661009    5.788219    2.525273
     14          1           0       10.831337    6.458270    3.686209
     15          7           0       13.753139   -0.801744    0.066288
     16          6           0       14.735358    0.148623    0.385893
     17          6           0       15.976266   -0.545560    0.589260
     18          6           0       15.683777   -1.956823    0.506176
     19          6           0       14.250300   -2.028824    0.057470
     20          6           0       17.290225    0.175040    0.999312
     21          6           0       16.740001   -3.037259    0.759239
     22          8           0       17.920570   -2.764570    0.900337
     23          6           0       16.315443   -4.454589    0.825695
     24          7           0       11.180692   -2.453744   -0.651483
     25          6           0       12.144052   -3.378818   -0.583286
     26          6           0       11.499426   -4.823658   -0.608733
     27          6           0        9.939130   -4.599733   -0.659098
     28          6           0        9.913142   -2.976609   -0.577034
     29          6           0       12.034833   -5.829519   -1.661460
     30          6           0        9.266494   -5.246329    0.570729
     31          6           0        7.827201   -5.727543    0.350358
     32          7           0        9.617158   -0.107611   -0.348427
     33          6           0        8.536432   -0.918893   -0.553325
     34          6           0        7.334835   -0.079657   -0.632839
     35          6           0        7.794380    1.206245   -0.534588
     36          6           0        9.149767    1.163805   -0.298425
     37          6           0        5.911486   -0.566933   -0.922652
     38          6           0        7.381162    2.576685   -0.492428
     39          8           0        6.303200    3.101453   -0.626587
     40          6           0        8.661320    3.424362   -0.187993
     41          6           0        8.913947    4.294907   -1.368999
     42          8           0        8.949566    3.962671   -2.521301
     43          8           0        9.252896    5.580106   -0.911500
     44          6           0        9.606903    6.527846   -1.929542
     45          1           0       15.301730    2.262136    0.689935
     46          1           0       14.007470   -4.162302   -0.259989
     47          1           0        7.762698   -2.858527   -0.714930
     48          1           0       11.422676    4.734638   -0.088209
     49          1           0       13.808304    3.958187    1.449686
     50          1           0       14.859670    4.864861   -0.140265
     51          1           0       13.439487    4.871818   -1.416388
     52          1           0       14.460984    3.559492   -1.179771
     53          1           0       11.670250    3.840011    2.914783
     54          1           0       10.169004    4.336290    2.193799
     55          1           0       11.619068    6.418457    1.636937
     56          1           0       12.713020    5.764750    2.809034
     57          1           0       17.288232   -0.132190    2.045603
     58          1           0       17.243169    1.263060    1.049403
     59          1           0       18.257760   -0.030131    0.540813
     60          1           0       15.470139   -4.454189    1.513843
     61          1           0       17.116936   -5.031670    1.287158
     62          1           0       16.056446   -4.688543   -0.207209
     63          1           0       11.767199   -5.275085    0.346992
     64          1           0        9.453331   -4.922803   -1.579270
     65          1           0       12.647911   -6.566002   -1.141036
     66          1           0       12.543178   -5.270986   -2.446717
     67          1           0       11.207984   -6.413837   -2.065134
     68          1           0        9.305023   -4.478646    1.343149
     69          1           0        9.840728   -6.059061    1.015952
     70          1           0        7.883896   -6.785717    0.607905
     71          1           0        7.430347   -5.531605   -0.645822
     72          1           0        7.158889   -5.265102    1.076826
     73          1           0        5.119290   -0.141730   -0.307319
     74          1           0        6.014061   -1.643761   -0.786336
     75          1           0        5.782052   -0.484525   -2.001913
     76          1           0        8.432012    4.014231    0.699542
     77          1           0        8.788890    7.246762   -1.976440
     78          1           0        9.820972    6.175370   -2.938806
     79          1           0       10.525317    7.018334   -1.608131
     80         12           0      -11.097363   -0.783838   -0.624931
     81          6           0      -12.116566    2.614367   -0.323979
     82          6           0       -7.897568    0.130148    0.186669
     83          6           0      -10.380288   -4.129547    0.109296
     84          6           0      -14.479558   -1.706370   -0.866094
     85          7           0      -10.224274    1.243680    0.135834
     86          6           0      -10.732941    2.471969   -0.054722
     87          6           0       -9.602873    3.484694   -0.084720
     88          6           0       -8.222679    2.702125    0.151040
     89          6           0       -8.842739    1.221620    0.002048
     90          6           0       -7.236468    3.081771   -0.976362
     91          6           0       -9.825820    4.575713    0.950199
     92          6           0      -10.431117    4.139572    2.305627
     93          1           0       -9.473422    4.123611    3.528266
     94          7           0       -9.321559   -1.893800   -0.018009
     95          6           0       -8.128882   -1.267046    0.270764
     96          6           0       -7.174719   -2.315350    0.454085
     97          6           0       -7.848695   -3.592888    0.539465
     98          6           0       -9.249822   -3.279742    0.160574
     99          6           0       -5.724181   -2.047842    0.782847
    100          6           0       -7.285744   -4.919982    1.050644
    101          8           0       -6.149498   -4.973770    1.480251
    102          6           0       -8.036282   -6.139651    1.072641
    103          7           0      -12.265762   -2.641199   -0.305538
    104          6           0      -11.723003   -3.842705   -0.175160
    105          6           0      -12.748514   -4.960810   -0.081946
    106          6           0      -14.080185   -4.094973   -0.031048
    107          6           0      -13.626696   -2.753674   -0.482663
    108          6           0      -12.705750   -5.986966   -1.317033
    109          6           0      -14.736445   -4.163359    1.424238
    110          6           0      -16.043652   -4.872260    1.639142
    111          7           0      -12.848807    0.177394   -0.843769
    112          6           0      -14.145434   -0.331981   -1.060076
    113          6           0      -15.098047    0.763662   -1.319176
    114          6           0      -14.309952    1.884445   -1.058196
    115          6           0      -12.977223    1.530193   -0.648161
    116          6           0      -16.567740    0.703237   -1.861683
    117          6           0      -14.381819    3.348239   -1.007996
    118          8           0      -15.288680    4.162818   -1.246674
    119          6           0      -12.985001    3.887519   -0.554912
    120          6           0      -13.372196    4.539683    0.727348
    121          8           0      -13.900841    3.986756    1.657510
    122          8           0      -13.168145    5.851666    0.651301
    123          6           0      -13.408878    6.707751    1.865013
    124          1           0       -6.848339    0.429338    0.144711
    125          1           0      -10.289992   -5.208961    0.246344
    126          1           0      -15.499379   -2.095993   -0.825158
    127          1           0       -9.761774    3.865836   -1.093500
    128          1           0       -7.797358    2.891331    1.136998
    129          1           0       -6.356355    3.532919   -0.518578
    130          1           0       -7.618714    3.818595   -1.683287
    131          1           0       -6.950923    2.142247   -1.448737
    132          1           0      -10.488899    5.337029    0.539225
    133          1           0       -8.878948    5.041800    1.224328
    134          1           0      -10.779016    3.110836    2.398244
    135          1           0      -11.250142    4.839244    2.472630
    136          1           0       -5.523665   -0.982134    0.896047
    137          1           0       -5.118061   -2.552410    0.029648
    138          1           0       -5.490798   -2.606072    1.688819
    139          1           0       -8.906196   -6.142172    1.729760
    140          1           0       -7.390804   -6.952940    1.403784
    141          1           0       -8.375215   -6.229466    0.040007
    142          1           0      -12.727511   -5.505330    0.861726
    143          1           0      -14.742886   -4.695728   -0.654222
    144          1           0      -11.880816   -5.723712   -1.979706
    145          1           0      -13.632981   -5.855728   -1.875139
    146          1           0      -12.665140   -7.046182   -1.058393
    147          1           0      -15.019379   -3.171314    1.776414
    148          1           0      -14.043330   -4.594635    2.145219
    149          1           0      -16.901301   -4.203778    1.714863
    150          1           0      -15.837974   -5.335850    2.604527
    151          1           0      -16.200931   -5.746314    1.006950
    152          1           0      -17.207722    0.373375   -1.043778
    153          1           0      -16.560583    0.043803   -2.729706
    154          1           0      -16.884137    1.716894   -2.106969
    155          1           0      -12.644905    4.545789   -1.355203
    156          1           0      -14.451283    7.009544    1.969567
    157          1           0      -12.803342    7.614451    1.833748
    158          1           0      -13.082288    6.093670    2.704247
 ---------------------------------------------------------------------

 SCF Done:  E(RPBE1PBE) =  -4067.34069922     A.U. after   16 cycles

 Excitation energies and oscillator strengths:

 Excited State   1:      Singlet-A      1.8527 eV  669.22 nm  f=0.4095  <S**2>=0.000
     310 -> 315        0.19311
     312 -> 314        0.68481
 This state for optimization and/or second-order correction.
 Total Energy, E(TD-HF/TD-DFT) =  -4067.27261456
 Copying the excited state density for this state as the 1-particle RhoCI density.

 Excited State   2:      Singlet-A      1.8664 eV  664.29 nm  f=0.0000  <S**2>=0.000
     312 -> 313        0.70708

 Excited State   3:      Singlet-A      1.9036 eV  651.31 nm  f=0.3346  <S**2>=0.000
     309 -> 316        0.16966
     311 -> 313        0.69096
     311 <- 313       -0.10616

 Excited State   4:      Singlet-A      2.0239 eV  612.59 nm  f=0.0000  <S**2>=0.000
     311 -> 314        0.70708

 Excited State   5:      Singlet-A      2.2156 eV  559.60 nm  f=0.0709  <S**2>=0.000
     310 -> 314        0.63268
     312 -> 315       -0.30018

 The electronic state is 1-A.
 Alpha  occ. eigenvalues --  -46.93525 -46.93019 -19.25671 -19.25641 -19.20743
 Alpha  occ. eigenvalues --  -19.19075 -19.19015 -19.18943 -19.18692 -19.18217
 Alpha  occ. eigenvalues --  -14.42199 -14.41863 -14.41772 -14.41406 -14.39787
 Alpha  occ. eigenvalues --  -14.39711 -14.39138 -14.38877 -10.36572 -10.35673
 Alpha  occ. eigenvalues --  -10.32128 -10.31787 -10.31476 -10.31369 -10.29868
 Alpha  occ. eigenvalues --  -10.29703 -10.29606 -10.29077 -10.29038 -10.28907
 Alpha  occ. eigenvalues --  -10.28742 -10.28591 -10.28516 -10.28502 -10.28497
 Alpha  occ. eigenvalues --  -10.28452 -10.28435 -10.28303 -10.27651 -10.27411
 Alpha  occ. eigenvalues --  -10.27277 -10.26880 -10.26653 -10.26517 -10.26449
 Alpha  occ. eigenvalues --  -10.26312 -10.26115 -10.26077 -10.26064 -10.25976
 Alpha  occ. eigenvalues --  -10.25973 -10.25950 -10.25895 -10.25809 -10.25735
 Alpha  occ. eigenvalues --  -10.25691 -10.25627 -10.25576 -10.25514 -10.25462
 Alpha  occ. eigenvalues --  -10.25453 -10.25237 -10.25220 -10.25160 -10.25034
 Alpha  occ. eigenvalues --  -10.24671 -10.24652 -10.24509 -10.24391 -10.24280
 Alpha  occ. eigenvalues --  -10.24225 -10.24083 -10.24055 -10.23979 -10.23937
 Alpha  occ. eigenvalues --  -10.23878 -10.23726 -10.23685 -10.23539 -10.23502
 Alpha  occ. eigenvalues --  -10.23229 -10.23055 -10.22940 -10.22895 -10.22399
 Alpha  occ. eigenvalues --  -10.21913  -3.15419  -3.15023  -1.88220  -1.87870
 Alpha  occ. eigenvalues --   -1.87823  -1.87618  -1.87402  -1.87232  -1.11764
 Alpha  occ. eigenvalues --   -1.11422  -1.05270  -1.04890  -1.04649  -1.03721
 Alpha  occ. eigenvalues --   -1.03516  -1.02457  -0.99273  -0.99163  -0.98418
 Alpha  occ. eigenvalues --   -0.98274  -0.98211  -0.97435  -0.97027  -0.96167
 Alpha  occ. eigenvalues --   -0.87744  -0.86246  -0.83645  -0.83455  -0.83204
 Alpha  occ. eigenvalues --   -0.83081  -0.82969  -0.82512  -0.82429  -0.81339
 Alpha  occ. eigenvalues --   -0.80852  -0.80425  -0.80175  -0.79557  -0.79402
 Alpha  occ. eigenvalues --   -0.78851  -0.78322  -0.78293  -0.77319  -0.77034
 Alpha  occ. eigenvalues --   -0.76767  -0.76746  -0.75667  -0.75372  -0.75216
 Alpha  occ. eigenvalues --   -0.74542  -0.72190  -0.72074  -0.71687  -0.71581
 Alpha  occ. eigenvalues --   -0.71256  -0.70644  -0.70529  -0.70483  -0.69813
 Alpha  occ. eigenvalues --   -0.69239  -0.67765  -0.67247  -0.66470  -0.66120
 Alpha  occ. eigenvalues --   -0.63760  -0.63388  -0.63158  -0.62889  -0.62468
 Alpha  occ. eigenvalues --   -0.62291  -0.61086  -0.61040  -0.60468  -0.60103
 Alpha  occ. eigenvalues --   -0.59966  -0.59548  -0.59410  -0.59281  -0.59103
 Alpha  occ. eigenvalues --   -0.58507  -0.57308  -0.56948  -0.54799  -0.54688
 Alpha  occ. eigenvalues --   -0.54533  -0.53854  -0.53798  -0.53539  -0.53332
 Alpha  occ. eigenvalues --   -0.53093  -0.53020  -0.52345  -0.52223  -0.51772
 Alpha  occ. eigenvalues --   -0.51087  -0.50681  -0.50404  -0.50306  -0.49925
 Alpha  occ. eigenvalues --   -0.49533  -0.49473  -0.49418  -0.49046  -0.48952
 Alpha  occ. eigenvalues --   -0.48586  -0.48414  -0.48140  -0.48048  -0.47810
 Alpha  occ. eigenvalues --   -0.47637  -0.47512  -0.47317  -0.47148  -0.46891
 Alpha  occ. eigenvalues --   -0.46609  -0.46552  -0.46335  -0.46281  -0.46116
 Alpha  occ. eigenvalues --   -0.46025  -0.45447  -0.45297  -0.45159  -0.44962
 Alpha  occ. eigenvalues --   -0.44853  -0.44766  -0.44506  -0.44286  -0.44217
 Alpha  occ. eigenvalues --   -0.43981  -0.43950  -0.43744  -0.43743  -0.43478
 Alpha  occ. eigenvalues --   -0.43340  -0.43062  -0.42863  -0.42849  -0.42752
 Alpha  occ. eigenvalues --   -0.42405  -0.42225  -0.42009  -0.41911  -0.41896
 Alpha  occ. eigenvalues --   -0.41736  -0.41583  -0.41561  -0.41266  -0.41111
 Alpha  occ. eigenvalues --   -0.41099  -0.40987  -0.40862  -0.40546  -0.40468
 Alpha  occ. eigenvalues --   -0.40230  -0.40106  -0.40035  -0.39873  -0.39845
 Alpha  occ. eigenvalues --   -0.39756  -0.39490  -0.39356  -0.39084  -0.39029
 Alpha  occ. eigenvalues --   -0.38705  -0.38628  -0.38516  -0.38375  -0.38298
 Alpha  occ. eigenvalues --   -0.38185  -0.37999  -0.37901  -0.37774  -0.37682
 Alpha  occ. eigenvalues --   -0.37620  -0.37260  -0.37208  -0.37144  -0.36820
 Alpha  occ. eigenvalues --   -0.36817  -0.36666  -0.36369  -0.36296  -0.36168
 Alpha  occ. eigenvalues --   -0.36071  -0.35662  -0.35442  -0.35211  -0.34968
 Alpha  occ. eigenvalues --   -0.34896  -0.34715  -0.34682  -0.34645  -0.33710
 Alpha  occ. eigenvalues --   -0.33610  -0.33029  -0.32854  -0.32670  -0.32352
 Alpha  occ. eigenvalues --   -0.32041  -0.31951  -0.31711  -0.31516  -0.31355
 Alpha  occ. eigenvalues --   -0.31118  -0.30642  -0.30149  -0.29551  -0.29235
 Alpha  occ. eigenvalues --   -0.29213  -0.29072  -0.28776  -0.27381  -0.26961
 Alpha  occ. eigenvalues --   -0.26012  -0.25965  -0.25788  -0.25595  -0.25477
 Alpha  occ. eigenvalues --   -0.25332  -0.25108  -0.24434  -0.21540  -0.21170
 Alpha  occ. eigenvalues --   -0.19256  -0.18931
 Alpha virt. eigenvalues --   -0.11494  -0.11214  -0.05873  -0.05461  -0.03915
 Alpha virt. eigenvalues --   -0.03306  -0.02018  -0.01709  -0.01610  -0.00719
 Alpha virt. eigenvalues --    0.00297   0.00472   0.00671   0.01034   0.01837

 Mulliken charges:
               1
     1  Mg  12.000028
     2  C    6.001616
     3  C    5.999541
     4  C    5.997919
     5  C    6.000650
     6  N    7.000438
     7  C    5.997659
     8  C    6.000693
     9  C    5.999511
    10  C    6.002378
    11  C    5.999828
    12  C    6.000163
    13  C    5.999844
    14  H    1.000233
    15  N    6.999283
    16  C    6.003657
    17  C    6.001321
    18  C    6.001365
    19  C    6.003136
    20  C    5.999768
    21  C    6.001040
    22  O    8.002060
    23  C    5.999876
    24  N    7.000035
    25  C    6.003085
    26  C    5.999275
    27  C    6.000509
    28  C    5.997648
    29  C    5.999902
    30  C    6.000463
    31  C    6.000218
    32  N    7.000035
    33  C    5.997006
    34  C    5.997128
    35  C    6.000009
    36  C    5.997261
    37  C    5.999878
    38  C    5.998560
    39  O    7.997253
    40  C    5.999880
    41  C    5.999603
    42  O    7.999839
    43  O    7.999776
    44  C    6.000106
    45  H    1.001403
    46  H    1.000604
    47  H    0.998548
    48  H    1.000209
    49  H    1.000161
    50  H    1.000546
    51  H    1.001377
    52  H    0.999731
    53  H    0.999325
    54  H    1.000523
    55  H    1.000179
    56  H    0.999608
    57  H    1.001348
    58  H    1.001541
    59  H    1.001651
    60  H    1.000639
    61  H    1.001268
    62  H    1.000778
    63  H    0.999927
    64  H    0.999700
    65  H    1.000000
    66  H    1.000074
    67  H    1.000604
    68  H    0.999946
    69  H    0.999241
    70  H    0.999474
    71  H    0.999865
    72  H    0.999554
    73  H    0.997580
    74  H    0.998180
    75  H    0.998164
    76  H    0.999384
    77  H    0.999960
    78  H    0.999814
    79  H    0.999617
    80  Mg  12.005285
    81  C    6.011497
    82  C    5.976344
    83  C    5.987034
    84  C    6.018195
    85  N    7.006149
    86  C    5.972759
    87  C    6.001017
    88  C    5.986598
    89  C    6.040372
    90  C    5.999179
    91  C    6.002612
    92  C    6.006990
    93  H    0.987259
    94  N    6.992085
    95  C    6.040554
    96  C    6.018199
    97  C    6.010332
    98  C    6.034713
    99  C    5.997042
   100  C    6.011597
   101  O    8.017083
   102  C    5.996409
   103  N    7.003768
   104  C    6.026105
   105  C    5.987872
   106  C    6.014066
   107  C    5.963197
   108  C    5.997442
   109  C    6.000733
   110  C    6.001607
   111  N    7.003168
   112  C    5.960173
   113  C    5.973989
   114  C    5.998253
   115  C    5.970571
   116  C    5.995925
   117  C    5.983845
   118  O    7.968100
   119  C    6.000217
   120  C    5.993368
   121  O    7.997837
   122  O    7.998582
   123  C    6.001648
   124  H    1.006629
   125  H    1.009404
   126  H    0.991158
   127  H    1.005586
   128  H    1.005386
   129  H    1.004133
   130  H    1.010040
   131  H    0.995998
   132  H    1.004884
   133  H    0.992800
   134  H    1.000053
   135  H    1.003841
   136  H    1.017763
   137  H    1.018021
   138  H    1.015418
   139  H    1.010435
   140  H    1.011522
   141  H    1.006317
   142  H    1.001501
   143  H    0.995678
   144  H    0.996716
   145  H    1.011459
   146  H    1.001345
   147  H    1.003478
   148  H    0.987534
   149  H    1.002413
   150  H    0.995208
   151  H    0.995605
   152  H    0.984513
   153  H    0.986045
   154  H    0.990242
   155  H    0.990681
   156  H    0.998195
   157  H    0.994398
   158  H    0.995831
 Sum of Mulliken charges = 624.00000

 Dipole moment (field-independent basis, Debye):
    X=              9.4148    Y=             -5.0556    Z=              1.5388  Tot=             10.7965
 Quadrupole moment (field-independent basis, Debye-Ang):
   XX=           -164.1676   YY=              5.1331   ZZ=             -1.9834
   XY=             47.3911   XZ=            -17.0796   YZ=             -1.1139

 Normal termination of Gaussian 16 at Fri Oct 15 14:51:52 2021.
