 Gaussian 16, Revision A.03,
 Gaussian 16:  ES64L-G16RevA.03 25-Dec-2016

 --------------------------------------------------------
 #p PBE1PBE/Def2SVP td=(nstates=5) density=(transition=1)
 --------------------------------------------------------

 --------------------------------
 TDDFT excited states in gaussian
 --------------------------------
 Symbolic Z-matrix:
 Charge =  0 Multiplicity = 1

                         Standard orientation:
 ---------------------------------------------------------------------
 Center     Atomic      Atomic             Coordinates (Angstroms)
 Number     Number       Type             X           Y           Z
 ---------------------------------------------------------------------
      1         12           0      -28.868136   -0.275176   -0.075659
      2          6           0      -26.013499    1.448172   -0.762035
      3          6           0      -26.864909   -2.847724    1.106847
      4          6           0      -31.676860   -1.804034    0.947211
      5          6           0      -30.777949    2.621806   -0.663776
      6          7           0      -26.673297   -0.533727    0.380199
      7          6           0      -25.729811    0.326199   -0.053088
      8          6           0      -24.360718   -0.075893    0.358351
      9          6           0      -24.638589   -1.682506    0.630531
     10          6           0      -26.178615   -1.728016    0.718713
     11          6           0      -24.012578   -2.598087   -0.462545
     12          6           0      -23.965650    0.668329    1.623980
     13          6           0      -24.909021    0.576168    2.911340
     14          1           0      -24.303306    0.452999    4.303940
     15          7           0      -29.231565   -2.061772    0.887403
     16          6           0      -28.274769   -3.067312    1.176729
     17          6           0      -28.997643   -4.227943    1.577400
     18          6           0      -30.363100   -3.972175    1.598743
     19          6           0      -30.520363   -2.594998    1.101521
     20          6           0      -28.208254   -5.475951    1.916711
     21          6           0      -31.462183   -4.879094    2.098485
     22          8           0      -31.088878   -5.997736    2.531498
     23          6           0      -32.821491   -4.510943    2.312456
     24          7           0      -30.904687    0.421594    0.311931
     25          6           0      -31.890110   -0.448858    0.674645
     26          6           0      -33.262456    0.261145    0.759865
     27          6           0      -32.934117    1.697954    0.230940
     28          6           0      -31.433206    1.612778    0.010920
     29          6           0      -34.358282   -0.447782   -0.007039
     30          6           0      -33.381617    2.832477    1.298713
     31          6           0      -34.043780    4.061054    0.664585
     32          7           0      -28.540933    1.723900   -0.628963
     33          6           0      -29.381190    2.715131   -1.024020
     34          6           0      -28.574116    3.714915   -1.668952
     35          6           0      -27.201793    3.285875   -1.656772
     36          6           0      -27.249536    2.076331   -0.983591
     37          6           0      -29.030765    5.086194   -2.032729
     38          6           0      -25.833900    3.582842   -1.937351
     39          8           0      -25.444510    4.598250   -2.527842
     40          6           0      -25.036997    2.404674   -1.408450
     41          6           0      -24.276961    1.806101   -2.532661
     42          8           0      -23.506745    2.501928   -3.164770
     43          8           0      -24.462772    0.467085   -2.694182
     44          6           0      -23.699663   -0.139676   -3.786620
     45          1           0      -26.255050   -3.746841    1.215853
     46          1           0      -32.588688   -2.394299    1.057980
     47          1           0      -31.316896    3.495583   -1.036796
     48          1           0      -23.542748    0.089165   -0.342992
     49          1           0      -24.091174   -2.027963    1.508478
     50          1           0      -23.314345   -3.298641   -0.005970
     51          1           0      -23.443405   -1.948889   -1.128421
     52          1           0      -24.736310   -3.142154   -1.070816
     53          1           0      -23.766997    1.700881    1.336064
     54          1           0      -22.945025    0.320132    1.782227
     55          1           0      -25.617601   -0.252149    2.920326
     56          1           0      -25.398343    1.549531    2.891795
     57          1           0      -27.918320   -5.358649    2.961045
     58          1           0      -27.301506   -5.494229    1.313375
     59          1           0      -28.721625   -6.427632    1.776163
     60          1           0      -33.273590   -5.083281    3.123094
     61          1           0      -33.419120   -4.496656    1.400098
     62          1           0      -32.770452   -3.510168    2.739194
     63          1           0      -33.463286    0.277655    1.831647
     64          1           0      -33.370211    1.827031   -0.759459
     65          1           0      -34.058127   -1.409120   -0.423124
     66          1           0      -34.951116    0.072975   -0.758527
     67          1           0      -35.019034   -0.787202    0.791182
     68          1           0      -32.561188    3.215578    1.905624
     69          1           0      -34.045434    2.433593    2.065540
     70          1           0      -35.108194    4.026290    0.895190
     71          1           0      -33.974127    3.963046   -0.418973
     72          1           0      -33.623764    5.002218    1.019745
     73          1           0      -29.739135    5.179815   -2.854980
     74          1           0      -28.117431    5.639535   -2.254441
     75          1           0      -29.541673    5.581109   -1.206745
     76          1           0      -24.337150    2.816020   -0.680465
     77          1           0      -22.643335    0.060448   -3.604831
     78          1           0      -24.023199    0.186107   -4.775329
     79          1           0      -23.925790   -1.202697   -3.868707
     80         12           0       28.187786    0.406725    0.756054
     81          6           0       27.823632   -2.150164   -1.726794
     82          6           0       27.316352    2.687349   -1.790105
     83          6           0       29.152243    2.892046    2.652674
     84          6           0       29.343577   -1.935555    2.933286
     85          7           0       27.590627    0.239727   -1.473057
     86          6           0       27.430979   -0.921845   -2.151702
     87          6           0       26.808123   -0.612526   -3.503076
     88          6           0       26.587310    0.923992   -3.589756
     89          6           0       27.156378    1.323023   -2.214576
     90          6           0       27.315323    1.619078   -4.873849
     91          6           0       25.428197   -1.365953   -3.731064
     92          6           0       25.255575   -2.087972   -5.067789
     93          1           0       25.914451   -1.523614   -6.389994
     94          7           0       28.277568    2.519883    0.445848
     95          6           0       27.863695    3.200803   -0.601731
     96          6           0       28.104422    4.590348   -0.332164
     97          6           0       28.507621    4.758132    1.016872
     98          6           0       28.696993    3.385820    1.408065
     99          6           0       27.654769    5.704363   -1.276061
    100          6           0       28.645477    5.955298    1.944329
    101          8           0       29.084853    5.869377    3.076400
    102          6           0       28.145927    7.268384    1.407490
    103          7           0       29.435248    0.451461    2.380468
    104          6           0       29.514634    1.630092    3.124527
    105          6           0       29.996720    1.398629    4.582444
    106          6           0       29.875310   -0.170868    4.639848
    107          6           0       29.520859   -0.601948    3.216732
    108          6           0       31.405981    1.971953    4.790388
    109          6           0       28.702385   -0.687813    5.600209
    110          6           0       29.071870   -1.283465    6.917283
    111          7           0       28.414805   -1.598021    0.703276
    112          6           0       28.937084   -2.421285    1.677340
    113          6           0       29.090424   -3.802837    1.228948
    114          6           0       28.649455   -3.755500   -0.141630
    115          6           0       28.377740   -2.398365   -0.435292
    116          6           0       29.410996   -4.942401    2.127038
    117          6           0       28.330676   -4.550428   -1.317644
    118          8           0       28.417745   -5.786370   -1.434653
    119          6           0       27.789539   -3.509501   -2.453885
    120          6           0       28.741723   -3.624701   -3.547147
    121          8           0       29.933749   -3.446716   -3.423281
    122          8           0       28.133013   -3.937661   -4.697145
    123          6           0       28.892515   -4.172410   -5.965137
    124          1           0       26.982495    3.430514   -2.517103
    125          1           0       29.104272    3.602268    3.481555
    126          1           0       29.640080   -2.661515    3.692880
    127          1           0       27.535984   -0.899286   -4.262097
    128          1           0       25.540940    1.176753   -3.761828
    129          1           0       27.492256    0.887694   -5.662497
    130          1           0       28.240470    2.036339   -4.475393
    131          1           0       26.697641    2.435279   -5.248173
    132          1           0       24.538090   -0.759825   -3.568128
    133          1           0       25.329113   -2.160602   -2.991693
    134          1           0       24.203404   -2.242334   -5.307899
    135          1           0       25.634998   -3.086117   -4.849021
    136          1           0       26.696913    6.153296   -1.012722
    137          1           0       27.704151    5.391713   -2.319528
    138          1           0       28.420814    6.476932   -1.213606
    139          1           0       27.212200    7.216364    0.846726
    140          1           0       28.843768    7.790595    0.754448
    141          1           0       27.803215    7.881422    2.241098
    142          1           0       29.294627    1.910860    5.239743
    143          1           0       30.829246   -0.566072    4.989267
    144          1           0       31.765078    2.596432    3.972473
    145          1           0       32.150792    1.182787    4.887041
    146          1           0       31.422985    2.554681    5.711970
    147          1           0       28.059326   -1.453268    5.165901
    148          1           0       27.961291    0.083044    5.808303
    149          1           0       28.681627   -0.671852    7.729754
    150          1           0       30.161663   -1.266172    6.894969
    151          1           0       28.657615   -2.287163    7.012108
    152          1           0       28.899262   -5.851507    1.813026
    153          1           0       29.202364   -4.599005    3.140108
    154          1           0       30.485700   -5.109952    2.043911
    155          1           0       26.798689   -3.783426   -2.813704
    156          1           0       29.701658   -4.878067   -5.775982
    157          1           0       29.334123   -3.259236   -6.364886
    158          1           0       28.263527   -4.467803   -6.804456
 ---------------------------------------------------------------------

 SCF Done:  E(RPBE1PBE) =  -4067.37065115     A.U. after   16 cycles

 Excitation energies and oscillator strengths:

 Excited State   1:      Singlet-A      1.8467 eV  671.39 nm  f=0.0000  <S**2>=0.000
     312 -> 313        0.70711
 This state for optimization and/or second-order correction.
 Total Energy, E(TD-HF/TD-DFT) =  -4067.30278743
 Copying the excited state density for this state as the 1-particle RhoCI density.

 Excited State   2:      Singlet-A      1.8475 eV  671.09 nm  f=0.3864  <S**2>=0.000
     310 -> 316        0.16133
     312 -> 314        0.69525
     312 <- 314       -0.11632

 Excited State   3:      Singlet-A      1.8908 eV  655.71 nm  f=0.3810  <S**2>=0.000
     309 -> 315        0.16983
     311 -> 313        0.69197
     311 <- 313       -0.10820

 Excited State   4:      Singlet-A      2.1494 eV  576.83 nm  f=0.0000  <S**2>=0.000
     311 -> 314        0.70711

 Excited State   5:      Singlet-A      2.2073 eV  561.70 nm  f=0.1243  <S**2>=0.000
     310 -> 314        0.66030
     312 -> 316       -0.23219

 The electronic state is 1-A.
 Alpha  occ. eigenvalues --  -46.92488 -46.92030 -19.27071 -19.25836 -19.19772
 Alpha  occ. eigenvalues --  -19.19719 -19.19267 -19.18698 -19.18678 -19.18264
 Alpha  occ. eigenvalues --  -14.41587 -14.41498 -14.41370 -14.41270 -14.39400
 Alpha  occ. eigenvalues --  -14.39087 -14.38714 -14.38398 -10.36532 -10.35423
 Alpha  occ. eigenvalues --  -10.32885 -10.32650 -10.31835 -10.31744 -10.29992
 Alpha  occ. eigenvalues --  -10.29711 -10.29255 -10.29079 -10.28754 -10.28697
 Alpha  occ. eigenvalues --  -10.28526 -10.28343 -10.28250 -10.28040 -10.27966
 Alpha  occ. eigenvalues --  -10.27886 -10.27319 -10.27317 -10.27152 -10.26920
 Alpha  occ. eigenvalues --  -10.26681 -10.26596 -10.26275 -10.26262 -10.26233
 Alpha  occ. eigenvalues --  -10.26229 -10.26174 -10.26161 -10.26084 -10.26029
 Alpha  occ. eigenvalues --  -10.25898 -10.25892 -10.25815 -10.25708 -10.25705
 Alpha  occ. eigenvalues --  -10.25684 -10.25638 -10.25511 -10.25424 -10.24994
 Alpha  occ. eigenvalues --  -10.24923 -10.24919 -10.24902 -10.24885 -10.24698
 Alpha  occ. eigenvalues --  -10.24694 -10.24612 -10.24503 -10.24283 -10.24078
 Alpha  occ. eigenvalues --  -10.24000 -10.23934 -10.23907 -10.23801 -10.23674
 Alpha  occ. eigenvalues --  -10.23519 -10.23481 -10.23326 -10.23326 -10.23286
 Alpha  occ. eigenvalues --  -10.23094 -10.22966 -10.22871 -10.22580 -10.22479
 Alpha  occ. eigenvalues --  -10.22447  -3.14523  -3.14235  -1.87339  -1.87040
 Alpha  occ. eigenvalues --   -1.86916  -1.86728  -1.86615  -1.86469  -1.12226
 Alpha  occ. eigenvalues --   -1.11274  -1.05561  -1.03912  -1.03174  -1.02970
 Alpha  occ. eigenvalues --   -1.02902  -1.02131  -0.99577  -0.99346  -0.99159
 Alpha  occ. eigenvalues --   -0.98154  -0.97740  -0.97567  -0.96570  -0.95994
 Alpha  occ. eigenvalues --   -0.88556  -0.86495  -0.83546  -0.83334  -0.83058
 Alpha  occ. eigenvalues --   -0.82934  -0.82588  -0.82346  -0.82103  -0.81444
 Alpha  occ. eigenvalues --   -0.81275  -0.80756  -0.80535  -0.80194  -0.79410
 Alpha  occ. eigenvalues --   -0.78516  -0.78467  -0.78415  -0.77522  -0.77070
 Alpha  occ. eigenvalues --   -0.76918  -0.75992  -0.75808  -0.75601  -0.75278
 Alpha  occ. eigenvalues --   -0.75030  -0.72996  -0.72573  -0.72263  -0.71976
 Alpha  occ. eigenvalues --   -0.71401  -0.71173  -0.70561  -0.70455  -0.69297
 Alpha  occ. eigenvalues --   -0.69223  -0.67020  -0.66949  -0.66566  -0.65883
 Alpha  occ. eigenvalues --   -0.64440  -0.63645  -0.63252  -0.63169  -0.62234
 Alpha  occ. eigenvalues --   -0.62057  -0.61553  -0.61321  -0.60988  -0.59956
 Alpha  occ. eigenvalues --   -0.59839  -0.59772  -0.59586  -0.59217  -0.59019
 Alpha  occ. eigenvalues --   -0.58922  -0.58423  -0.57005  -0.55041  -0.54799
 Alpha  occ. eigenvalues --   -0.54247  -0.53857  -0.53736  -0.53430  -0.53246
 Alpha  occ. eigenvalues --   -0.53098  -0.53020  -0.52690  -0.52592  -0.51992
 Alpha  occ. eigenvalues --   -0.51308  -0.51152  -0.50678  -0.50436  -0.50182
 Alpha  occ. eigenvalues --   -0.49753  -0.49736  -0.49157  -0.48890  -0.48859
 Alpha  occ. eigenvalues --   -0.48448  -0.48119  -0.47970  -0.47809  -0.47711
 Alpha  occ. eigenvalues --   -0.47565  -0.47406  -0.47022  -0.46980  -0.46880
 Alpha  occ. eigenvalues --   -0.46690  -0.46501  -0.46442  -0.46031  -0.45901
 Alpha  occ. eigenvalues --   -0.45801  -0.45790  -0.45553  -0.45139  -0.45009
 Alpha  occ. eigenvalues --   -0.44766  -0.44745  -0.44522  -0.44215  -0.44064
 Alpha  occ. eigenvalues --   -0.43812  -0.43781  -0.43700  -0.43381  -0.43373
 Alpha  occ. eigenvalues --   -0.43370  -0.43206  -0.43203  -0.43073  -0.42797
 Alpha  occ. eigenvalues --   -0.42780  -0.42422  -0.42276  -0.42023  -0.41777
 Alpha  occ. eigenvalues --   -0.41502  -0.41442  -0.41281  -0.41144  -0.41027
 Alpha  occ. eigenvalues --   -0.40917  -0.40844  -0.40765  -0.40670  -0.40541
 Alpha  occ. eigenvalues --   -0.40446  -0.40033  -0.39998  -0.39882  -0.39594
 Alpha  occ. eigenvalues --   -0.39495  -0.39457  -0.39322  -0.39268  -0.39074
 Alpha  occ. eigenvalues --   -0.38660  -0.38429  -0.38425  -0.38346  -0.38156
 Alpha  occ. eigenvalues --   -0.37763  -0.37689  -0.37649  -0.37401  -0.37372
 Alpha  occ. eigenvalues --   -0.37241  -0.37163  -0.37115  -0.36787  -0.36662
 Alpha  occ. eigenvalues --   -0.36566  -0.36411  -0.36295  -0.36193  -0.36106
 Alpha  occ. eigenvalues --   -0.36039  -0.35912  -0.35822  -0.35446  -0.35281
 Alpha  occ. eigenvalues --   -0.35193  -0.34661  -0.34526  -0.34192  -0.34132
 Alpha  occ. eigenvalues --   -0.33679  -0.33346  -0.32918  -0.32822  -0.32700
 Alpha  occ. eigenvalues --   -0.32482  -0.32000  -0.31970  -0.31481  -0.31265
 Alpha  occ. eigenvalues --   -0.31197  -0.31046  -0.29785  -0.29653  -0.29201
 Alpha  occ. eigenvalues --   -0.28738  -0.28575  -0.28327  -0.27388  -0.26886
 Alpha  occ. eigenvalues --   -0.26462  -0.25837  -0.25602  -0.25568  -0.25448
 Alpha  occ. eigenvalues --   -0.25373  -0.25053  -0.24824  -0.21216  -0.20767
 Alpha  occ. eigenvalues --   -0.19272  -0.18604
 Alpha virt. eigenvalues --   -0.11587  -0.11142  -0.05422  -0.04712  -0.04055
 Alpha virt. eigenvalues --   -0.04050  -0.02371  -0.02331  -0.01397  -0.01001
 Alpha virt. eigenvalues --    0.00504   0.00697   0.01106   0.01298   0.01420

 Mulliken charges:
               1
     1  Mg  12.000000
     2  C    6.000000
     3  C    6.000000
     4  C    6.000000
     5  C    6.000000
     6  N    7.000000
     7  C    6.000000
     8  C    6.000000
     9  C    6.000000
    10  C    6.000000
    11  C    6.000000
    12  C    6.000000
    13  C    6.000000
    14  H    1.000000
    15  N    7.000000
    16  C    6.000000
    17  C    6.000000
    18  C    6.000000
    19  C    6.000000
    20  C    6.000000
    21  C    6.000000
    22  O    8.000000
    23  C    6.000000
    24  N    7.000000
    25  C    6.000000
    26  C    6.000000
    27  C    6.000000
    28  C    6.000000
    29  C    6.000000
    30  C    6.000000
    31  C    6.000000
    32  N    7.000000
    33  C    6.000000
    34  C    6.000000
    35  C    6.000000
    36  C    6.000000
    37  C    6.000000
    38  C    6.000000
    39  O    8.000000
    40  C    6.000000
    41  C    6.000000
    42  O    8.000000
    43  O    8.000000
    44  C    6.000000
    45  H    1.000000
    46  H    1.000000
    47  H    1.000000
    48  H    1.000000
    49  H    1.000000
    50  H    1.000000
    51  H    1.000000
    52  H    1.000000
    53  H    1.000000
    54  H    1.000000
    55  H    1.000000
    56  H    1.000000
    57  H    1.000000
    58  H    1.000000
    59  H    1.000000
    60  H    1.000000
    61  H    1.000000
    62  H    1.000000
    63  H    1.000000
    64  H    1.000000
    65  H    1.000000
    66  H    1.000000
    67  H    1.000000
    68  H    1.000000
    69  H    1.000000
    70  H    1.000000
    71  H    1.000000
    72  H    1.000000
    73  H    1.000000
    74  H    1.000000
    75  H    1.000000
    76  H    1.000000
    77  H    1.000000
    78  H    1.000000
    79  H    1.000000
    80  Mg  12.000000
    81  C    6.000000
    82  C    6.000000
    83  C    6.000000
    84  C    6.000000
    85  N    7.000000
    86  C    6.000000
    87  C    6.000000
    88  C    6.000000
    89  C    6.000000
    90  C    6.000000
    91  C    6.000000
    92  C    6.000000
    93  H    1.000000
    94  N    7.000000
    95  C    6.000000
    96  C    6.000000
    97  C    6.000000
    98  C    6.000000
    99  C    6.000000
   100  C    6.000000
   101  O    8.000000
   102  C    6.000000
   103  N    7.000000
   104  C    6.000000
   105  C    6.000000
   106  C    6.000000
   107  C    6.000000
   108  C    6.000000
   109  C    6.000000
   110  C    6.000000
   111  N    7.000000
   112  C    6.000000
   113  C    6.000000
   114  C    6.000000
   115  C    6.000000
   116  C    6.000000
   117  C    6.000000
   118  O    8.000000
   119  C    6.000000
   120  C    6.000000
   121  O    8.000000
   122  O    8.000000
   123  C    6.000000
   124  H    1.000000
   125  H    1.000000
   126  H    1.000000
   127  H    1.000000
   128  H    1.000000
   129  H    1.000000
   130  H    1.000000
   131  H    1.000000
   132  H    1.000000
   133  H    1.000000
   134  H    1.000000
   135  H    1.000000
   136  H    1.000000
   137  H    1.000000
   138  H    1.000000
   139  H    1.000000
   140  H    1.000000
   141  H    1.000000
   142  H    1.000000
   143  H    1.000000
   144  H    1.000000
   145  H    1.000000
   146  H    1.000000
   147  H    1.000000
   148  H    1.000000
   149  H    1.000000
   150  H    1.000000
   151  H    1.000000
   152  H    1.000000
   153  H    1.000000
   154  H    1.000000
   155  H    1.000000
   156  H    1.000000
   157  H    1.000000
   158  H    1.000000
 Sum of Mulliken charges = 624.00000

 Dipole moment (field-independent basis, Debye):
    X=             -0.0000    Y=              0.0000    Z=             -0.0000  Tot=              0.0000
 Quadrupole moment (field-independent basis, Debye-Ang):
   XX=             -0.0000   YY=              0.0000   ZZ=             -0.0000
   XY=              0.0000   XZ=             -0.0000   YZ=              0.0000

 Normal termination of Gaussian 16 at Thu Oct 14 22:39:47 2021.
