 Gaussian 16, Revision A.03,
 Gaussian 16:  ES64L-G16RevA.03 25-Dec-2016

 --------------------------------------------------------
 #p PBE1PBE/Def2SVP td=(nstates=5) density=(transition=1)
 --------------------------------------------------------

 --------------------------------
 TDDFT excited states in gaussian
 --------------------------------
 Symbolic Z-matrix:
 Charge =  0 Multiplicity = 1

                         Standard orientation:
 ---------------------------------------------------------------------
 Center     Atomic      Atomic             Coordinates (Angstroms)
 Number     Number       Type             X           Y           Z
 ---------------------------------------------------------------------
      1         12           0       13.261455    0.243031    0.315724
      2          6           0       10.054383   -0.918989   -0.773213
      3          6           0       14.108852    0.828521   -2.960406
      4          6           0       16.452316    0.911836    1.198290
      5          6           0       12.589157   -1.301452    3.414747
      6          7           0       12.181684   -0.013525   -1.611722
      7          6           0       10.862402   -0.431529   -1.846962
      8          6           0       10.558050   -0.299254   -3.317188
      9          6           0       12.007865   -0.251555   -3.960488
     10          6           0       12.868795    0.169117   -2.733266
     11          6           0       12.352995   -1.692710   -4.479925
     12          6           0        9.580270    0.877238   -3.668112
     13          6           0        8.590510    0.442869   -4.627793
     14          1           0        7.330203    1.431179   -4.799823
     15          7           0       14.938925    0.959497   -0.792606
     16          6           0       15.066110    1.165770   -2.108878
     17          6           0       16.343575    1.752669   -2.374289
     18          6           0       17.061691    1.776889   -1.197175
     19          6           0       16.116151    1.233186   -0.116305
     20          6           0       16.833041    2.057652   -3.825671
     21          6           0       18.474135    2.337293   -0.931931
     22          8           0       18.947029    2.233686    0.171517
     23          6           0       19.222808    3.087785   -2.008011
     24          7           0       14.427278   -0.403633    1.991358
     25          6           0       15.694171    0.146788    2.151430
     26          6           0       16.182098   -0.043288    3.550795
     27          6           0       14.931722   -0.738379    4.281131
     28          6           0       13.882437   -0.769479    3.194933
     29          6           0       17.474554   -0.783685    3.625875
     30          6           0       14.387383   -0.052565    5.651676
     31          6           0       14.426734   -0.852139    6.893640
     32          7           0       11.660424   -0.845415    1.222041
     33          6           0       11.575256   -1.393055    2.482228
     34          6           0       10.177501   -1.988937    2.637279
     35          6           0        9.506367   -1.725586    1.426304
     36          6           0       10.469983   -1.074248    0.579092
     37          6           0        9.684062   -2.736865    3.883335
     38          6           0        8.291501   -2.018396    0.727853
     39          8           0        7.253217   -2.600103    1.115654
     40          6           0        8.642094   -1.666044   -0.775880
     41          6           0        7.407603   -0.881791   -1.313731
     42          8           0        7.432532    0.359312   -1.404764
     43          8           0        6.446398   -1.751964   -1.709522
     44          6           0        5.197921   -0.977735   -2.028858
     45          1           0       14.309209    1.224909   -3.958365
     46          1           0       17.473923    1.137762    1.513046
     47          1           0       12.252343   -1.716225    4.366962
     48          1           0       10.132741   -1.256793   -3.616888
     49          1           0       12.055836    0.444387   -4.797270
     50          1           0       12.588042   -2.398703   -3.683801
     51          1           0       13.165219   -1.619244   -5.201860
     52          1           0       11.496328   -2.079618   -5.032251
     53          1           0       10.168007    1.602279   -4.231629
     54          1           0        9.167312    1.346128   -2.774652
     55          1           0        8.078269   -0.456206   -4.284773
     56          1           0        9.097443    0.317845   -5.584923
     57          1           0       17.094605    3.114552   -3.774979
     58          1           0       16.075777    1.938707   -4.600447
     59          1           0       17.659597    1.395871   -4.084078
     60          1           0       20.230086    3.334547   -1.672267
     61          1           0       18.546041    3.940956   -2.053740
     62          1           0       19.231791    2.470923   -2.906576
     63          1           0       16.299134    0.982676    3.900293
     64          1           0       15.247026   -1.749405    4.537822
     65          1           0       18.196949   -0.032757    3.943285
     66          1           0       17.835606   -1.110916    2.650974
     67          1           0       17.481409   -1.652918    4.283913
     68          1           0       13.330846    0.090734    5.425357
     69          1           0       14.857396    0.926062    5.739417
     70          1           0       13.423393   -1.030620    7.279486
     71          1           0       14.888691   -0.086754    7.516308
     72          1           0       15.091597   -1.714652    6.830461
     73          1           0        9.872274   -3.791450    3.685155
     74          1           0        8.620661   -2.585115    4.068158
     75          1           0       10.208141   -2.351188    4.757836
     76          1           0        8.744973   -2.646536   -1.238791
     77          1           0        4.657545   -0.600049   -1.160998
     78          1           0        4.476740   -1.510182   -2.648086
     79          1           0        5.521847   -0.157345   -2.669590
     80         12           0      -12.843671   -0.523927   -0.576788
     81          6           0      -12.486609    2.831222    0.581302
     82          6           0       -9.528658   -0.670896   -0.543962
     83          6           0      -13.052677   -3.895652   -0.673155
     84          6           0      -16.245248   -0.242318    0.447988
     85          7           0      -11.260063    0.898446   -0.175934
     86          6           0      -11.311985    2.257477    0.202686
     87          6           0       -9.900198    2.906037    0.356243
     88          6           0       -8.979483    1.730432   -0.077621
     89          6           0       -9.973735    0.588671   -0.377297
     90          6           0       -8.115925    2.228803   -1.248351
     91          6           0       -9.505134    3.483955    1.783400
     92          6           0       -9.309519    4.992429    1.882210
     93          1           0       -7.955325    5.499232    2.419033
     94          7           0      -11.535226   -2.053419   -0.698530
     95          6           0      -10.150363   -1.891711   -0.662919
     96          6           0       -9.503927   -3.117975   -0.903848
     97          6           0      -10.474733   -4.082374   -1.102027
     98          6           0      -11.732369   -3.417606   -0.826702
     99          6           0       -7.961820   -3.418788   -0.994958
    100          6           0      -10.152844   -5.510703   -1.474259
    101          8           0       -9.057146   -5.904628   -1.743374
    102          6           0      -11.421095   -6.485200   -1.634204
    103          7           0      -14.394855   -1.897513   -0.104336
    104          6           0      -14.223942   -3.244710   -0.271402
    105          6           0      -15.540903   -3.945797    0.259065
    106          6           0      -16.587534   -2.843216    0.490796
    107          6           0      -15.696670   -1.559138    0.285610
    108          6           0      -15.997342   -5.128033   -0.547761
    109          6           0      -17.070028   -2.896340    1.935036
    110          6           0      -18.416000   -2.292542    2.236311
    111          7           0      -14.199020    1.046125    0.101564
    112          6           0      -15.530473    1.000712    0.439771
    113          6           0      -15.994597    2.296376    0.780283
    114          6           0      -14.859118    3.140519    0.798331
    115          6           0      -13.778517    2.267488    0.487691
    116          6           0      -17.353205    2.681672    1.209801
    117          6           0      -14.283065    4.469765    1.042618
    118          8           0      -14.868302    5.526505    1.315236
    119          6           0      -12.717964    4.350396    0.891424
    120          6           0      -12.301863    5.065940   -0.285234
    121          8           0      -12.502413    4.600068   -1.431845
    122          8           0      -11.765178    6.232472    0.123437
    123          6           0      -11.073513    7.088293   -0.879154
    124          1           0       -8.439480   -0.744696   -0.581322
    125          1           0      -13.091271   -4.982092   -0.777289
    126          1           0      -17.302716   -0.068994    0.656609
    127          1           0       -9.793070    3.724973   -0.355004
    128          1           0       -8.326855    1.372098    0.717900
    129          1           0       -7.597969    1.357941   -1.649083
    130          1           0       -7.367296    2.981579   -1.001767
    131          1           0       -8.713978    2.666249   -2.048562
    132          1           0       -8.503061    3.090214    1.953589
    133          1           0      -10.197070    3.115797    2.540964
    134          1           0      -10.117004    5.382693    2.502642
    135          1           0       -9.393548    5.429379    0.886540
    136          1           0       -7.781129   -4.233669   -0.293646
    137          1           0       -7.360138   -2.556052   -0.709433
    138          1           0       -7.575046   -3.623251   -1.993274
    139          1           0      -11.021195   -7.425078   -2.013568
    140          1           0      -12.057565   -5.942370   -2.333423
    141          1           0      -11.808591   -6.515885   -0.615913
    142          1           0      -15.232570   -4.350241    1.223794
    143          1           0      -17.463149   -2.851158   -0.158233
    144          1           0      -17.081147   -5.201733   -0.462361
    145          1           0      -15.494806   -5.994056   -0.116533
    146          1           0      -15.655676   -5.127311   -1.582171
    147          1           0      -16.361970   -2.458523    2.639246
    148          1           0      -17.097494   -3.914945    2.322011
    149          1           0      -18.985119   -2.053995    1.337997
    150          1           0      -18.248808   -1.374152    2.799447
    151          1           0      -18.960071   -2.902894    2.957049
    152          1           0      -18.112257    2.024978    0.783538
    153          1           0      -17.490805    3.703484    0.855320
    154          1           0      -17.356717    2.565469    2.293826
    155          1           0      -12.151656    4.605099    1.787272
    156          1           0      -11.312787    8.075488   -0.481133
    157          1           0      -11.406013    6.928309   -1.904378
    158          1           0       -9.990821    7.056591   -0.752625
 ---------------------------------------------------------------------

 SCF Done:  E(RPBE1PBE) =  -4067.34439241     A.U. after   15 cycles

 Excitation energies and oscillator strengths:

 Excited State   1:      Singlet-A      1.7028 eV  728.14 nm  f=0.0000  <S**2>=0.000
     312 -> 313        0.70710
 This state for optimization and/or second-order correction.
 Total Energy, E(TD-HF/TD-DFT) =  -4067.28181719
 Copying the excited state density for this state as the 1-particle RhoCI density.

 Excited State   2:      Singlet-A      1.8311 eV  677.12 nm  f=0.3674  <S**2>=0.000
     310 -> 315       -0.18166
     312 -> 314        0.68801

 Excited State   3:      Singlet-A      1.8691 eV  663.35 nm  f=0.3557  <S**2>=0.000
     309 -> 316        0.16664
     311 -> 313        0.69290
     311 <- 313       -0.10934

 Excited State   4:      Singlet-A      2.1810 eV  568.46 nm  f=0.0000  <S**2>=0.000
     311 -> 314        0.70708

 Excited State   5:      Singlet-A      2.2658 eV  547.20 nm  f=0.1135  <S**2>=0.000
     309 -> 313        0.64670
     311 -> 316       -0.26717

 The electronic state is 1-A.
 Alpha  occ. eigenvalues --  -46.92833 -46.91881 -19.27105 -19.26883 -19.20111
 Alpha  occ. eigenvalues --  -19.19879 -19.19661 -19.19490 -19.19202 -19.19086
 Alpha  occ. eigenvalues --  -14.41907 -14.41747 -14.41716 -14.41520 -14.39033
 Alpha  occ. eigenvalues --  -14.38948 -14.38945 -14.38187 -10.36826 -10.36455
 Alpha  occ. eigenvalues --  -10.32646 -10.32623 -10.32442 -10.32242 -10.30015
 Alpha  occ. eigenvalues --  -10.29422 -10.29189 -10.28930 -10.28910 -10.28872
 Alpha  occ. eigenvalues --  -10.28842 -10.28632 -10.28481 -10.28439 -10.28384
 Alpha  occ. eigenvalues --  -10.27912 -10.27250 -10.26976 -10.26737 -10.26686
 Alpha  occ. eigenvalues --  -10.26623 -10.26506 -10.26449 -10.26331 -10.26229
 Alpha  occ. eigenvalues --  -10.26110 -10.26109 -10.25908 -10.25870 -10.25796
 Alpha  occ. eigenvalues --  -10.25612 -10.25587 -10.25584 -10.25564 -10.25340
 Alpha  occ. eigenvalues --  -10.25319 -10.25288 -10.25286 -10.25251 -10.25014
 Alpha  occ. eigenvalues --  -10.24980 -10.24972 -10.24813 -10.24657 -10.24485
 Alpha  occ. eigenvalues --  -10.24284 -10.24188 -10.24106 -10.24060 -10.23805
 Alpha  occ. eigenvalues --  -10.23775 -10.23698 -10.23619 -10.23609 -10.23526
 Alpha  occ. eigenvalues --  -10.23479 -10.23385 -10.23379 -10.23214 -10.22984
 Alpha  occ. eigenvalues --  -10.22940 -10.22815 -10.22775 -10.22750 -10.22602
 Alpha  occ. eigenvalues --  -10.22530  -3.14755  -3.14053  -1.87589  -1.87116
 Alpha  occ. eigenvalues --   -1.86978  -1.86869  -1.86407  -1.86303  -1.11367
 Alpha  occ. eigenvalues --   -1.10895  -1.06539  -1.06291  -1.03492  -1.02761
 Alpha  occ. eigenvalues --   -1.02144  -1.02016  -0.98618  -0.98593  -0.97811
 Alpha  occ. eigenvalues --   -0.97605  -0.97422  -0.97391  -0.96321  -0.96278
 Alpha  occ. eigenvalues --   -0.86571  -0.85708  -0.83917  -0.83500  -0.83221
 Alpha  occ. eigenvalues --   -0.82952  -0.82914  -0.82517  -0.81614  -0.81585
 Alpha  occ. eigenvalues --   -0.81532  -0.80968  -0.80769  -0.79967  -0.78990
 Alpha  occ. eigenvalues --   -0.78706  -0.78519  -0.78173  -0.77470  -0.76891
 Alpha  occ. eigenvalues --   -0.76562  -0.76099  -0.75440  -0.75076  -0.74827
 Alpha  occ. eigenvalues --   -0.74453  -0.72396  -0.72036  -0.71889  -0.71592
 Alpha  occ. eigenvalues --   -0.70946  -0.70844  -0.70510  -0.69849  -0.69376
 Alpha  occ. eigenvalues --   -0.69259  -0.67203  -0.66622  -0.66112  -0.65989
 Alpha  occ. eigenvalues --   -0.63481  -0.63161  -0.62977  -0.62362  -0.62162
 Alpha  occ. eigenvalues --   -0.61892  -0.61560  -0.60745  -0.60009  -0.59946
 Alpha  occ. eigenvalues --   -0.59548  -0.59456  -0.59385  -0.59094  -0.59036
 Alpha  occ. eigenvalues --   -0.58840  -0.56793  -0.56724  -0.54587  -0.54428
 Alpha  occ. eigenvalues --   -0.54166  -0.53844  -0.53719  -0.53045  -0.52970
 Alpha  occ. eigenvalues --   -0.52863  -0.52767  -0.52063  -0.51767  -0.51587
 Alpha  occ. eigenvalues --   -0.50879  -0.50536  -0.50505  -0.50065  -0.49691
 Alpha  occ. eigenvalues --   -0.49517  -0.49228  -0.48951  -0.48838  -0.48607
 Alpha  occ. eigenvalues --   -0.48372  -0.48138  -0.48092  -0.47697  -0.47623
 Alpha  occ. eigenvalues --   -0.47385  -0.47366  -0.47188  -0.47067  -0.46871
 Alpha  occ. eigenvalues --   -0.46682  -0.46515  -0.46191  -0.46041  -0.45786
 Alpha  occ. eigenvalues --   -0.45638  -0.45239  -0.45130  -0.45079  -0.44986
 Alpha  occ. eigenvalues --   -0.44920  -0.44752  -0.44556  -0.44432  -0.44289
 Alpha  occ. eigenvalues --   -0.44039  -0.43865  -0.43697  -0.43509  -0.43455
 Alpha  occ. eigenvalues --   -0.43336  -0.43012  -0.42884  -0.42867  -0.42629
 Alpha  occ. eigenvalues --   -0.42605  -0.42518  -0.42174  -0.42153  -0.41933
 Alpha  occ. eigenvalues --   -0.41604  -0.41373  -0.41247  -0.41056  -0.41025
 Alpha  occ. eigenvalues --   -0.40952  -0.40944  -0.40715  -0.40543  -0.40254
 Alpha  occ. eigenvalues --   -0.40193  -0.39984  -0.39848  -0.39521  -0.39500
 Alpha  occ. eigenvalues --   -0.39439  -0.39311  -0.39122  -0.39041  -0.38821
 Alpha  occ. eigenvalues --   -0.38810  -0.38515  -0.38325  -0.38311  -0.38254
 Alpha  occ. eigenvalues --   -0.38061  -0.37848  -0.37840  -0.37820  -0.37648
 Alpha  occ. eigenvalues --   -0.37603  -0.37309  -0.37298  -0.37103  -0.36897
 Alpha  occ. eigenvalues --   -0.36866  -0.36757  -0.36530  -0.36459  -0.36430
 Alpha  occ. eigenvalues --   -0.36075  -0.35705  -0.35466  -0.35144  -0.35139
 Alpha  occ. eigenvalues --   -0.35035  -0.34727  -0.34015  -0.33771  -0.33499
 Alpha  occ. eigenvalues --   -0.33320  -0.33113  -0.32985  -0.32557  -0.32301
 Alpha  occ. eigenvalues --   -0.32144  -0.32126  -0.32010  -0.31708  -0.31195
 Alpha  occ. eigenvalues --   -0.30999  -0.29968  -0.29359  -0.29315  -0.29051
 Alpha  occ. eigenvalues --   -0.29012  -0.28524  -0.28403  -0.27327  -0.27137
 Alpha  occ. eigenvalues --   -0.26087  -0.26023  -0.25986  -0.25718  -0.25510
 Alpha  occ. eigenvalues --   -0.25450  -0.25109  -0.24691  -0.21109  -0.21087
 Alpha  occ. eigenvalues --   -0.18813  -0.17952
 Alpha virt. eigenvalues --   -0.11173  -0.10291  -0.05908  -0.05188  -0.04268
 Alpha virt. eigenvalues --   -0.03654  -0.02003  -0.01616  -0.00935  -0.00461
 Alpha virt. eigenvalues --    0.00066   0.00434   0.00631   0.00991   0.01457

 Mulliken charges:
               1
     1  Mg  12.000000
     2  C    6.000000
     3  C    6.000000
     4  C    6.000000
     5  C    6.000000
     6  N    7.000000
     7  C    6.000000
     8  C    6.000000
     9  C    6.000000
    10  C    6.000000
    11  C    6.000000
    12  C    6.000000
    13  C    6.000000
    14  H    1.000000
    15  N    7.000000
    16  C    6.000000
    17  C    6.000000
    18  C    6.000000
    19  C    6.000000
    20  C    6.000000
    21  C    6.000000
    22  O    8.000000
    23  C    6.000000
    24  N    7.000000
    25  C    6.000000
    26  C    6.000000
    27  C    6.000000
    28  C    6.000000
    29  C    6.000000
    30  C    6.000000
    31  C    6.000000
    32  N    7.000000
    33  C    6.000000
    34  C    6.000000
    35  C    6.000000
    36  C    6.000000
    37  C    6.000000
    38  C    6.000000
    39  O    8.000000
    40  C    6.000000
    41  C    6.000000
    42  O    8.000000
    43  O    8.000000
    44  C    6.000000
    45  H    1.000000
    46  H    1.000000
    47  H    1.000000
    48  H    1.000000
    49  H    1.000000
    50  H    1.000000
    51  H    1.000000
    52  H    1.000000
    53  H    1.000000
    54  H    1.000000
    55  H    1.000000
    56  H    1.000000
    57  H    1.000000
    58  H    1.000000
    59  H    1.000000
    60  H    1.000000
    61  H    1.000000
    62  H    1.000000
    63  H    1.000000
    64  H    1.000000
    65  H    1.000000
    66  H    1.000000
    67  H    1.000000
    68  H    1.000000
    69  H    1.000000
    70  H    1.000000
    71  H    1.000000
    72  H    1.000000
    73  H    1.000000
    74  H    1.000000
    75  H    1.000000
    76  H    1.000000
    77  H    1.000000
    78  H    1.000000
    79  H    1.000000
    80  Mg  12.000000
    81  C    6.000000
    82  C    6.000000
    83  C    6.000000
    84  C    6.000000
    85  N    7.000000
    86  C    6.000000
    87  C    6.000000
    88  C    6.000000
    89  C    6.000000
    90  C    6.000000
    91  C    6.000000
    92  C    6.000000
    93  H    1.000000
    94  N    7.000000
    95  C    6.000000
    96  C    6.000000
    97  C    6.000000
    98  C    6.000000
    99  C    6.000000
   100  C    6.000000
   101  O    8.000000
   102  C    6.000000
   103  N    7.000000
   104  C    6.000000
   105  C    6.000000
   106  C    6.000000
   107  C    6.000000
   108  C    6.000000
   109  C    6.000000
   110  C    6.000000
   111  N    7.000000
   112  C    6.000000
   113  C    6.000000
   114  C    6.000000
   115  C    6.000000
   116  C    6.000000
   117  C    6.000000
   118  O    8.000000
   119  C    6.000000
   120  C    6.000000
   121  O    8.000000
   122  O    8.000000
   123  C    6.000000
   124  H    1.000000
   125  H    1.000000
   126  H    1.000000
   127  H    1.000000
   128  H    1.000000
   129  H    1.000000
   130  H    1.000000
   131  H    1.000000
   132  H    1.000000
   133  H    1.000000
   134  H    1.000000
   135  H    1.000000
   136  H    1.000000
   137  H    1.000000
   138  H    1.000000
   139  H    1.000000
   140  H    1.000000
   141  H    1.000000
   142  H    1.000000
   143  H    1.000000
   144  H    1.000000
   145  H    1.000000
   146  H    1.000000
   147  H    1.000000
   148  H    1.000000
   149  H    1.000000
   150  H    1.000000
   151  H    1.000000
   152  H    1.000000
   153  H    1.000000
   154  H    1.000000
   155  H    1.000000
   156  H    1.000000
   157  H    1.000000
   158  H    1.000000
 Sum of Mulliken charges = 624.00000

 Dipole moment (field-independent basis, Debye):
    X=             -0.0000    Y=             -0.0000    Z=              0.0000  Tot=              0.0000
 Quadrupole moment (field-independent basis, Debye-Ang):
   XX=             -0.0000   YY=              0.0000   ZZ=              0.0000
   XY=             -0.0000   XZ=              0.0000   YZ=             -0.0000

 Normal termination of Gaussian 16 at Thu Oct 14 19:22:51 2021.
