 Gaussian 16, Revision A.03,
 Gaussian 16:  ES64L-G16RevA.03 25-Dec-2016

 --------------------------------------------------------
 #p PBE1PBE/Def2SVP td=(nstates=5) density=(transition=1)
 --------------------------------------------------------

 --------------------------------
 TDDFT excited states in gaussian
 --------------------------------
 Symbolic Z-matrix:
 Charge =  0 Multiplicity = 1

                         Standard orientation:
 ---------------------------------------------------------------------
 Center     Atomic      Atomic             Coordinates (Angstroms)
 Number     Number       Type             X           Y           Z
 ---------------------------------------------------------------------
      1         12           0       20.357879   -0.754636    0.189914
      2          6           0       19.664630    2.318569   -1.192989
      3          6           0       21.474656    0.904155    3.063902
      4          6           0       21.154515   -3.722793    1.586267
      5          6           0       19.614589   -2.271294   -2.753642
      6          7           0       20.784763    1.419328    0.733606
      7          6           0       20.175692    2.489055    0.065789
      8          6           0       20.161121    3.772167    0.919969
      9          6           0       20.860972    3.255973    2.230848
     10          6           0       21.030087    1.760668    2.068216
     11          6           0       22.181141    3.959098    2.520181
     12          6           0       18.796738    4.488519    1.218900
     13          6           0       18.569314    5.953746    0.556275
     14          1           0       18.330417    7.018023    1.631793
     15          7           0       21.273516   -1.329802    1.978693
     16          6           0       21.534256   -0.500250    3.081328
     17          6           0       21.856163   -1.286558    4.276769
     18          6           0       21.855449   -2.727174    3.865587
     19          6           0       21.353143   -2.679282    2.434561
     20          6           0       22.166227   -0.661842    5.619211
     21          6           0       22.181573   -3.940498    4.600831
     22          8           0       22.202014   -5.030655    4.010564
     23          6           0       22.573294   -3.940435    6.068096
     24          7           0       20.447201   -2.626482   -0.524438
     25          6           0       20.679660   -3.767376    0.265824
     26          6           0       20.419323   -5.148531   -0.460595
     27          6           0       19.943558   -4.591517   -1.900008
     28          6           0       19.989726   -3.059489   -1.702000
     29          6           0       21.702182   -6.114650   -0.538899
     30          6           0       18.520951   -5.124022   -2.286649
     31          6           0       18.267378   -5.471553   -3.720136
     32          7           0       19.848976   -0.072611   -1.671323
     33          6           0       19.514247   -0.835624   -2.793687
     34          6           0       18.986240   -0.013785   -3.828483
     35          6           0       18.937210    1.276978   -3.183100
     36          6           0       19.543899    1.157905   -1.926313
     37          6           0       18.472574   -0.345805   -5.166364
     38          6           0       18.659352    2.659275   -3.418351
     39          8           0       18.167316    3.306473   -4.349285
     40          6           0       19.272990    3.415830   -2.154211
     41          6           0       20.379846    4.295494   -2.614624
     42          8           0       21.530506    4.098576   -2.578424
     43          8           0       19.876242    5.529145   -3.020487
     44          6           0       20.810704    6.631916   -2.932081
     45          1           0       21.737181    1.423613    3.987893
     46          1           0       21.307590   -4.743540    1.942594
     47          1           0       19.232855   -2.766827   -3.648686
     48          1           0       20.820835    4.504457    0.455779
     49          1           0       20.274514    3.488784    3.120083
     50          1           0       22.989655    3.233777    2.432993
     51          1           0       22.063306    4.266478    3.558581
     52          1           0       22.375077    4.862521    1.942368
     53          1           0       18.700769    4.582997    2.300838
     54          1           0       17.954180    3.905569    0.846660
     55          1           0       17.633118    5.814417    0.015406
     56          1           0       19.418629    6.223656   -0.070956
     57          1           0       23.160916   -0.222439    5.534630
     58          1           0       22.173635   -1.455563    6.364657
     59          1           0       21.519895    0.180649    5.866253
     60          1           0       23.061044   -4.900552    6.237788
     61          1           0       21.734306   -3.789653    6.748211
     62          1           0       23.382870   -3.276104    6.369695
     63          1           0       19.550769   -5.638105   -0.021297
     64          1           0       20.561736   -4.905224   -2.741474
     65          1           0       21.704992   -6.602259   -1.513972
     66          1           0       21.707486   -6.977209    0.126372
     67          1           0       22.643608   -5.586848   -0.385153
     68          1           0       17.704052   -4.481522   -1.958464
     69          1           0       18.294762   -6.083478   -1.821876
     70          1           0       17.545820   -4.727533   -4.057233
     71          1           0       17.714993   -6.374184   -3.981360
     72          1           0       19.194679   -5.391324   -4.288332
     73          1           0       18.100537   -1.370514   -5.145901
     74          1           0       19.354776   -0.301498   -5.804885
     75          1           0       17.807303    0.454075   -5.492044
     76          1           0       18.509459    4.033716   -1.682289
     77          1           0       21.460459    6.491355   -3.795216
     78          1           0       21.366821    6.470085   -2.008832
     79          1           0       20.303893    7.594569   -3.005315
     80         12           0      -20.870627   -0.439940   -0.216224
     81          6           0      -18.434996    2.000893    0.545526
     82          6           0      -23.333316    1.742288    0.706382
     83          6           0      -22.986273   -2.967111   -0.303021
     84          6           0      -18.221700   -2.755067   -0.673637
     85          7           0      -20.851911    1.685165    0.432236
     86          6           0      -19.781496    2.424818    0.645059
     87          6           0      -20.217246    3.875822    0.740492
     88          6           0      -21.712738    3.770834    1.230650
     89          6           0      -22.019277    2.294967    0.776746
     90          6           0      -21.839173    4.101848    2.766291
     91          6           0      -20.180263    4.598783   -0.630430
     92          6           0      -20.118113    6.188290   -0.571198
     93          1           0      -20.131515    6.950620    0.756519
     94          7           0      -22.869422   -0.547485   -0.055190
     95          6           0      -23.786748    0.485209    0.267598
     96          6           0      -25.157836   -0.069247    0.179226
     97          6           0      -25.041562   -1.489015   -0.038867
     98          6           0      -23.594632   -1.773571   -0.152956
     99          6           0      -26.392965    0.750865    0.305654
    100          6           0      -26.108468   -2.641551   -0.194735
    101          8           0      -25.827357   -3.814837   -0.474741
    102          6           0      -27.537877   -2.338041    0.149369
    103          7           0      -20.630048   -2.611185   -0.344623
    104          6           0      -21.654306   -3.419428   -0.413854
    105          6           0      -21.315652   -4.867276   -0.633316
    106          6           0      -19.751426   -4.823213   -0.749774
    107          6           0      -19.494973   -3.284335   -0.677376
    108          6           0      -21.951477   -5.768276    0.429432
    109          6           0      -19.190940   -5.414991   -2.036940
    110          6           0      -17.876757   -6.265634   -1.908334
    111          7           0      -18.701018   -0.448180   -0.178940
    112          6           0      -17.769264   -1.473755   -0.432683
    113          6           0      -16.465374   -0.906216   -0.469081
    114          6           0      -16.622978    0.407743    0.076329
    115          6           0      -17.969467    0.647661    0.183490
    116          6           0      -15.234897   -1.571451   -1.015734
    117          6           0      -16.015959    1.714269    0.426983
    118          8           0      -14.851298    2.054586    0.441440
    119          6           0      -17.183275    2.663217    0.978940
    120          6           0      -16.884410    4.096054    0.681026
    121          8           0      -16.753710    4.588936   -0.400479
    122          8           0      -16.665449    4.829325    1.862221
    123          6           0      -15.725098    5.966286    1.769986
    124          1           0      -24.149333    2.306521    1.163619
    125          1           0      -23.607403   -3.844476   -0.491886
    126          1           0      -17.433056   -3.477283   -0.895107
    127          1           0      -19.442548    4.319740    1.365608
    128          1           0      -22.362246    4.457538    0.686766
    129          1           0      -20.858464    4.321684    3.186841
    130          1           0      -22.112419    3.143721    3.208419
    131          1           0      -22.477134    4.954612    2.998793
    132          1           0      -21.114158    4.304983   -1.111360
    133          1           0      -19.336906    4.187810   -1.185248
    134          1           0      -20.961247    6.514637   -1.181970
    135          1           0      -19.220555    6.449166   -1.132467
    136          1           0      -26.312477    1.837278    0.299793
    137          1           0      -26.918066    0.566414    1.242438
    138          1           0      -26.977986    0.469982   -0.570460
    139          1           0      -28.117909   -1.931728   -0.679091
    140          1           0      -27.373705   -1.636191    0.967946
    141          1           0      -27.955970   -3.267962    0.533810
    142          1           0      -21.768199   -5.054564   -1.606998
    143          1           0      -19.232582   -5.319632    0.069347
    144          1           0      -22.155320   -5.262076    1.373497
    145          1           0      -21.203185   -6.531856    0.638113
    146          1           0      -22.882518   -6.224553    0.092443
    147          1           0      -18.971954   -4.634378   -2.765296
    148          1           0      -20.049411   -5.908927   -2.491838
    149          1           0      -17.456626   -6.202015   -0.904715
    150          1           0      -17.183552   -5.796564   -2.606264
    151          1           0      -17.908179   -7.324891   -2.165566
    152          1           0      -15.223940   -2.558495   -0.553179
    153          1           0      -14.299593   -1.067088   -0.772305
    154          1           0      -15.341335   -1.722844   -2.090381
    155          1           0      -17.135235    2.670581    2.067387
    156          1           0      -16.288138    6.879641    1.962568
    157          1           0      -15.221958    6.010884    0.803458
    158          1           0      -14.994463    5.795407    2.560561
 ---------------------------------------------------------------------

 SCF Done:  E(RPBE1PBE) =  -4067.35249911     A.U. after   16 cycles

 Excitation energies and oscillator strengths:

 Excited State   1:      Singlet-A      1.8150 eV  683.09 nm  f=0.3943  <S**2>=0.000
     309 -> 315        0.14967
     311 -> 313        0.69580
     311 <- 313       -0.11534
 This state for optimization and/or second-order correction.
 Total Energy, E(TD-HF/TD-DFT) =  -4067.28579731
 Copying the excited state density for this state as the 1-particle RhoCI density.

 Excited State   2:      Singlet-A      1.8741 eV  661.56 nm  f=0.0000  <S**2>=0.000
     312 -> 313        0.70711

 Excited State   3:      Singlet-A      1.8895 eV  656.19 nm  f=0.3605  <S**2>=0.000
     310 -> 316       -0.18739
     312 -> 314        0.68566

 Excited State   4:      Singlet-A      2.0945 eV  591.95 nm  f=0.0000  <S**2>=0.000
     311 -> 314        0.70710

 Excited State   5:      Singlet-A      2.1350 eV  580.71 nm  f=0.0932  <S**2>=0.000
     310 -> 314        0.65947
     312 -> 316        0.23135

 The electronic state is 1-A.
 Alpha  occ. eigenvalues --  -46.91939 -46.91340 -19.24070 -19.22872 -19.20198
 Alpha  occ. eigenvalues --  -19.19885 -19.19783 -19.18918 -19.18869 -19.18427
 Alpha  occ. eigenvalues --  -14.42025 -14.41539 -14.41483 -14.41140 -14.39855
 Alpha  occ. eigenvalues --  -14.39313 -14.38349 -14.37918 -10.35698 -10.35135
 Alpha  occ. eigenvalues --  -10.33629 -10.32286 -10.32213 -10.31531 -10.29657
 Alpha  occ. eigenvalues --  -10.29409 -10.28820 -10.28807 -10.28617 -10.28526
 Alpha  occ. eigenvalues --  -10.28439 -10.28208 -10.28182 -10.28157 -10.28050
 Alpha  occ. eigenvalues --  -10.28005 -10.27870 -10.27856 -10.27819 -10.27781
 Alpha  occ. eigenvalues --  -10.27316 -10.27076 -10.27037 -10.26507 -10.26278
 Alpha  occ. eigenvalues --  -10.26142 -10.26086 -10.26041 -10.25952 -10.25942
 Alpha  occ. eigenvalues --  -10.25861 -10.25783 -10.25674 -10.25543 -10.25538
 Alpha  occ. eigenvalues --  -10.25519 -10.25450 -10.25434 -10.25353 -10.25185
 Alpha  occ. eigenvalues --  -10.25109 -10.25106 -10.25061 -10.24883 -10.24842
 Alpha  occ. eigenvalues --  -10.24590 -10.24388 -10.24178 -10.23945 -10.23924
 Alpha  occ. eigenvalues --  -10.23914 -10.23858 -10.23834 -10.23672 -10.23567
 Alpha  occ. eigenvalues --  -10.23557 -10.23484 -10.23401 -10.23335 -10.23334
 Alpha  occ. eigenvalues --  -10.23300 -10.23261 -10.22880 -10.22794 -10.22588
 Alpha  occ. eigenvalues --  -10.22504  -3.13983  -3.13674  -1.86836  -1.86485
 Alpha  occ. eigenvalues --   -1.86357  -1.86203  -1.86059  -1.85916  -1.11570
 Alpha  occ. eigenvalues --   -1.10072  -1.04883  -1.04606  -1.04061  -1.03044
 Alpha  occ. eigenvalues --   -1.02619  -1.01967  -0.99710  -0.99478  -0.99133
 Alpha  occ. eigenvalues --   -0.98059  -0.96685  -0.96597  -0.95298  -0.95079
 Alpha  occ. eigenvalues --   -0.87067  -0.86371  -0.83578  -0.83444  -0.83107
 Alpha  occ. eigenvalues --   -0.82891  -0.82731  -0.82001  -0.81746  -0.81620
 Alpha  occ. eigenvalues --   -0.81548  -0.81496  -0.80773  -0.80076  -0.78447
 Alpha  occ. eigenvalues --   -0.78195  -0.78128  -0.77806  -0.76801  -0.76643
 Alpha  occ. eigenvalues --   -0.75938  -0.75927  -0.75222  -0.75072  -0.74586
 Alpha  occ. eigenvalues --   -0.74232  -0.72933  -0.72733  -0.71727  -0.71524
 Alpha  occ. eigenvalues --   -0.70991  -0.70813  -0.69781  -0.69601  -0.69562
 Alpha  occ. eigenvalues --   -0.69429  -0.67549  -0.67028  -0.66164  -0.66093
 Alpha  occ. eigenvalues --   -0.64223  -0.63599  -0.63104  -0.63005  -0.62403
 Alpha  occ. eigenvalues --   -0.61921  -0.61777  -0.60980  -0.60433  -0.60103
 Alpha  occ. eigenvalues --   -0.59781  -0.59604  -0.59432  -0.59069  -0.58492
 Alpha  occ. eigenvalues --   -0.58073  -0.55747  -0.55462  -0.54607  -0.54529
 Alpha  occ. eigenvalues --   -0.53976  -0.53771  -0.53594  -0.53134  -0.53120
 Alpha  occ. eigenvalues --   -0.52861  -0.52685  -0.52221  -0.52205  -0.51514
 Alpha  occ. eigenvalues --   -0.51029  -0.50937  -0.50080  -0.50060  -0.49766
 Alpha  occ. eigenvalues --   -0.49756  -0.48787  -0.48500  -0.48292  -0.47789
 Alpha  occ. eigenvalues --   -0.47753  -0.47749  -0.47677  -0.47555  -0.47395
 Alpha  occ. eigenvalues --   -0.47296  -0.46793  -0.46783  -0.46636  -0.46395
 Alpha  occ. eigenvalues --   -0.46330  -0.46190  -0.45960  -0.45950  -0.45808
 Alpha  occ. eigenvalues --   -0.45734  -0.45371  -0.45367  -0.45135  -0.45059
 Alpha  occ. eigenvalues --   -0.44860  -0.44762  -0.44530  -0.44461  -0.44383
 Alpha  occ. eigenvalues --   -0.44112  -0.44038  -0.43732  -0.43459  -0.43252
 Alpha  occ. eigenvalues --   -0.43232  -0.42988  -0.42964  -0.42749  -0.42688
 Alpha  occ. eigenvalues --   -0.42657  -0.42486  -0.42179  -0.41967  -0.41912
 Alpha  occ. eigenvalues --   -0.41776  -0.41633  -0.41528  -0.41150  -0.41088
 Alpha  occ. eigenvalues --   -0.41058  -0.40943  -0.40926  -0.40784  -0.40399
 Alpha  occ. eigenvalues --   -0.40318  -0.40135  -0.40043  -0.39872  -0.39782
 Alpha  occ. eigenvalues --   -0.39768  -0.39433  -0.39146  -0.39035  -0.38670
 Alpha  occ. eigenvalues --   -0.38544  -0.38415  -0.38330  -0.38134  -0.38045
 Alpha  occ. eigenvalues --   -0.37977  -0.37783  -0.37748  -0.37535  -0.37410
 Alpha  occ. eigenvalues --   -0.37225  -0.36994  -0.36873  -0.36794  -0.36588
 Alpha  occ. eigenvalues --   -0.36554  -0.36458  -0.36300  -0.36270  -0.36046
 Alpha  occ. eigenvalues --   -0.36033  -0.35899  -0.35867  -0.35505  -0.35130
 Alpha  occ. eigenvalues --   -0.35076  -0.34918  -0.34820  -0.33989  -0.33977
 Alpha  occ. eigenvalues --   -0.33685  -0.33670  -0.32778  -0.32764  -0.32688
 Alpha  occ. eigenvalues --   -0.32541  -0.32136  -0.31472  -0.31154  -0.30833
 Alpha  occ. eigenvalues --   -0.30419  -0.29819  -0.29653  -0.29403  -0.29164
 Alpha  occ. eigenvalues --   -0.29039  -0.28595  -0.28450  -0.27077  -0.26670
 Alpha  occ. eigenvalues --   -0.26376  -0.26043  -0.25780  -0.25511  -0.25361
 Alpha  occ. eigenvalues --   -0.25235  -0.24793  -0.24267  -0.21272  -0.20593
 Alpha  occ. eigenvalues --   -0.19060  -0.18899
 Alpha virt. eigenvalues --   -0.11687  -0.11045  -0.05774  -0.05511  -0.04242
 Alpha virt. eigenvalues --   -0.04197  -0.02174  -0.01767  -0.00537  -0.00024
 Alpha virt. eigenvalues --    0.00249   0.00834   0.01224   0.01320   0.01706

 Mulliken charges:
               1
     1  Mg  12.002333
     2  C    5.990297
     3  C    6.010506
     4  C    6.015046
     5  C    5.993198
     6  N    6.995001
     7  C    6.024618
     8  C    5.988132
     9  C    6.008432
    10  C    5.975062
    11  C    6.001051
    12  C    5.998940
    13  C    5.996277
    14  H    1.008424
    15  N    7.000570
    16  C    5.966232
    17  C    5.971229
    18  C    5.987534
    19  C    5.972126
    20  C    6.001990
    21  C    5.988766
    22  O    7.970021
    23  C    6.006318
    24  N    7.001385
    25  C    5.967458
    26  C    6.013275
    27  C    5.987685
    28  C    6.030850
    29  C    6.002620
    30  C    5.994464
    31  C    6.000352
    32  N    7.000526
    33  C    6.035045
    34  C    6.027126
    35  C    6.004817
    36  C    6.024834
    37  C    5.999915
    38  C    6.015916
    39  O    8.032447
    40  C    5.999635
    41  C    6.000824
    42  O    8.008039
    43  O    7.999666
    44  C    5.997992
    45  H    0.991863
    46  H    0.993396
    47  H    1.009501
    48  H    1.002610
    49  H    1.000146
    50  H    1.002875
    51  H    1.000053
    52  H    0.987645
    53  H    1.009044
    54  H    0.997397
    55  H    0.997089
    56  H    0.997951
    57  H    0.980419
    58  H    0.986078
    59  H    0.980745
    60  H    0.986560
    61  H    0.990043
    62  H    0.992276
    63  H    0.997521
    64  H    1.003324
    65  H    0.989601
    66  H    1.001746
    67  H    1.001538
    68  H    1.000643
    69  H    1.011130
    70  H    0.995158
    71  H    1.004968
    72  H    1.000114
    73  H    1.017347
    74  H    1.017859
    75  H    1.012670
    76  H    1.010980
    77  H    1.002123
    78  H    1.006062
    79  H    1.004554
    80  Mg  11.999979
    81  C    5.999952
    82  C    5.999992
    83  C    6.000006
    84  C    5.999969
    85  N    6.999959
    86  C    5.999967
    87  C    6.000007
    88  C    5.999956
    89  C    6.000128
    90  C    5.999997
    91  C    6.000020
    92  C    5.999996
    93  H    1.000016
    94  N    7.000017
    95  C    6.000101
    96  C    6.000106
    97  C    6.000075
    98  C    6.000075
    99  C    5.999961
   100  C    6.000094
   101  O    8.000150
   102  C    5.999981
   103  N    7.000025
   104  C    6.000087
   105  C    5.999970
   106  C    6.000035
   107  C    5.999913
   108  C    5.999972
   109  C    6.000027
   110  C    6.000006
   111  N    6.999956
   112  C    5.999943
   113  C    5.999828
   114  C    5.999979
   115  C    5.999958
   116  C    6.000020
   117  C    5.999886
   118  O    7.999803
   119  C    6.000024
   120  C    5.999962
   121  O    7.999930
   122  O    8.000016
   123  C    6.000026
   124  H    1.000047
   125  H    1.000051
   126  H    0.999952
   127  H    1.000029
   128  H    1.000008
   129  H    1.000062
   130  H    1.000017
   131  H    1.000030
   132  H    0.999938
   133  H    1.000001
   134  H    0.999972
   135  H    0.999966
   136  H    1.000090
   137  H    1.000132
   138  H    1.000075
   139  H    1.000057
   140  H    1.000024
   141  H    1.000101
   142  H    0.999980
   143  H    1.000013
   144  H    1.000021
   145  H    1.000076
   146  H    1.000003
   147  H    0.999967
   148  H    0.999956
   149  H    1.000033
   150  H    0.999960
   151  H    0.999988
   152  H    0.999940
   153  H    0.999885
   154  H    0.999848
   155  H    1.000004
   156  H    0.999978
   157  H    0.999933
   158  H    0.999996
 Sum of Mulliken charges = 624.00000

 Dipole moment (field-independent basis, Debye):
    X=             -3.7224    Y=              3.5051    Z=             -9.4040  Tot=             10.7041
 Quadrupole moment (field-independent basis, Debye-Ang):
   XX=           -147.1373   YY=             -1.7654   ZZ=             -6.1424
   XY=             74.6798   XZ=           -194.2777   YZ=              7.5698

 Normal termination of Gaussian 16 at Fri Oct 15 12:47:41 2021.
