 Gaussian 16, Revision A.03,
 Gaussian 16:  ES64L-G16RevA.03 25-Dec-2016

 --------------------------------------------------------
 #p PBE1PBE/Def2SVP td=(nstates=5) density=(transition=1)
 --------------------------------------------------------

 --------------------------------
 TDDFT excited states in gaussian
 --------------------------------
 Symbolic Z-matrix:
 Charge =  0 Multiplicity = 1

                         Standard orientation:
 ---------------------------------------------------------------------
 Center     Atomic      Atomic             Coordinates (Angstroms)
 Number     Number       Type             X           Y           Z
 ---------------------------------------------------------------------
      1         12           0       17.792787   -0.665066    0.148106
      2          6           0       15.852823    2.189307    0.753530
      3          6           0       20.585584    1.460812   -0.317645
      4          6           0       19.619619   -3.371848   -0.782215
      5          6           0       14.882900   -2.507139   -0.097563
      6          7           0       18.153809    1.509098    0.381751
      7          6           0       17.201917    2.434759    0.818846
      8          6           0       17.935432    3.735938    1.306240
      9          6           0       19.382317    3.487741    0.864363
     10          6           0       19.380006    2.060525    0.213593
     11          6           0       19.836019    4.579722   -0.141603
     12          6           0       17.703699    3.892745    2.804142
     13          6           0       17.721264    5.296427    3.386857
     14          1           0       18.278316    6.443765    2.514102
     15          7           0       19.815956   -0.971171   -0.457314
     16          6           0       20.789826    0.033400   -0.613788
     17          6           0       22.040752   -0.536459   -1.082663
     18          6           0       21.853440   -1.971609   -1.176947
     19          6           0       20.381596   -2.152883   -0.818015
     20          6           0       23.348258    0.251908   -1.231480
     21          6           0       22.824830   -3.078408   -1.539761
     22          8           0       22.458430   -4.246077   -1.540494
     23          6           0       24.260118   -2.744263   -1.681386
     24          7           0       17.285643   -2.687095   -0.299500
     25          6           0       18.237941   -3.623948   -0.565666
     26          6           0       17.588831   -5.032053   -0.609542
     27          6           0       16.057845   -4.778132   -0.323957
     28          6           0       16.043988   -3.241981   -0.113009
     29          6           0       17.866494   -5.707768   -1.964323
     30          6           0       15.501869   -5.487787    0.939132
     31          6           0       14.720556   -6.727341    0.514432
     32          7           0       15.730981   -0.310451    0.177260
     33          6           0       14.648121   -1.105239   -0.000809
     34          6           0       13.458514   -0.222398   -0.072849
     35          6           0       13.848009    1.026562    0.313604
     36          6           0       15.259346    0.923659    0.409194
     37          6           0       12.069046   -0.782185   -0.327314
     38          6           0       13.425953    2.393348    0.647837
     39          8           0       12.303524    2.883799    0.626578
     40          6           0       14.700193    3.127453    1.018209
     41          6           0       14.685062    4.366092    0.224062
     42          8           0       14.952916    4.554625   -0.970277
     43          8           0       14.222491    5.375780    1.042970
     44          6           0       14.061251    6.680651    0.439280
     45          1           0       21.438984    2.139540   -0.372796
     46          1           0       20.300608   -4.201078   -0.985082
     47          1           0       14.011957   -3.140808   -0.277912
     48          1           0       17.426510    4.485355    0.698837
     49          1           0       19.997129    3.674829    1.744710
     50          1           0       19.986842    4.229578   -1.162896
     51          1           0       20.869504    4.812089    0.113762
     52          1           0       19.134978    5.412763   -0.189643
     53          1           0       18.442501    3.231375    3.257780
     54          1           0       16.761679    3.412088    3.065449
     55          1           0       18.249269    5.269919    4.339108
     56          1           0       16.663208    5.444981    3.605459
     57          1           0       23.232367    1.328646   -1.106314
     58          1           0       23.772062    0.082809   -2.222278
     59          1           0       24.087000   -0.171496   -0.551996
     60          1           0       24.638181   -2.422065   -0.710830
     61          1           0       24.429707   -2.098886   -2.543229
     62          1           0       24.862501   -3.627920   -1.892293
     63          1           0       18.081059   -5.642929    0.146844
     64          1           0       15.552233   -5.021408   -1.259363
     65          1           0       16.996660   -6.020712   -2.541139
     66          1           0       18.370546   -6.605242   -1.606393
     67          1           0       18.405678   -5.087059   -2.679386
     68          1           0       14.694383   -4.900345    1.376507
     69          1           0       16.269678   -5.764861    1.661739
     70          1           0       15.092710   -7.504867    1.181380
     71          1           0       14.991898   -7.113235   -0.467899
     72          1           0       13.635711   -6.645578    0.587273
     73          1           0       12.038970   -1.814328   -0.677384
     74          1           0       11.498422   -0.182024   -1.034984
     75          1           0       11.562956   -0.882337    0.633512
     76          1           0       14.667265    3.325999    2.088976
     77          1           0       13.473580    6.551715   -0.469992
     78          1           0       15.005148    7.159265    0.177426
     79          1           0       13.312978    7.176319    1.056816
     80         12           0      -17.914553   -0.684642    0.146086
     81          6           0      -17.445681    2.603024   -0.946413
     82          6           0      -16.958380    0.343667    3.298076
     83          6           0      -17.671119   -3.952979    1.099907
     84          6           0      -18.205353   -1.663269   -3.163100
     85          7           0      -17.382618    1.250501    1.017345
     86          6           0      -17.471517    2.454080    0.436992
     87          6           0      -17.399084    3.641556    1.408096
     88          6           0      -17.051293    2.913679    2.762955
     89          6           0      -17.223708    1.336791    2.390365
     90          6           0      -15.673826    3.212999    3.392784
     91          6           0      -18.663911    4.498611    1.462827
     92          6           0      -18.394727    5.953881    1.886863
     93          1           0      -16.960421    6.384755    2.224520
     94          7           0      -17.503123   -1.683259    1.954841
     95          6           0      -17.187225   -1.069915    3.189097
     96          6           0      -17.047116   -2.108223    4.190252
     97          6           0      -17.188690   -3.394492    3.547766
     98          6           0      -17.500455   -3.059124    2.159252
     99          6           0      -16.880411   -1.764506    5.644879
    100          6           0      -17.207664   -4.864043    4.166158
    101          8           0      -17.477534   -5.855636    3.532906
    102          6           0      -16.844384   -4.979585    5.630649
    103          7           0      -17.840070   -2.521260   -0.883260
    104          6           0      -17.776816   -3.746745   -0.287209
    105          6           0      -17.879775   -4.922150   -1.327649
    106          6           0      -18.113102   -4.150396   -2.625387
    107          6           0      -18.041633   -2.698102   -2.192547
    108          6           0      -16.777823   -6.054155   -1.408124
    109          6           0      -19.480452   -4.509589   -3.252802
    110          6           0      -20.751610   -3.808967   -2.723944
    111          7           0      -18.001849    0.231115   -1.735829
    112          6           0      -18.123786   -0.286149   -2.999451
    113          6           0      -18.128238    0.745512   -3.981787
    114          6           0      -17.848436    1.960184   -3.208168
    115          6           0      -17.766060    1.577616   -1.926085
    116          6           0      -18.310278    0.706300   -5.434429
    117          6           0      -17.526061    3.378341   -3.284892
    118          8           0      -17.551732    4.147463   -4.251642
    119          6           0      -17.254652    3.882735   -1.836952
    120          6           0      -15.926702    4.475729   -1.716405
    121          8           0      -14.868086    3.863389   -1.623585
    122          8           0      -16.013942    5.825043   -1.951044
    123          6           0      -14.799163    6.586847   -2.300393
    124          1           0      -16.623483    0.754725    4.252930
    125          1           0      -17.778078   -4.990556    1.422998
    126          1           0      -18.393473   -1.957174   -4.197802
    127          1           0      -16.524834    4.263382    1.216763
    128          1           0      -17.825405    3.019682    3.522125
    129          1           0      -15.979831    3.501093    4.398343
    130          1           0      -15.187457    4.042305    2.879725
    131          1           0      -15.034058    2.331481    3.349520
    132          1           0      -19.421509    4.069305    2.117338
    133          1           0      -19.136990    4.532609    0.481064
    134          1           0      -19.043821    6.028836    2.759552
    135          1           0      -18.829712    6.668787    1.186975
    136          1           0      -16.699698   -0.689820    5.669884
    137          1           0      -16.039546   -2.328585    6.049002
    138          1           0      -17.753467   -2.020592    6.246998
    139          1           0      -15.790341   -4.877447    5.890882
    140          1           0      -17.248373   -5.923085    5.997650
    141          1           0      -17.420545   -4.163461    6.066494
    142          1           0      -18.780106   -5.424373   -0.974441
    143          1           0      -17.296618   -4.421989   -3.293511
    144          1           0      -16.414725   -6.265424   -2.413229
    145          1           0      -17.226871   -6.985674   -1.065020
    146          1           0      -15.981543   -5.788914   -0.712012
    147          1           0      -19.570793   -5.589499   -3.142043
    148          1           0      -19.355428   -4.307122   -4.316917
    149          1           0      -21.498055   -4.601493   -2.677324
    150          1           0      -21.139826   -3.049143   -3.401830
    151          1           0      -20.614335   -3.279528   -1.781761
    152          1           0      -18.947245    1.546393   -5.709016
    153          1           0      -18.738473   -0.214211   -5.831297
    154          1           0      -17.375979    0.966264   -5.932355
    155          1           0      -18.053824    4.601328   -1.655775
    156          1           0      -13.902674    5.966328   -2.276436
    157          1           0      -14.674334    7.370368   -1.552584
    158          1           0      -15.055471    6.931051   -3.301738
 ---------------------------------------------------------------------

 SCF Done:  E(RPBE1PBE) =  -4067.38698804     A.U. after   16 cycles

 Excitation energies and oscillator strengths:

 Excited State   1:      Singlet-A      1.8263 eV  678.87 nm  f=0.3829  <S**2>=0.000
     309 -> 315       -0.16172
     312 -> 314        0.69458
     312 <- 314       -0.11150
 This state for optimization and/or second-order correction.
 Total Energy, E(TD-HF/TD-DFT) =  -4067.31987166
 Copying the excited state density for this state as the 1-particle RhoCI density.

 Excited State   2:      Singlet-A      1.8755 eV  661.09 nm  f=0.3916  <S**2>=0.000
     310 -> 316        0.17469
     311 -> 313        0.69087
     311 <- 313       -0.10931

 Excited State   3:      Singlet-A      1.8863 eV  657.29 nm  f=0.0000  <S**2>=0.000
     312 -> 313        0.70711

 Excited State   4:      Singlet-A      2.0097 eV  616.92 nm  f=0.0000  <S**2>=0.000
     311 -> 314        0.70710

 Excited State   5:      Singlet-A      2.1487 eV  577.01 nm  f=0.1381  <S**2>=0.000
     310 -> 313        0.66653
     311 -> 316       -0.21043

 The electronic state is 1-A.
 Alpha  occ. eigenvalues --  -46.92503 -46.91634 -19.25145 -19.24518 -19.20058
 Alpha  occ. eigenvalues --  -19.20042 -19.19626 -19.19214 -19.19170 -19.18970
 Alpha  occ. eigenvalues --  -14.41702 -14.41669 -14.41440 -14.41247 -14.39676
 Alpha  occ. eigenvalues --  -14.39057 -14.38919 -14.37889 -10.36403 -10.35618
 Alpha  occ. eigenvalues --  -10.33239 -10.32650 -10.32389 -10.32254 -10.29565
 Alpha  occ. eigenvalues --  -10.28819 -10.28630 -10.28568 -10.28567 -10.28535
 Alpha  occ. eigenvalues --  -10.28510 -10.28417 -10.28408 -10.28354 -10.28206
 Alpha  occ. eigenvalues --  -10.27994 -10.27948 -10.27485 -10.27340 -10.26956
 Alpha  occ. eigenvalues --  -10.26568 -10.26541 -10.26489 -10.26348 -10.26196
 Alpha  occ. eigenvalues --  -10.26070 -10.25946 -10.25841 -10.25790 -10.25746
 Alpha  occ. eigenvalues --  -10.25677 -10.25569 -10.25560 -10.25527 -10.25501
 Alpha  occ. eigenvalues --  -10.25491 -10.25468 -10.25440 -10.25353 -10.25217
 Alpha  occ. eigenvalues --  -10.25213 -10.25201 -10.24863 -10.24774 -10.24692
 Alpha  occ. eigenvalues --  -10.24555 -10.24382 -10.24316 -10.24207 -10.24110
 Alpha  occ. eigenvalues --  -10.23962 -10.23958 -10.23847 -10.23608 -10.23532
 Alpha  occ. eigenvalues --  -10.23432 -10.23426 -10.23288 -10.23217 -10.23049
 Alpha  occ. eigenvalues --  -10.22961 -10.22852 -10.22725 -10.22666 -10.22529
 Alpha  occ. eigenvalues --  -10.22461  -3.14484  -3.13739  -1.87338  -1.86816
 Alpha  occ. eigenvalues --   -1.86738  -1.86581  -1.86109  -1.85968  -1.10582
 Alpha  occ. eigenvalues --   -1.09811  -1.06232  -1.04988  -1.04844  -1.03622
 Alpha  occ. eigenvalues --   -1.01702  -1.01422  -0.99146  -0.99012  -0.97945
 Alpha  occ. eigenvalues --   -0.97384  -0.97196  -0.97115  -0.96164  -0.95599
 Alpha  occ. eigenvalues --   -0.87811  -0.86439  -0.83512  -0.83424  -0.83065
 Alpha  occ. eigenvalues --   -0.83014  -0.82416  -0.82195  -0.81444  -0.81367
 Alpha  occ. eigenvalues --   -0.81051  -0.80685  -0.80381  -0.79942  -0.78581
 Alpha  occ. eigenvalues --   -0.78450  -0.78130  -0.77659  -0.77020  -0.76558
 Alpha  occ. eigenvalues --   -0.76424  -0.76061  -0.75293  -0.75247  -0.74508
 Alpha  occ. eigenvalues --   -0.74369  -0.72416  -0.72246  -0.71605  -0.71389
 Alpha  occ. eigenvalues --   -0.71114  -0.71104  -0.70281  -0.70178  -0.69354
 Alpha  occ. eigenvalues --   -0.68890  -0.67005  -0.66867  -0.65508  -0.65442
 Alpha  occ. eigenvalues --   -0.64134  -0.63465  -0.62871  -0.62818  -0.62337
 Alpha  occ. eigenvalues --   -0.62089  -0.61418  -0.60424  -0.59789  -0.59305
 Alpha  occ. eigenvalues --   -0.59225  -0.59161  -0.59090  -0.58914  -0.58456
 Alpha  occ. eigenvalues --   -0.58256  -0.56738  -0.55951  -0.54557  -0.54257
 Alpha  occ. eigenvalues --   -0.54230  -0.53635  -0.53574  -0.53570  -0.53319
 Alpha  occ. eigenvalues --   -0.52992  -0.52815  -0.52275  -0.52247  -0.51947
 Alpha  occ. eigenvalues --   -0.50516  -0.50378  -0.50297  -0.49958  -0.49658
 Alpha  occ. eigenvalues --   -0.49636  -0.49302  -0.49163  -0.48218  -0.48163
 Alpha  occ. eigenvalues --   -0.48012  -0.47862  -0.47788  -0.47723  -0.47509
 Alpha  occ. eigenvalues --   -0.47441  -0.47424  -0.47226  -0.46751  -0.46662
 Alpha  occ. eigenvalues --   -0.46517  -0.46375  -0.46356  -0.46223  -0.46006
 Alpha  occ. eigenvalues --   -0.45480  -0.45400  -0.45113  -0.44815  -0.44734
 Alpha  occ. eigenvalues --   -0.44320  -0.44176  -0.44139  -0.44067  -0.44003
 Alpha  occ. eigenvalues --   -0.43909  -0.43766  -0.43645  -0.43632  -0.43578
 Alpha  occ. eigenvalues --   -0.43253  -0.43133  -0.42866  -0.42858  -0.42734
 Alpha  occ. eigenvalues --   -0.42486  -0.42287  -0.42063  -0.41754  -0.41692
 Alpha  occ. eigenvalues --   -0.41456  -0.41396  -0.41059  -0.40964  -0.40839
 Alpha  occ. eigenvalues --   -0.40805  -0.40568  -0.40492  -0.40355  -0.39973
 Alpha  occ. eigenvalues --   -0.39969  -0.39750  -0.39681  -0.39467  -0.39370
 Alpha  occ. eigenvalues --   -0.39222  -0.39149  -0.39029  -0.39023  -0.38611
 Alpha  occ. eigenvalues --   -0.38418  -0.38401  -0.38206  -0.38163  -0.37969
 Alpha  occ. eigenvalues --   -0.37942  -0.37850  -0.37808  -0.37661  -0.37609
 Alpha  occ. eigenvalues --   -0.37432  -0.37330  -0.37256  -0.37215  -0.36814
 Alpha  occ. eigenvalues --   -0.36735  -0.36371  -0.36307  -0.36144  -0.35903
 Alpha  occ. eigenvalues --   -0.35833  -0.35697  -0.35516  -0.35236  -0.35069
 Alpha  occ. eigenvalues --   -0.34812  -0.34793  -0.33870  -0.33452  -0.33451
 Alpha  occ. eigenvalues --   -0.33295  -0.32975  -0.32934  -0.32770  -0.32750
 Alpha  occ. eigenvalues --   -0.32656  -0.31699  -0.31554  -0.31248  -0.31166
 Alpha  occ. eigenvalues --   -0.30892  -0.30566  -0.29518  -0.29369  -0.29075
 Alpha  occ. eigenvalues --   -0.28936  -0.28445  -0.28235  -0.26908  -0.26574
 Alpha  occ. eigenvalues --   -0.26423  -0.26307  -0.26135  -0.25919  -0.25698
 Alpha  occ. eigenvalues --   -0.25525  -0.25155  -0.24353  -0.20713  -0.20471
 Alpha  occ. eigenvalues --   -0.18855  -0.18558
 Alpha virt. eigenvalues --   -0.11249  -0.11099  -0.05034  -0.04840  -0.04020
 Alpha virt. eigenvalues --   -0.03594  -0.02422  -0.01891  -0.00415  -0.00140
 Alpha virt. eigenvalues --    0.00584   0.00735   0.01097   0.01126   0.01502

 Mulliken charges:
               1
     1  Mg  11.999655
     2  C    6.022774
     3  C    5.996507
     4  C    5.977654
     5  C    6.005197
     6  N    7.014417
     7  C    5.966880
     8  C    6.005212
     9  C    5.988780
    10  C    6.029590
    11  C    5.998183
    12  C    6.004175
    13  C    5.999816
    14  H    0.993569
    15  N    6.995265
    16  C    6.035951
    17  C    6.018561
    18  C    6.017278
    19  C    6.028256
    20  C    5.997667
    21  C    6.014350
    22  O    8.030452
    23  C    5.992389
    24  N    6.993604
    25  C    6.031475
    26  C    5.993080
    27  C    6.011014
    28  C    5.972593
    29  C    5.997753
    30  C    6.004258
    31  C    6.001534
    32  N    7.001186
    33  C    5.966483
    34  C    5.969494
    35  C    5.999624
    36  C    5.966379
    37  C    6.002962
    38  C    5.980605
    39  O    7.973528
    40  C    5.999711
    41  C    5.996819
    42  O    7.992121
    43  O    7.999411
    44  C    6.001198
    45  H    1.013118
    46  H    1.002047
    47  H    0.989091
    48  H    1.002870
    49  H    1.006149
    50  H    0.998869
    51  H    0.999235
    52  H    1.012841
    53  H    0.990886
    54  H    1.007527
    55  H    0.996959
    56  H    1.004329
    57  H    1.015666
    58  H    1.016713
    59  H    1.016420
    60  H    1.007407
    61  H    1.007614
    62  H    1.014707
    63  H    0.998076
    64  H    0.996418
    65  H    1.008115
    66  H    0.999780
    67  H    0.994819
    68  H    1.004455
    69  H    0.990747
    70  H    0.994556
    71  H    0.994722
    72  H    1.001199
    73  H    0.982646
    74  H    0.982270
    75  H    0.979702
    76  H    0.992599
    77  H    0.999350
    78  H    0.993318
    79  H    0.997367
    80  Mg  11.999931
    81  C    6.000205
    82  C    6.000020
    83  C    5.999871
    84  C    5.999964
    85  N    7.000087
    86  C    5.999839
    87  C    6.000066
    88  C    5.999933
    89  C    5.999993
    90  C    6.000050
    91  C    6.000017
    92  C    5.999993
    93  H    1.000132
    94  N    7.000102
    95  C    6.000132
    96  C    6.000054
    97  C    6.000073
    98  C    6.000161
    99  C    5.999948
   100  C    6.000078
   101  O    8.000049
   102  C    6.000015
   103  N    7.000005
   104  C    6.000172
   105  C    5.999952
   106  C    6.000063
   107  C    5.999952
   108  C    6.000002
   109  C    5.999993
   110  C    6.000052
   111  N    7.000072
   112  C    5.999920
   113  C    5.999844
   114  C    5.999981
   115  C    5.999806
   116  C    6.000056
   117  C    5.999979
   118  O    7.999907
   119  C    5.999949
   120  C    5.999984
   121  O    8.000108
   122  O    7.999931
   123  C    5.999981
   124  H    1.000104
   125  H    0.999939
   126  H    0.999886
   127  H    1.000086
   128  H    0.999945
   129  H    0.999973
   130  H    1.000118
   131  H    1.000099
   132  H    0.999905
   133  H    0.999972
   134  H    0.999912
   135  H    0.999936
   136  H    1.000094
   137  H    1.000138
   138  H    0.999976
   139  H    1.000133
   140  H    0.999967
   141  H    0.999944
   142  H    0.999918
   143  H    1.000034
   144  H    1.000049
   145  H    0.999936
   146  H    1.000108
   147  H    0.999917
   148  H    0.999979
   149  H    0.999875
   150  H    0.999972
   151  H    0.999995
   152  H    0.999847
   153  H    0.999857
   154  H    0.999969
   155  H    0.999914
   156  H    1.000137
   157  H    0.999995
   158  H    0.999951
 Sum of Mulliken charges = 624.00000

 Dipole moment (field-independent basis, Debye):
    X=             10.3215    Y=             -1.2676    Z=             -1.5605  Tot=             10.5155
 Quadrupole moment (field-independent basis, Debye-Ang):
   XX=            366.8477   YY=             -1.8436   ZZ=              1.0507
   XY=            -27.3405   XZ=            -34.5933   YZ=              1.5190

 Normal termination of Gaussian 16 at Fri Oct 15 02:29:48 2021.
