 Gaussian 16, Revision A.03,
 Gaussian 16:  ES64L-G16RevA.03 25-Dec-2016

 --------------------------------------------------------
 #p PBE1PBE/Def2SVP td=(nstates=5) density=(transition=1)
 --------------------------------------------------------

 --------------------------------
 TDDFT excited states in gaussian
 --------------------------------
 Symbolic Z-matrix:
 Charge =  0 Multiplicity = 1

                         Standard orientation:
 ---------------------------------------------------------------------
 Center     Atomic      Atomic             Coordinates (Angstroms)
 Number     Number       Type             X           Y           Z
 ---------------------------------------------------------------------
      1         12           0        9.831822   -0.027232    0.742797
      2          6           0        9.070057    1.687320   -2.180056
      3          6           0        6.618346    0.806745    1.982400
      4          6           0       10.036704   -2.514657    2.964258
      5          6           0       12.668927   -1.318159   -0.904325
      6          7           0        7.865338    0.861331   -0.203508
      7          6           0        7.961040    1.690527   -1.295116
      8          6           0        6.689917    2.446716   -1.523150
      9          6           0        6.011657    2.373925   -0.078488
     10          6           0        6.840105    1.255603    0.647328
     11          6           0        5.985238    3.750725    0.758411
     12          6           0        5.881558    1.835638   -2.780361
     13          6           0        5.005724    2.769647   -3.448759
     14          1           0        3.543325    2.285723   -3.545266
     15          7           0        8.626237   -0.650282    2.365841
     16          6           0        7.332215   -0.172896    2.716027
     17          6           0        6.922209   -0.868033    3.924485
     18          6           0        7.904558   -1.832263    4.257104
     19          6           0        8.972955   -1.639046    3.219844
     20          6           0        5.586869   -0.661178    4.536194
     21          6           0        7.771864   -2.868850    5.450091
     22          8           0        6.750230   -2.803812    6.132016
     23          6           0        8.958792   -3.687806    5.945660
     24          7           0       11.113544   -1.702421    0.889614
     25          6           0       11.033269   -2.492652    1.990046
     26          6           0       12.112391   -3.744021    1.958412
     27          6           0       13.101887   -3.217287    0.811659
     28          6           0       12.318877   -2.005403    0.214663
     29          6           0       12.901404   -4.004833    3.297091
     30          6           0       13.400966   -4.271914   -0.255459
     31          6           0       14.853714   -4.722870   -0.540058
     32          7           0       10.844770    0.355132   -1.015490
     33          6           0       11.980491   -0.211260   -1.517217
     34          6           0       12.356144    0.476455   -2.721699
     35          6           0       11.153260    1.214563   -3.034983
     36          6           0       10.264928    1.048442   -1.958784
     37          6           0       13.565127    0.200627   -3.568180
     38          6           0       10.517738    2.002997   -4.070023
     39          8           0       10.980370    2.490061   -5.056497
     40          6           0        9.090440    2.432783   -3.551003
     41          6           0        8.917987    3.949820   -3.317138
     42          8           0        9.684959    4.640506   -2.681315
     43          8           0        7.797650    4.414438   -4.036535
     44          6           0        7.595052    5.831406   -4.070031
     45          1           0        5.647405    1.156370    2.337261
     46          1           0       10.033379   -3.466504    3.499131
     47          1           0       13.566410   -1.732590   -1.367173
     48          1           0        6.853946    3.522217   -1.597749
     49          1           0        4.985420    2.027687   -0.206391
     50          1           0        4.929333    3.954712    0.935588
     51          1           0        6.464762    4.575963    0.232878
     52          1           0        6.486498    3.540991    1.703762
     53          1           0        5.278085    1.047980   -2.329544
     54          1           0        6.695786    1.387847   -3.350752
     55          1           0        5.418672    2.906374   -4.447480
     56          1           0        4.969000    3.708649   -2.896534
     57          1           0        5.092508    0.222705    4.133525
     58          1           0        5.694664   -0.443611    5.599101
     59          1           0        4.929778   -1.510962    4.349775
     60          1           0        9.318122   -4.422129    5.224034
     61          1           0        8.653420   -4.176593    6.871411
     62          1           0        9.751173   -2.984415    6.201791
     63          1           0       11.513402   -4.577295    1.592055
     64          1           0       14.018073   -2.750566    1.174081
     65          1           0       12.603771   -4.964915    3.717699
     66          1           0       12.667597   -3.217959    4.015215
     67          1           0       13.960692   -4.006991    3.037940
     68          1           0       12.927052   -4.027320   -1.205809
     69          1           0       12.874678   -5.216893   -0.121749
     70          1           0       15.294424   -4.430160   -1.493439
     71          1           0       14.806460   -5.811716   -0.569436
     72          1           0       15.535684   -4.373064    0.235893
     73          1           0       13.712300    1.073185   -4.205123
     74          1           0       13.405426   -0.498614   -4.388343
     75          1           0       14.449485   -0.121288   -3.018919
     76          1           0        8.436000    2.133443   -4.370143
     77          1           0        6.513714    5.866464   -4.206533
     78          1           0        7.991024    6.279621   -4.981132
     79          1           0        8.015859    6.306045   -3.184515
     80         12           0       -9.795513   -0.756194   -0.260413
     81          6           0       -8.253185    1.957399    1.451228
     82          6           0       -6.664702   -1.856433   -1.160460
     83          6           0      -11.403711   -3.168124   -1.846343
     84          6           0      -12.994491    0.776547    0.319733
     85          7           0       -7.624111    0.020059    0.051516
     86          6           0       -7.313261    1.085813    0.876048
     87          6           0       -5.748419    1.146000    0.936989
     88          6           0       -5.211932   -0.090725    0.037165
     89          6           0       -6.567915   -0.661154   -0.390864
     90          6           0       -4.226487    0.269289   -1.094104
     91          6           0       -5.087090    1.270252    2.371561
     92          6           0       -4.216218    2.474239    2.584278
     93          1           0       -3.469636    3.170988    1.477501
     94          7           0       -9.089537   -2.442934   -1.294334
     95          6           0       -7.778650   -2.691921   -1.553902
     96          6           0       -7.736356   -4.007153   -2.139503
     97          6           0       -9.070683   -4.357291   -2.438831
     98          6           0       -9.978278   -3.301010   -1.883960
     99          6           0       -6.383396   -4.656801   -2.475538
    100          6           0       -9.536946   -5.503323   -3.284637
    101          8           0      -10.746200   -5.649976   -3.582034
    102          6           0       -8.540082   -6.456172   -3.832159
    103          7           0      -11.945563   -1.060665   -0.732367
    104          6           0      -12.313557   -2.149846   -1.311936
    105          6           0      -13.907875   -2.397701   -1.466498
    106          6           0      -14.394809   -1.110903   -0.782978
    107          6           0      -13.108457   -0.433394   -0.378428
    108          6           0      -14.275028   -2.532105   -2.989742
    109          6           0      -15.372182   -1.280377    0.432876
    110          6           0      -14.755981   -1.817609    1.746422
    111          7           0      -10.453200    1.003193    0.547674
    112          6           0      -11.780958    1.474363    0.676797
    113          6           0      -11.741664    2.718874    1.456781
    114          6           0      -10.382493    2.937736    1.786348
    115          6           0       -9.634913    1.838057    1.244551
    116          6           0      -12.980979    3.573166    1.859137
    117          6           0       -9.570027    3.801933    2.464285
    118          8           0       -9.788973    4.849607    3.037548
    119          6           0       -8.133982    3.216591    2.360225
    120          6           0       -7.259572    4.240718    1.837066
    121          8           0       -7.057165    4.449732    0.635601
    122          8           0       -6.869135    5.100464    2.870625
    123          6           0       -6.122930    6.300537    2.417756
    124          1           0       -5.773519   -2.162867   -1.712828
    125          1           0      -11.906034   -3.876758   -2.508256
    126          1           0      -13.939915    1.282112    0.526944
    127          1           0       -5.619081    2.140337    0.511554
    128          1           0       -4.627794   -0.756731    0.670682
    129          1           0       -3.302266   -0.301635   -0.996121
    130          1           0       -3.971645    1.322933   -1.206814
    131          1           0       -4.752134   -0.030599   -2.000674
    132          1           0       -4.510080    0.372734    2.595185
    133          1           0       -5.923133    1.375240    3.063060
    134          1           0       -3.323381    2.117672    3.099125
    135          1           0       -4.792202    3.204902    3.151043
    136          1           0       -5.555958   -4.176267   -1.952985
    137          1           0       -6.209815   -4.607555   -3.549735
    138          1           0       -6.490709   -5.689643   -2.145703
    139          1           0       -8.004703   -6.876306   -2.980693
    140          1           0       -7.801805   -5.946929   -4.452798
    141          1           0       -9.024268   -7.194765   -4.469753
    142          1           0      -14.228450   -3.278760   -0.910012
    143          1           0      -14.778826   -0.422417   -1.536067
    144          1           0      -13.557326   -1.939645   -3.557121
    145          1           0      -15.258997   -2.086853   -3.141073
    146          1           0      -14.296520   -3.531507   -3.425057
    147          1           0      -16.267772   -1.813081    0.114682
    148          1           0      -15.800588   -0.300892    0.643110
    149          1           0      -13.925392   -2.515993    1.649652
    150          1           0      -15.564456   -2.216494    2.360133
    151          1           0      -14.417369   -0.929229    2.279323
    152          1           0      -13.001906    3.825299    2.919419
    153          1           0      -13.929155    3.116938    1.576918
    154          1           0      -12.841796    4.590752    1.493238
    155          1           0       -7.908869    3.008409    3.405694
    156          1           0       -6.780126    6.976920    1.871817
    157          1           0       -5.303670    6.090202    1.731201
    158          1           0       -5.601187    6.684474    3.294553
 ---------------------------------------------------------------------

 SCF Done:  E(RPBE1PBE) =  -4067.34625316     A.U. after   16 cycles

 Excitation energies and oscillator strengths:

 Excited State   1:      Singlet-A      1.8321 eV  676.75 nm  f=0.3796  <S**2>=0.000
     309 -> 316       -0.16915
     311 -> 313        0.69535
     311 <- 313       -0.11109
 This state for optimization and/or second-order correction.
 Total Energy, E(TD-HF/TD-DFT) =  -4067.27892642
 Copying the excited state density for this state as the 1-particle RhoCI density.

 Excited State   2:      Singlet-A      1.8466 eV  671.43 nm  f=0.0000  <S**2>=0.000
     312 -> 313        0.70707

 Excited State   3:      Singlet-A      1.8679 eV  663.75 nm  f=0.3612  <S**2>=0.000
     310 -> 315        0.18706
     312 -> 314        0.68776

 Excited State   4:      Singlet-A      1.9454 eV  637.32 nm  f=0.0000  <S**2>=0.000
     311 -> 314        0.70709

 Excited State   5:      Singlet-A      2.2070 eV  561.79 nm  f=0.1100  <S**2>=0.000
     310 -> 314        0.65345
     312 -> 315       -0.25850

 The electronic state is 1-A.
 Alpha  occ. eigenvalues --  -46.93293 -46.93208 -19.25899 -19.25038 -19.21051
 Alpha  occ. eigenvalues --  -19.19852 -19.19627 -19.18725 -19.18695 -19.18146
 Alpha  occ. eigenvalues --  -14.42066 -14.41815 -14.41755 -14.41440 -14.39853
 Alpha  occ. eigenvalues --  -14.39539 -14.39302 -14.38935 -10.37230 -10.35709
 Alpha  occ. eigenvalues --  -10.33512 -10.31884 -10.31399 -10.30698 -10.29503
 Alpha  occ. eigenvalues --  -10.29437 -10.29285 -10.29180 -10.29030 -10.28808
 Alpha  occ. eigenvalues --  -10.28766 -10.28648 -10.28571 -10.28519 -10.28514
 Alpha  occ. eigenvalues --  -10.28232 -10.28174 -10.28125 -10.28077 -10.27765
 Alpha  occ. eigenvalues --  -10.27194 -10.26765 -10.26649 -10.26620 -10.26576
 Alpha  occ. eigenvalues --  -10.26369 -10.26333 -10.26174 -10.26147 -10.26138
 Alpha  occ. eigenvalues --  -10.26073 -10.25998 -10.25986 -10.25978 -10.25786
 Alpha  occ. eigenvalues --  -10.25752 -10.25707 -10.25600 -10.25530 -10.25523
 Alpha  occ. eigenvalues --  -10.25452 -10.25334 -10.25308 -10.25129 -10.25020
 Alpha  occ. eigenvalues --  -10.24936 -10.24890 -10.24565 -10.24389 -10.24336
 Alpha  occ. eigenvalues --  -10.24311 -10.24250 -10.24234 -10.24228 -10.24226
 Alpha  occ. eigenvalues --  -10.24032 -10.23761 -10.23682 -10.23442 -10.23426
 Alpha  occ. eigenvalues --  -10.23425 -10.23381 -10.23337 -10.22839 -10.22717
 Alpha  occ. eigenvalues --  -10.22023  -3.15293  -3.15131  -1.88080  -1.87985
 Alpha  occ. eigenvalues --   -1.87722  -1.87539  -1.87481  -1.87310  -1.10941
 Alpha  occ. eigenvalues --   -1.09196  -1.05810  -1.04978  -1.04331  -1.03673
 Alpha  occ. eigenvalues --   -1.02866  -1.01232  -1.00747  -0.99918  -0.98196
 Alpha  occ. eigenvalues --   -0.97604  -0.97506  -0.97049  -0.96609  -0.96282
 Alpha  occ. eigenvalues --   -0.86883  -0.86790  -0.84068  -0.83621  -0.82718
 Alpha  occ. eigenvalues --   -0.82531  -0.82390  -0.82073  -0.81408  -0.81288
 Alpha  occ. eigenvalues --   -0.81119  -0.80908  -0.80193  -0.79942  -0.78576
 Alpha  occ. eigenvalues --   -0.78417  -0.77765  -0.77706  -0.77011  -0.76863
 Alpha  occ. eigenvalues --   -0.76467  -0.76219  -0.75584  -0.75049  -0.74731
 Alpha  occ. eigenvalues --   -0.74408  -0.72444  -0.72316  -0.71893  -0.71683
 Alpha  occ. eigenvalues --   -0.71135  -0.70807  -0.70577  -0.70130  -0.69379
 Alpha  occ. eigenvalues --   -0.69335  -0.67256  -0.67086  -0.66006  -0.65884
 Alpha  occ. eigenvalues --   -0.64794  -0.63706  -0.63555  -0.63035  -0.62290
 Alpha  occ. eigenvalues --   -0.61969  -0.61238  -0.60946  -0.60413  -0.59800
 Alpha  occ. eigenvalues --   -0.59448  -0.59443  -0.59142  -0.58989  -0.58803
 Alpha  occ. eigenvalues --   -0.58802  -0.57506  -0.56119  -0.54604  -0.54333
 Alpha  occ. eigenvalues --   -0.54175  -0.54135  -0.53657  -0.53276  -0.53166
 Alpha  occ. eigenvalues --   -0.52729  -0.52727  -0.52476  -0.52142  -0.52141
 Alpha  occ. eigenvalues --   -0.50951  -0.50842  -0.50574  -0.50052  -0.49884
 Alpha  occ. eigenvalues --   -0.49670  -0.49452  -0.49343  -0.48704  -0.48199
 Alpha  occ. eigenvalues --   -0.47964  -0.47673  -0.47579  -0.47438  -0.47325
 Alpha  occ. eigenvalues --   -0.47245  -0.47211  -0.47059  -0.46697  -0.46611
 Alpha  occ. eigenvalues --   -0.46399  -0.46301  -0.46126  -0.45839  -0.45750
 Alpha  occ. eigenvalues --   -0.45563  -0.45521  -0.44865  -0.44833  -0.44608
 Alpha  occ. eigenvalues --   -0.44475  -0.44389  -0.44290  -0.44118  -0.43993
 Alpha  occ. eigenvalues --   -0.43930  -0.43854  -0.43771  -0.43544  -0.43523
 Alpha  occ. eigenvalues --   -0.43365  -0.43229  -0.43217  -0.42786  -0.42667
 Alpha  occ. eigenvalues --   -0.42625  -0.42503  -0.42210  -0.42156  -0.42035
 Alpha  occ. eigenvalues --   -0.41786  -0.41671  -0.41447  -0.41352  -0.41247
 Alpha  occ. eigenvalues --   -0.41239  -0.40984  -0.40902  -0.40727  -0.40615
 Alpha  occ. eigenvalues --   -0.40509  -0.40293  -0.40069  -0.39844  -0.39815
 Alpha  occ. eigenvalues --   -0.39660  -0.39494  -0.39435  -0.39131  -0.38929
 Alpha  occ. eigenvalues --   -0.38791  -0.38670  -0.38545  -0.38490  -0.38324
 Alpha  occ. eigenvalues --   -0.38075  -0.38029  -0.38001  -0.37663  -0.37658
 Alpha  occ. eigenvalues --   -0.37570  -0.37407  -0.37405  -0.37215  -0.37157
 Alpha  occ. eigenvalues --   -0.36789  -0.36716  -0.36517  -0.36477  -0.36218
 Alpha  occ. eigenvalues --   -0.36080  -0.36070  -0.35991  -0.35969  -0.35521
 Alpha  occ. eigenvalues --   -0.35451  -0.35035  -0.34879  -0.34694  -0.34076
 Alpha  occ. eigenvalues --   -0.33713  -0.33260  -0.32861  -0.32186  -0.31945
 Alpha  occ. eigenvalues --   -0.31730  -0.31718  -0.31510  -0.31354  -0.31113
 Alpha  occ. eigenvalues --   -0.30799  -0.30612  -0.29870  -0.29508  -0.29149
 Alpha  occ. eigenvalues --   -0.28987  -0.28685  -0.28485  -0.27001  -0.26868
 Alpha  occ. eigenvalues --   -0.26308  -0.25763  -0.25704  -0.25626  -0.25516
 Alpha  occ. eigenvalues --   -0.25200  -0.25198  -0.25064  -0.21310  -0.20722
 Alpha  occ. eigenvalues --   -0.18905  -0.18851
 Alpha virt. eigenvalues --   -0.11381  -0.11070  -0.05278  -0.05264  -0.04046
 Alpha virt. eigenvalues --   -0.03878  -0.02423  -0.02082  -0.01542  -0.00211
 Alpha virt. eigenvalues --   -0.00177   0.00268   0.00338   0.01464   0.01544

 Mulliken charges:
               1
     1  Mg  11.999689
     2  C    6.007306
     3  C    5.980762
     4  C    5.992208
     5  C    6.022299
     6  N    6.992825
     7  C    5.972217
     8  C    6.013361
     9  C    5.989533
    10  C    6.036726
    11  C    5.998731
    12  C    6.001338
    13  C    6.004336
    14  H    0.988540
    15  N    6.994963
    16  C    6.046765
    17  C    6.012250
    18  C    6.018758
    19  C    6.028757
    20  C    5.994420
    21  C    6.013345
    22  O    8.020930
    23  C    5.996628
    24  N    7.014032
    25  C    6.023303
    26  C    5.992152
    27  C    6.007304
    28  C    5.964397
    29  C    5.998472
    30  C    6.002253
    31  C    6.000788
    32  N    6.999494
    33  C    5.958725
    34  C    5.978863
    35  C    5.990690
    36  C    5.976362
    37  C    6.001118
    38  C    5.982530
    39  O    7.970911
    40  C    5.998481
    41  C    5.994698
    42  O    7.994514
    43  O    7.996856
    44  C    6.002667
    45  H    1.008661
    46  H    1.007820
    47  H    0.993379
    48  H    0.997278
    49  H    1.002861
    50  H    1.002519
    51  H    1.012682
    52  H    0.995435
    53  H    0.988704
    54  H    1.007907
    55  H    1.002789
    56  H    0.996135
    57  H    1.017597
    58  H    1.014958
    59  H    1.017361
    60  H    1.011533
    61  H    1.012444
    62  H    1.008137
    63  H    1.001755
    64  H    0.999357
    65  H    0.999632
    66  H    0.996337
    67  H    1.009802
    68  H    1.004786
    69  H    0.991882
    70  H    1.003377
    71  H    0.996154
    72  H    0.996941
    73  H    0.987873
    74  H    0.979086
    75  H    0.983081
    76  H    0.990438
    77  H    0.994018
    78  H    0.996896
    79  H    0.995088
    80  Mg  11.999983
    81  C    5.999914
    82  C    5.999128
    83  C    6.000432
    84  C    6.000335
    85  N    6.999895
    86  C    5.999871
    87  C    6.000136
    88  C    5.999806
    89  C    6.000352
    90  C    6.000057
    91  C    6.000061
    92  C    6.000395
    93  H    1.000388
    94  N    6.999955
    95  C    6.000481
    96  C    5.999937
    97  C    6.000209
    98  C    6.000169
    99  C    6.000156
   100  C    6.000244
   101  O    8.000298
   102  C    5.999943
   103  N    7.000221
   104  C    6.000072
   105  C    5.999906
   106  C    6.000027
   107  C    5.999844
   108  C    5.999879
   109  C    5.999925
   110  C    5.999985
   111  N    7.000120
   112  C    5.999815
   113  C    5.999944
   114  C    5.999914
   115  C    5.999903
   116  C    5.999970
   117  C    5.999982
   118  O    7.999869
   119  C    5.999829
   120  C    5.999711
   121  O    8.000336
   122  O    7.999787
   123  C    5.999978
   124  H    1.000012
   125  H    1.000339
   126  H    1.000246
   127  H    1.000296
   128  H    0.998948
   129  H    0.999211
   130  H    1.000345
   131  H    1.000752
   132  H    0.998776
   133  H    1.000075
   134  H    0.998188
   135  H    1.000278
   136  H    0.999575
   137  H    1.000542
   138  H    0.999852
   139  H    0.999815
   140  H    1.000320
   141  H    1.000356
   142  H    1.000078
   143  H    1.000259
   144  H    1.000168
   145  H    1.000327
   146  H    1.000147
   147  H    1.000192
   148  H    1.000157
   149  H    0.999802
   150  H    1.000107
   151  H    0.999956
   152  H    0.999921
   153  H    1.000056
   154  H    1.000173
   155  H    0.999505
   156  H    1.000464
   157  H    0.999976
   158  H    0.999624
 Sum of Mulliken charges = 624.00000

 Dipole moment (field-independent basis, Debye):
    X=             -4.6753    Y=             -3.1758    Z=              8.7938  Tot=             10.4535
 Quadrupole moment (field-independent basis, Debye-Ang):
   XX=            -86.5378   YY=              0.3595   ZZ=              8.9444
   XY=            -26.8362   XZ=             81.3598   YZ=             -2.6194

 Normal termination of Gaussian 16 at Thu Oct 14 09:55:03 2021.
