 Gaussian 16, Revision A.03,
 Gaussian 16:  ES64L-G16RevA.03 25-Dec-2016

 --------------------------------------------------------
 #p PBE1PBE/Def2SVP td=(nstates=5) density=(transition=1)
 --------------------------------------------------------

 --------------------------------
 TDDFT excited states in gaussian
 --------------------------------
 Symbolic Z-matrix:
 Charge =  0 Multiplicity = 1

                         Standard orientation:
 ---------------------------------------------------------------------
 Center     Atomic      Atomic             Coordinates (Angstroms)
 Number     Number       Type             X           Y           Z
 ---------------------------------------------------------------------
      1         12           0       30.040475    0.437750   -0.074749
      2          6           0       27.775523   -2.271762    0.233891
      3          6           0       27.740814    2.381220    1.494359
      4          6           0       32.498924    2.746338    0.356335
      5          6           0       32.429350   -1.819468   -1.175197
      6          7           0       28.053835   -0.068162    0.875977
      7          6           0       27.254468   -1.178699    0.814329
      8          6           0       25.915623   -0.934794    1.405053
      9          6           0       25.840319    0.662191    1.486591
     10          6           0       27.273101    1.025697    1.294736
     11          6           0       24.905780    1.240084    0.436037
     12          6           0       25.851716   -1.713890    2.728135
     13          6           0       24.643033   -2.722153    2.929149
     14          1           0       23.701721   -2.621838    4.167120
     15          7           0       30.161776    2.324601    0.747221
     16          6           0       29.043519    2.985802    1.273843
     17          6           0       29.421715    4.343338    1.528817
     18          6           0       30.820024    4.499600    1.242572
     19          6           0       31.200181    3.173431    0.686427
     20          6           0       28.396569    5.361502    2.011323
     21          6           0       31.695134    5.721111    1.413897
     22          8           0       31.053621    6.755867    1.757726
     23          6           0       33.244005    5.828266    1.328274
     24          7           0       32.200591    0.487266   -0.373871
     25          6           0       32.976556    1.570887   -0.151264
     26          6           0       34.479749    1.315798   -0.439456
     27          6           0       34.430591   -0.130727   -1.041803
     28          6           0       32.902167   -0.538728   -0.796146
     29          6           0       35.002883    2.372543   -1.395784
     30          6           0       35.354526   -1.123660   -0.405252
     31          6           0       36.471964   -1.578543   -1.304328
     32          7           0       30.121967   -1.524934   -0.577862
     33          6           0       31.132856   -2.358722   -1.072501
     34          6           0       30.644595   -3.577055   -1.476650
     35          6           0       29.311619   -3.581644   -1.017545
     36          6           0       29.072820   -2.349073   -0.414078
     37          6           0       31.419908   -4.547470   -2.342406
     38          6           0       28.054946   -4.376813   -1.021785
     39          8           0       27.840984   -5.447687   -1.499205
     40          6           0       27.090801   -3.519759   -0.117264
     41          6           0       25.721177   -3.573743   -0.758247
     42          8           0       24.783161   -4.257579   -0.348444
     43          8           0       25.658826   -2.687795   -1.861179
     44          6           0       24.317213   -2.609467   -2.438389
     45          1           0       26.942868    3.065559    1.790879
     46          1           0       33.299508    3.489285    0.383603
     47          1           0       33.161299   -2.618903   -1.302993
     48          1           0       25.147875   -1.320952    0.734452
     49          1           0       25.453130    0.933121    2.468462
     50          1           0       24.947736    0.710486   -0.514744
     51          1           0       25.241013    2.250559    0.199874
     52          1           0       23.873384    1.337774    0.771690
     53          1           0       25.825004   -0.976776    3.530532
     54          1           0       26.771263   -2.246467    2.970824
     55          1           0       25.193846   -3.660936    2.992893
     56          1           0       24.089832   -2.850645    1.999540
     57          1           0       27.843886    4.984039    2.871665
     58          1           0       27.691876    5.491332    1.190038
     59          1           0       28.771356    6.312747    2.391661
     60          1           0       33.443384    5.678936    0.267598
     61          1           0       33.680220    5.028508    1.926887
     62          1           0       33.619673    6.779683    1.705749
     63          1           0       35.115624    1.358939    0.444436
     64          1           0       34.519069   -0.083705   -2.126884
     65          1           0       34.727245    3.347392   -0.993195
     66          1           0       34.522516    2.221433   -2.363019
     67          1           0       36.053333    2.360578   -1.684023
     68          1           0       34.863757   -2.051166   -0.110321
     69          1           0       35.835799   -0.820260    0.524285
     70          1           0       37.411850   -1.409277   -0.780357
     71          1           0       36.552899   -0.981822   -2.212885
     72          1           0       36.378493   -2.609303   -1.647890
     73          1           0       30.680750   -5.230527   -2.762187
     74          1           0       32.156344   -5.113439   -1.772429
     75          1           0       31.907234   -3.921325   -3.089439
     76          1           0       26.980871   -4.159999    0.758776
     77          1           0       24.165155   -1.644283   -2.921689
     78          1           0       23.551528   -2.595288   -1.664040
     79          1           0       24.095311   -3.432584   -3.118166
     80         12           0      -29.342194   -0.397729    0.598394
     81          6           0      -28.618018    2.020834   -1.946351
     82          6           0      -28.690082   -2.788820   -1.555442
     83          6           0      -30.809542   -2.410575    2.784664
     84          6           0      -30.368106    2.464136    2.668654
     85          7           0      -28.679088   -0.367026   -1.498182
     86          6           0      -28.468596    0.712866   -2.378564
     87          6           0      -28.031060    0.275944   -3.827632
     88          6           0      -28.015575   -1.355283   -3.581693
     89          6           0      -28.466846   -1.558911   -2.138816
     90          6           0      -28.977434   -2.125526   -4.584693
     91          6           0      -26.691742    0.899442   -4.354350
     92          6           0      -26.054577    0.192082   -5.544441
     93          1           0      -26.032184    1.015656   -6.845134
     94          7           0      -29.608629   -2.356331    0.646573
     95          6           0      -29.264732   -3.270478   -0.321407
     96          6           0      -29.560143   -4.631261    0.074629
     97          6           0      -30.179233   -4.485805    1.378927
     98          6           0      -30.147682   -3.009996    1.678913
     99          6           0      -29.229215   -5.845620   -0.657626
    100          6           0      -30.711562   -5.543366    2.330278
    101          8           0      -31.098548   -5.314081    3.441759
    102          6           0      -30.807610   -6.926632    1.743509
    103          7           0      -30.495723   -0.021169    2.441681
    104          6           0      -30.958657   -1.072172    3.164306
    105          6           0      -31.607543   -0.592214    4.490089
    106          6           0      -31.319753    0.949244    4.465245
    107          6           0      -30.635717    1.158092    3.127910
    108          6           0      -33.121613   -0.914397    4.731720
    109          6           0      -30.427857    1.505288    5.630817
    110          6           0      -31.191219    1.661173    6.964678
    111          7           0      -29.512604    1.759595    0.465396
    112          6           0      -29.850467    2.744197    1.365070
    113          6           0      -29.604925    4.002437    0.780842
    114          6           0      -29.192202    3.814285   -0.484780
    115          6           0      -29.155912    2.401535   -0.688797
    116          6           0      -29.749844    5.287750    1.585147
    117          6           0      -28.810731    4.393920   -1.776593
    118          8           0      -28.732960    5.543281   -2.126642
    119          6           0      -28.443968    3.203008   -2.784622
    120          6           0      -29.503137    3.174195   -3.839940
    121          8           0      -30.582832    2.628946   -3.884645
    122          8           0      -28.976654    3.910470   -4.882696
    123          6           0      -29.809527    4.042408   -6.101778
    124          1           0      -28.547367   -3.649375   -2.212173
    125          1           0      -31.403496   -3.104133    3.384742
    126          1           0      -30.612991    3.195573    3.442294
    127          1           0      -28.868001    0.472052   -4.498040
    128          1           0      -27.004795   -1.712929   -3.779329
    129          1           0      -28.465959   -3.007968   -4.968815
    130          1           0      -29.414330   -1.582362   -5.422240
    131          1           0      -29.814210   -2.564119   -4.041923
    132          1           0      -26.106360    0.881886   -3.434122
    133          1           0      -26.675190    1.961345   -4.600663
    134          1           0      -26.599891   -0.730179   -5.742873
    135          1           0      -24.992579    0.057897   -5.340749
    136          1           0      -28.510175   -6.278805    0.037630
    137          1           0      -28.832106   -5.613395   -1.645914
    138          1           0      -30.017703   -6.582186   -0.810748
    139          1           0      -29.901310   -7.482765    1.982793
    140          1           0      -31.277311   -6.953075    0.759830
    141          1           0      -31.711244   -7.322155    2.206449
    142          1           0      -30.924783   -0.924960    5.272464
    143          1           0      -32.263499    1.483083    4.351431
    144          1           0      -33.778939   -0.058570    4.887997
    145          1           0      -33.154154   -1.413689    5.699838
    146          1           0      -33.601465   -1.513364    3.957724
    147          1           0      -30.058972    2.494141    5.360742
    148          1           0      -29.583147    0.817376    5.688066
    149          1           0      -32.264342    1.725563    6.783744
    150          1           0      -30.778233    2.550792    7.440054
    151          1           0      -31.090267    0.810499    7.639332
    152          1           0      -29.107077    6.074569    1.190193
    153          1           0      -29.530897    5.072683    2.631097
    154          1           0      -30.793581    5.601415    1.613814
    155          1           0      -27.444932    3.322859   -3.204417
    156          1           0      -29.675868    5.071660   -6.434524
    157          1           0      -30.869343    3.841721   -5.945591
    158          1           0      -29.305036    3.313354   -6.736627
 ---------------------------------------------------------------------

 SCF Done:  E(RPBE1PBE) =  -4067.38421396     A.U. after   16 cycles

 Excitation energies and oscillator strengths:

 Excited State   1:      Singlet-A      1.7981 eV  689.55 nm  f=0.0000  <S**2>=0.000
     312 -> 313        0.70711
 This state for optimization and/or second-order correction.
 Total Energy, E(TD-HF/TD-DFT) =  -4067.31813660
 Copying the excited state density for this state as the 1-particle RhoCI density.

 Excited State   2:      Singlet-A      1.8485 eV  670.72 nm  f=0.3344  <S**2>=0.000
     309 -> 315        0.16640
     311 -> 313        0.69419
     311 <- 313       -0.11257

 Excited State   3:      Singlet-A      1.8601 eV  666.54 nm  f=0.3923  <S**2>=0.000
     310 -> 316       -0.16838
     312 -> 314        0.69334
     312 <- 314       -0.10831

 Excited State   4:      Singlet-A      2.2048 eV  562.33 nm  f=0.0000  <S**2>=0.000
     311 -> 314        0.70711

 Excited State   5:      Singlet-A      2.2251 eV  557.20 nm  f=0.1316  <S**2>=0.000
     310 -> 314        0.65933
     312 -> 316        0.23968

 The electronic state is 1-A.
 Alpha  occ. eigenvalues --  -46.92431 -46.91984 -19.26307 -19.24486 -19.21282
 Alpha  occ. eigenvalues --  -19.20116 -19.20073 -19.19283 -19.19168 -19.18537
 Alpha  occ. eigenvalues --  -14.41944 -14.41701 -14.41697 -14.40865 -14.39724
 Alpha  occ. eigenvalues --  -14.39269 -14.38746 -14.38510 -10.37436 -10.35928
 Alpha  occ. eigenvalues --  -10.32851 -10.32695 -10.32403 -10.31891 -10.29701
 Alpha  occ. eigenvalues --  -10.28927 -10.28919 -10.28668 -10.28600 -10.28552
 Alpha  occ. eigenvalues --  -10.28402 -10.28318 -10.28300 -10.28299 -10.28107
 Alpha  occ. eigenvalues --  -10.27954 -10.27853 -10.27817 -10.26863 -10.26809
 Alpha  occ. eigenvalues --  -10.26788 -10.26733 -10.26681 -10.26668 -10.26437
 Alpha  occ. eigenvalues --  -10.26346 -10.26203 -10.26201 -10.26187 -10.26144
 Alpha  occ. eigenvalues --  -10.26046 -10.26034 -10.25984 -10.25835 -10.25502
 Alpha  occ. eigenvalues --  -10.25451 -10.25337 -10.25318 -10.25057 -10.24753
 Alpha  occ. eigenvalues --  -10.24703 -10.24690 -10.24688 -10.24660 -10.24641
 Alpha  occ. eigenvalues --  -10.24584 -10.24430 -10.24424 -10.24423 -10.24388
 Alpha  occ. eigenvalues --  -10.24373 -10.24366 -10.24075 -10.23976 -10.23786
 Alpha  occ. eigenvalues --  -10.23650 -10.23583 -10.23382 -10.23256 -10.23018
 Alpha  occ. eigenvalues --  -10.23010 -10.23004 -10.22918 -10.22821 -10.22636
 Alpha  occ. eigenvalues --  -10.22387  -3.14573  -3.14105  -1.87394  -1.86952
 Alpha  occ. eigenvalues --   -1.86942  -1.86801  -1.86460  -1.86352  -1.10399
 Alpha  occ. eigenvalues --   -1.10362  -1.06873  -1.06127  -1.05518  -1.02820
 Alpha  occ. eigenvalues --   -1.02330  -1.02244  -0.99898  -0.98969  -0.98464
 Alpha  occ. eigenvalues --   -0.98013  -0.97986  -0.97424  -0.97123  -0.96196
 Alpha  occ. eigenvalues --   -0.87714  -0.87342  -0.84217  -0.83654  -0.83383
 Alpha  occ. eigenvalues --   -0.83218  -0.82531  -0.82299  -0.82211  -0.81479
 Alpha  occ. eigenvalues --   -0.81435  -0.81184  -0.80369  -0.80257  -0.79121
 Alpha  occ. eigenvalues --   -0.78635  -0.78188  -0.77457  -0.76956  -0.76437
 Alpha  occ. eigenvalues --   -0.76222  -0.76119  -0.75038  -0.75036  -0.74851
 Alpha  occ. eigenvalues --   -0.74421  -0.72425  -0.72163  -0.71770  -0.71286
 Alpha  occ. eigenvalues --   -0.71206  -0.70919  -0.70821  -0.69889  -0.69838
 Alpha  occ. eigenvalues --   -0.69196  -0.68009  -0.67201  -0.66693  -0.65729
 Alpha  occ. eigenvalues --   -0.63955  -0.63801  -0.63397  -0.63119  -0.62186
 Alpha  occ. eigenvalues --   -0.62143  -0.61702  -0.61433  -0.60715  -0.60175
 Alpha  occ. eigenvalues --   -0.59963  -0.59522  -0.59520  -0.59133  -0.58808
 Alpha  occ. eigenvalues --   -0.58453  -0.57705  -0.56008  -0.55098  -0.54649
 Alpha  occ. eigenvalues --   -0.54628  -0.54231  -0.54065  -0.53664  -0.53351
 Alpha  occ. eigenvalues --   -0.52738  -0.52661  -0.52488  -0.51522  -0.51403
 Alpha  occ. eigenvalues --   -0.50853  -0.50697  -0.50361  -0.50232  -0.50155
 Alpha  occ. eigenvalues --   -0.49587  -0.49453  -0.49010  -0.49001  -0.48815
 Alpha  occ. eigenvalues --   -0.48518  -0.48471  -0.48260  -0.48249  -0.47831
 Alpha  occ. eigenvalues --   -0.47411  -0.47298  -0.46946  -0.46857  -0.46536
 Alpha  occ. eigenvalues --   -0.46520  -0.46236  -0.46222  -0.45917  -0.45753
 Alpha  occ. eigenvalues --   -0.45543  -0.45466  -0.45170  -0.45123  -0.44855
 Alpha  occ. eigenvalues --   -0.44823  -0.44694  -0.44519  -0.44420  -0.44296
 Alpha  occ. eigenvalues --   -0.44234  -0.44054  -0.43754  -0.43606  -0.43400
 Alpha  occ. eigenvalues --   -0.43320  -0.43072  -0.43021  -0.42670  -0.42648
 Alpha  occ. eigenvalues --   -0.42477  -0.42440  -0.42408  -0.41907  -0.41761
 Alpha  occ. eigenvalues --   -0.41650  -0.41419  -0.41346  -0.41190  -0.41012
 Alpha  occ. eigenvalues --   -0.40841  -0.40671  -0.40579  -0.40498  -0.40401
 Alpha  occ. eigenvalues --   -0.40229  -0.40219  -0.40101  -0.39987  -0.39964
 Alpha  occ. eigenvalues --   -0.39914  -0.39768  -0.39699  -0.39625  -0.39484
 Alpha  occ. eigenvalues --   -0.38965  -0.38727  -0.38696  -0.38641  -0.38507
 Alpha  occ. eigenvalues --   -0.38277  -0.38158  -0.38004  -0.37626  -0.37588
 Alpha  occ. eigenvalues --   -0.37422  -0.37339  -0.37284  -0.37234  -0.36922
 Alpha  occ. eigenvalues --   -0.36919  -0.36722  -0.36584  -0.36438  -0.36423
 Alpha  occ. eigenvalues --   -0.36229  -0.36031  -0.35933  -0.35780  -0.35615
 Alpha  occ. eigenvalues --   -0.35360  -0.35072  -0.34345  -0.34068  -0.33782
 Alpha  occ. eigenvalues --   -0.33780  -0.33218  -0.33094  -0.32788  -0.32769
 Alpha  occ. eigenvalues --   -0.32407  -0.32219  -0.32073  -0.31490  -0.31473
 Alpha  occ. eigenvalues --   -0.31422  -0.30653  -0.30319  -0.29873  -0.29397
 Alpha  occ. eigenvalues --   -0.29120  -0.28872  -0.28252  -0.27440  -0.26862
 Alpha  occ. eigenvalues --   -0.26179  -0.25771  -0.25750  -0.25688  -0.25505
 Alpha  occ. eigenvalues --   -0.25476  -0.25348  -0.25117  -0.21396  -0.20563
 Alpha  occ. eigenvalues --   -0.19293  -0.18591
 Alpha virt. eigenvalues --   -0.11762  -0.10970  -0.05385  -0.04714  -0.04000
 Alpha virt. eigenvalues --   -0.03304  -0.02132  -0.01768  -0.00972  -0.00487
 Alpha virt. eigenvalues --   -0.00229   0.00702   0.00825   0.01376   0.01412

 Mulliken charges:
               1
     1  Mg  12.000000
     2  C    6.000000
     3  C    6.000000
     4  C    6.000000
     5  C    6.000000
     6  N    7.000000
     7  C    6.000000
     8  C    6.000000
     9  C    6.000000
    10  C    6.000000
    11  C    6.000000
    12  C    6.000000
    13  C    6.000000
    14  H    1.000000
    15  N    7.000000
    16  C    6.000000
    17  C    6.000000
    18  C    6.000000
    19  C    6.000000
    20  C    6.000000
    21  C    6.000000
    22  O    8.000000
    23  C    6.000000
    24  N    7.000000
    25  C    6.000000
    26  C    6.000000
    27  C    6.000000
    28  C    6.000000
    29  C    6.000000
    30  C    6.000000
    31  C    6.000000
    32  N    7.000000
    33  C    6.000000
    34  C    6.000000
    35  C    6.000000
    36  C    6.000000
    37  C    6.000000
    38  C    6.000000
    39  O    8.000000
    40  C    6.000000
    41  C    6.000000
    42  O    8.000000
    43  O    8.000000
    44  C    6.000000
    45  H    1.000000
    46  H    1.000000
    47  H    1.000000
    48  H    1.000000
    49  H    1.000000
    50  H    1.000000
    51  H    1.000000
    52  H    1.000000
    53  H    1.000000
    54  H    1.000000
    55  H    1.000000
    56  H    1.000000
    57  H    1.000000
    58  H    1.000000
    59  H    1.000000
    60  H    1.000000
    61  H    1.000000
    62  H    1.000000
    63  H    1.000000
    64  H    1.000000
    65  H    1.000000
    66  H    1.000000
    67  H    1.000000
    68  H    1.000000
    69  H    1.000000
    70  H    1.000000
    71  H    1.000000
    72  H    1.000000
    73  H    1.000000
    74  H    1.000000
    75  H    1.000000
    76  H    1.000000
    77  H    1.000000
    78  H    1.000000
    79  H    1.000000
    80  Mg  12.000000
    81  C    6.000000
    82  C    6.000000
    83  C    6.000000
    84  C    6.000000
    85  N    7.000000
    86  C    6.000000
    87  C    6.000000
    88  C    6.000000
    89  C    6.000000
    90  C    6.000000
    91  C    6.000000
    92  C    6.000000
    93  H    1.000000
    94  N    7.000000
    95  C    6.000000
    96  C    6.000000
    97  C    6.000000
    98  C    6.000000
    99  C    6.000000
   100  C    6.000000
   101  O    8.000000
   102  C    6.000000
   103  N    7.000000
   104  C    6.000000
   105  C    6.000000
   106  C    6.000000
   107  C    6.000000
   108  C    6.000000
   109  C    6.000000
   110  C    6.000000
   111  N    7.000000
   112  C    6.000000
   113  C    6.000000
   114  C    6.000000
   115  C    6.000000
   116  C    6.000000
   117  C    6.000000
   118  O    8.000000
   119  C    6.000000
   120  C    6.000000
   121  O    8.000000
   122  O    8.000000
   123  C    6.000000
   124  H    1.000000
   125  H    1.000000
   126  H    1.000000
   127  H    1.000000
   128  H    1.000000
   129  H    1.000000
   130  H    1.000000
   131  H    1.000000
   132  H    1.000000
   133  H    1.000000
   134  H    1.000000
   135  H    1.000000
   136  H    1.000000
   137  H    1.000000
   138  H    1.000000
   139  H    1.000000
   140  H    1.000000
   141  H    1.000000
   142  H    1.000000
   143  H    1.000000
   144  H    1.000000
   145  H    1.000000
   146  H    1.000000
   147  H    1.000000
   148  H    1.000000
   149  H    1.000000
   150  H    1.000000
   151  H    1.000000
   152  H    1.000000
   153  H    1.000000
   154  H    1.000000
   155  H    1.000000
   156  H    1.000000
   157  H    1.000000
   158  H    1.000000
 Sum of Mulliken charges = 624.00000

 Dipole moment (field-independent basis, Debye):
    X=              0.0000    Y=              0.0000    Z=              0.0000  Tot=              0.0000
 Quadrupole moment (field-independent basis, Debye-Ang):
   XX=             -0.0000   YY=              0.0000   ZZ=             -0.0000
   XY=              0.0000   XZ=              0.0000   YZ=              0.0000

 Normal termination of Gaussian 16 at Thu Oct 14 22:49:56 2021.
