 Gaussian 16, Revision A.03,
 Gaussian 16:  ES64L-G16RevA.03 25-Dec-2016

 --------------------------------------------------------
 #p PBE1PBE/Def2SVP td=(nstates=5) density=(transition=1)
 --------------------------------------------------------

 --------------------------------
 TDDFT excited states in gaussian
 --------------------------------
 Symbolic Z-matrix:
 Charge =  0 Multiplicity = 1

                         Standard orientation:
 ---------------------------------------------------------------------
 Center     Atomic      Atomic             Coordinates (Angstroms)
 Number     Number       Type             X           Y           Z
 ---------------------------------------------------------------------
      1         12           0      -30.095589   -0.550738    0.497495
      2          6           0      -30.389474    2.174932   -1.543655
      3          6           0      -28.598901   -2.295562   -1.914522
      4          6           0      -30.116492   -3.105347    2.521371
      5          6           0      -32.221012    1.194145    2.764765
      6          7           0      -29.695004   -0.166823   -1.600651
      7          6           0      -29.663608    1.092254   -2.104392
      8          6           0      -28.810416    1.181050   -3.340051
      9          6           0      -28.485206   -0.346804   -3.586409
     10          6           0      -29.022518   -1.014187   -2.338983
     11          6           0      -29.033294   -0.917811   -4.916262
     12          6           0      -27.526830    2.206860   -3.207720
     13          6           0      -27.265132    3.205891   -4.345128
     14          1           0      -27.820630    2.832347   -5.755371
     15          7           0      -29.324859   -2.307721    0.396872
     16          6           0      -28.734112   -2.915153   -0.665081
     17          6           0      -28.414042   -4.300817   -0.422761
     18          6           0      -28.656358   -4.485643    0.904893
     19          6           0      -29.501179   -3.312591    1.289686
     20          6           0      -27.958219   -5.125585   -1.612531
     21          6           0      -28.356091   -5.718984    1.779725
     22          8           0      -28.665396   -5.814980    2.944558
     23          6           0      -27.666431   -6.830879    1.045805
     24          7           0      -31.201911   -0.929682    2.310757
     25          6           0      -30.891689   -2.051159    2.985750
     26          6           0      -31.559961   -2.062359    4.364168
     27          6           0      -31.965131   -0.562987    4.567861
     28          6           0      -31.819251   -0.050646    3.120285
     29          6           0      -32.758980   -3.073044    4.614363
     30          6           0      -31.043400    0.287829    5.520568
     31          6           0      -29.569834    0.477979    5.274220
     32          7           0      -31.071386    1.328478    0.715793
     33          6           0      -31.973378    1.884977    1.628408
     34          6           0      -32.391972    3.232547    1.221945
     35          6           0      -31.779463    3.395797   -0.029622
     36          6           0      -31.007241    2.212231   -0.251086
     37          6           0      -33.224941    4.225398    1.991318
     38          6           0      -31.618214    4.242021   -1.121930
     39          8           0      -32.089803    5.330567   -1.411362
     40          6           0      -30.537542    3.607873   -2.035473
     41          6           0      -31.144949    3.729954   -3.380556
     42          8           0      -32.008426    2.982342   -3.846076
     43          8           0      -30.711106    4.856623   -4.017032
     44          6           0      -31.408459    5.318296   -5.221468
     45          1           0      -27.944820   -2.765650   -2.652152
     46          1           0      -30.118666   -3.897522    3.271991
     47          1           0      -32.826888    1.623044    3.566589
     48          1           0      -29.410142    1.478402   -4.200358
     49          1           0      -27.405237   -0.486825   -3.545283
     50          1           0      -29.918732   -1.516856   -4.703903
     51          1           0      -28.275584   -1.570775   -5.349435
     52          1           0      -29.279652   -0.060281   -5.542517
     53          1           0      -26.662175    1.551707   -3.100979
     54          1           0      -27.633280    2.838911   -2.326651
     55          1           0      -26.195464    3.285205   -4.537255
     56          1           0      -27.574605    4.204509   -4.036998
     57          1           0      -28.684198   -5.213819   -2.420935
     58          1           0      -27.817776   -6.202151   -1.517526
     59          1           0      -27.020126   -4.627887   -1.858331
     60          1           0      -26.742595   -6.475954    0.589630
     61          1           0      -28.455363   -7.178552    0.379184
     62          1           0      -27.290044   -7.681230    1.613309
     63          1           0      -30.740330   -2.397709    5.000656
     64          1           0      -33.024348   -0.519859    4.822403
     65          1           0      -32.934592   -3.657352    3.711442
     66          1           0      -33.696990   -2.534430    4.743690
     67          1           0      -32.664524   -3.736747    5.475178
     68          1           0      -31.224837   -0.237397    6.458637
     69          1           0      -31.395582    1.313522    5.625482
     70          1           0      -29.248116   -0.178829    4.464955
     71          1           0      -28.995239    0.191159    6.154814
     72          1           0      -29.256533    1.467070    4.940689
     73          1           0      -34.225210    4.339124    1.575790
     74          1           0      -32.721318    5.192038    2.010316
     75          1           0      -33.345637    3.741590    2.960901
     76          1           0      -29.569465    4.095521   -1.919430
     77          1           0      -31.296343    6.392069   -5.376194
     78          1           0      -32.428222    4.939867   -5.272843
     79          1           0      -31.021052    4.858933   -6.130680
     80         12           0       30.795118    0.556433   -0.298933
     81          6           0       28.226155   -1.948239   -0.334360
     82          6           0       28.596919    2.380256    1.846170
     83          6           0       33.313826    2.523198    0.738759
     84          6           0       32.920047   -1.704550   -1.737314
     85          7           0       28.708510    0.196848    0.636612
     86          6           0       27.860109   -0.857358    0.462413
     87          6           0       26.517442   -0.663121    1.249845
     88          6           0       26.576224    0.906855    1.570022
     89          6           0       28.068230    1.154236    1.414066
     90          6           0       25.792977    1.777097    0.614061
     91          6           0       26.347622   -1.635735    2.405186
     92          6           0       24.959032   -2.303474    2.581152
     93          1           0       23.921946   -1.767248    3.674209
     94          7           0       30.942784    2.338916    1.060074
     95          6           0       29.877931    2.951535    1.753134
     96          6           0       30.386386    4.149454    2.432523
     97          6           0       31.787312    4.219917    2.063479
     98          6           0       32.092135    2.997482    1.351537
     99          6           0       29.633888    5.054610    3.333558
    100          6           0       32.708765    5.371703    2.377784
    101          8           0       32.224455    6.380491    2.839325
    102          6           0       34.201747    5.359621    2.143451
    103          7           0       32.764555    0.322696   -0.393707
    104          6           0       33.591672    1.379402   -0.023521
    105          6           0       35.028354    0.974898   -0.362068
    106          6           0       34.860626   -0.253904   -1.328945
    107          6           0       33.404845   -0.542042   -1.180107
    108          6           0       36.014333    2.088775   -0.872870
    109          6           0       35.792855   -1.486473   -1.119217
    110          6           0       36.599268   -1.961341   -2.283763
    111          7           0       30.642043   -1.352611   -1.028840
    112          6           0       31.577827   -2.145442   -1.670029
    113          6           0       30.936934   -3.334097   -2.265019
    114          6           0       29.612044   -3.293124   -1.680098
    115          6           0       29.528099   -2.099561   -0.956623
    116          6           0       31.505321   -4.397698   -3.167149
    117          6           0       28.314098   -4.028948   -1.636388
    118          8           0       28.009309   -5.098643   -2.081484
    119          6           0       27.448267   -3.222959   -0.673530
    120          6           0       26.166584   -2.892227   -1.378251
    121          8           0       26.200948   -2.151270   -2.337125
    122          8           0       24.975215   -3.411190   -0.788033
    123          6           0       23.682052   -2.921936   -1.355171
    124          1           0       27.935561    2.993161    2.462390
    125          1           0       34.233379    3.064898    0.966519
    126          1           0       33.585071   -2.305744   -2.360347
    127          1           0       25.649838   -0.733076    0.594371
    128          1           0       26.333787    1.109834    2.613087
    129          1           0       26.392379    1.925999   -0.283778
    130          1           0       25.553917    2.698940    1.144123
    131          1           0       24.845108    1.407187    0.221764
    132          1           0       26.513432   -1.054711    3.311865
    133          1           0       27.189549   -2.327631    2.383551
    134          1           0       25.214364   -3.337693    2.813261
    135          1           0       24.371381   -2.327186    1.663353
    136          1           0       29.332412    5.906196    2.724379
    137          1           0       30.318803    5.475415    4.069772
    138          1           0       28.766441    4.687779    3.883565
    139          1           0       34.741384    6.224670    2.528415
    140          1           0       34.324477    5.345477    1.060405
    141          1           0       34.786661    4.500430    2.469634
    142          1           0       35.423152    0.738299    0.626413
    143          1           0       34.899576    0.115663   -2.353207
    144          1           0       35.460400    2.946196   -1.256028
    145          1           0       36.706343    1.677715   -1.607665
    146          1           0       36.662610    2.417140   -0.060752
    147          1           0       35.192528   -2.321296   -0.757733
    148          1           0       36.427066   -1.262782   -0.261508
    149          1           0       36.172415   -2.892329   -2.656214
    150          1           0       37.619183   -2.169527   -1.960735
    151          1           0       36.676603   -1.300931   -3.147192
    152          1           0       30.714430   -4.911219   -3.713471
    153          1           0       32.055897   -5.084343   -2.523510
    154          1           0       32.261586   -3.929138   -3.797185
    155          1           0       27.359754   -3.801454    0.246165
    156          1           0       23.473368   -3.457999   -2.281172
    157          1           0       23.749833   -1.868427   -1.625681
    158          1           0       22.873413   -3.041763   -0.634426
 ---------------------------------------------------------------------

 SCF Done:  E(RPBE1PBE) =  -4067.36870215     A.U. after   16 cycles

 Excitation energies and oscillator strengths:

 Excited State   1:      Singlet-A      1.8096 eV  685.16 nm  f=0.0000  <S**2>=0.000
     312 -> 313        0.70711
 This state for optimization and/or second-order correction.
 Total Energy, E(TD-HF/TD-DFT) =  -4067.30220219
 Copying the excited state density for this state as the 1-particle RhoCI density.

 Excited State   2:      Singlet-A      1.8362 eV  675.21 nm  f=0.3807  <S**2>=0.000
     309 -> 316        0.16427
     311 -> 313        0.69669
     311 <- 313       -0.11953

 Excited State   3:      Singlet-A      1.8950 eV  654.27 nm  f=0.3644  <S**2>=0.000
     310 -> 315        0.18695
     312 -> 314        0.68805

 Excited State   4:      Singlet-A      2.2122 eV  560.46 nm  f=0.0000  <S**2>=0.000
     311 -> 314        0.70711

 Excited State   5:      Singlet-A      2.2360 eV  554.48 nm  f=0.1176  <S**2>=0.000
     308 -> 313        0.10055
     309 -> 313        0.64817
     311 -> 316       -0.25659

 The electronic state is 1-A.
 Alpha  occ. eigenvalues --  -46.92746 -46.91360 -19.25871 -19.24616 -19.20872
 Alpha  occ. eigenvalues --  -19.19928 -19.19842 -19.18641 -19.18245 -19.18090
 Alpha  occ. eigenvalues --  -14.42136 -14.41366 -14.41176 -14.40564 -14.39536
 Alpha  occ. eigenvalues --  -14.39012 -14.38833 -14.38491 -10.37192 -10.35320
 Alpha  occ. eigenvalues --  -10.32899 -10.32485 -10.31697 -10.30825 -10.29468
 Alpha  occ. eigenvalues --  -10.29136 -10.29031 -10.28495 -10.28315 -10.28291
 Alpha  occ. eigenvalues --  -10.28194 -10.28078 -10.27954 -10.27929 -10.27925
 Alpha  occ. eigenvalues --  -10.27829 -10.27516 -10.27290 -10.26930 -10.26798
 Alpha  occ. eigenvalues --  -10.26729 -10.26716 -10.26542 -10.26399 -10.26377
 Alpha  occ. eigenvalues --  -10.26361 -10.26292 -10.26254 -10.25938 -10.25932
 Alpha  occ. eigenvalues --  -10.25777 -10.25738 -10.25697 -10.25583 -10.25489
 Alpha  occ. eigenvalues --  -10.25467 -10.25419 -10.25410 -10.25276 -10.25237
 Alpha  occ. eigenvalues --  -10.25130 -10.25035 -10.25011 -10.24792 -10.24727
 Alpha  occ. eigenvalues --  -10.24480 -10.24341 -10.24233 -10.24083 -10.24078
 Alpha  occ. eigenvalues --  -10.24046 -10.23976 -10.23942 -10.23654 -10.23520
 Alpha  occ. eigenvalues --  -10.23518 -10.23482 -10.23465 -10.23238 -10.23225
 Alpha  occ. eigenvalues --  -10.23189 -10.23133 -10.22840 -10.22729 -10.22649
 Alpha  occ. eigenvalues --  -10.22019  -3.14892  -3.13787  -1.87678  -1.87273
 Alpha  occ. eigenvalues --   -1.87121  -1.86594  -1.86177  -1.86044  -1.10027
 Alpha  occ. eigenvalues --   -1.09659  -1.06414  -1.06078  -1.05010  -1.03918
 Alpha  occ. eigenvalues --   -1.02650  -1.00782  -1.00142  -0.99276  -0.99247
 Alpha  occ. eigenvalues --   -0.98840  -0.98204  -0.97784  -0.97385  -0.96207
 Alpha  occ. eigenvalues --   -0.87043  -0.86820  -0.83794  -0.83735  -0.83153
 Alpha  occ. eigenvalues --   -0.82795  -0.82693  -0.82275  -0.82248  -0.81912
 Alpha  occ. eigenvalues --   -0.81819  -0.81017  -0.80560  -0.79970  -0.78771
 Alpha  occ. eigenvalues --   -0.78636  -0.78285  -0.77898  -0.76875  -0.76777
 Alpha  occ. eigenvalues --   -0.76721  -0.76036  -0.75403  -0.74858  -0.74827
 Alpha  occ. eigenvalues --   -0.74526  -0.73214  -0.72506  -0.71857  -0.71804
 Alpha  occ. eigenvalues --   -0.71319  -0.71106  -0.70609  -0.70031  -0.69612
 Alpha  occ. eigenvalues --   -0.69547  -0.67155  -0.67116  -0.66238  -0.66116
 Alpha  occ. eigenvalues --   -0.63999  -0.63922  -0.63434  -0.63320  -0.62634
 Alpha  occ. eigenvalues --   -0.62358  -0.61663  -0.61148  -0.60411  -0.59839
 Alpha  occ. eigenvalues --   -0.59529  -0.59480  -0.59257  -0.59150  -0.58851
 Alpha  occ. eigenvalues --   -0.58341  -0.56884  -0.56355  -0.55545  -0.54364
 Alpha  occ. eigenvalues --   -0.53999  -0.53922  -0.53812  -0.53802  -0.53484
 Alpha  occ. eigenvalues --   -0.53010  -0.52579  -0.52380  -0.52253  -0.52129
 Alpha  occ. eigenvalues --   -0.51121  -0.50841  -0.50208  -0.50064  -0.49874
 Alpha  occ. eigenvalues --   -0.49630  -0.49178  -0.48810  -0.48730  -0.48453
 Alpha  occ. eigenvalues --   -0.48217  -0.47913  -0.47818  -0.47739  -0.47498
 Alpha  occ. eigenvalues --   -0.47306  -0.47043  -0.46899  -0.46890  -0.46834
 Alpha  occ. eigenvalues --   -0.46343  -0.46262  -0.46152  -0.45904  -0.45828
 Alpha  occ. eigenvalues --   -0.45580  -0.45481  -0.45247  -0.45091  -0.44982
 Alpha  occ. eigenvalues --   -0.44846  -0.44501  -0.44448  -0.44320  -0.44004
 Alpha  occ. eigenvalues --   -0.43943  -0.43932  -0.43797  -0.43733  -0.43413
 Alpha  occ. eigenvalues --   -0.43332  -0.43284  -0.43156  -0.42833  -0.42727
 Alpha  occ. eigenvalues --   -0.42664  -0.42394  -0.42393  -0.41857  -0.41850
 Alpha  occ. eigenvalues --   -0.41676  -0.41495  -0.41348  -0.41246  -0.41121
 Alpha  occ. eigenvalues --   -0.41040  -0.40885  -0.40829  -0.40703  -0.40621
 Alpha  occ. eigenvalues --   -0.40528  -0.40256  -0.40052  -0.39966  -0.39671
 Alpha  occ. eigenvalues --   -0.39669  -0.39395  -0.39279  -0.38879  -0.38716
 Alpha  occ. eigenvalues --   -0.38620  -0.38617  -0.38452  -0.38273  -0.38134
 Alpha  occ. eigenvalues --   -0.38115  -0.37939  -0.37806  -0.37752  -0.37686
 Alpha  occ. eigenvalues --   -0.37511  -0.37439  -0.37214  -0.37191  -0.37065
 Alpha  occ. eigenvalues --   -0.36820  -0.36765  -0.36425  -0.36406  -0.36092
 Alpha  occ. eigenvalues --   -0.36038  -0.35924  -0.35665  -0.35639  -0.35539
 Alpha  occ. eigenvalues --   -0.35418  -0.35221  -0.34489  -0.34244  -0.34157
 Alpha  occ. eigenvalues --   -0.33470  -0.33458  -0.33188  -0.32698  -0.32358
 Alpha  occ. eigenvalues --   -0.32073  -0.32053  -0.31576  -0.31507  -0.31381
 Alpha  occ. eigenvalues --   -0.30866  -0.30118  -0.29799  -0.29581  -0.29569
 Alpha  occ. eigenvalues --   -0.28842  -0.28732  -0.27869  -0.27684  -0.26861
 Alpha  occ. eigenvalues --   -0.26358  -0.26357  -0.26137  -0.25528  -0.25332
 Alpha  occ. eigenvalues --   -0.25247  -0.25123  -0.24414  -0.21216  -0.20675
 Alpha  occ. eigenvalues --   -0.18792  -0.18277
 Alpha virt. eigenvalues --   -0.11410  -0.10446  -0.05228  -0.05036  -0.03931
 Alpha virt. eigenvalues --   -0.03558  -0.01972  -0.01869  -0.01560  -0.00223
 Alpha virt. eigenvalues --   -0.00057   0.00226   0.00944   0.01236   0.01662

 Mulliken charges:
               1
     1  Mg  12.000000
     2  C    6.000000
     3  C    6.000000
     4  C    6.000000
     5  C    6.000000
     6  N    7.000000
     7  C    6.000000
     8  C    6.000000
     9  C    6.000000
    10  C    6.000000
    11  C    6.000000
    12  C    6.000000
    13  C    6.000000
    14  H    1.000000
    15  N    7.000000
    16  C    6.000000
    17  C    6.000000
    18  C    6.000000
    19  C    6.000000
    20  C    6.000000
    21  C    6.000000
    22  O    8.000000
    23  C    6.000000
    24  N    7.000000
    25  C    6.000000
    26  C    6.000000
    27  C    6.000000
    28  C    6.000000
    29  C    6.000000
    30  C    6.000000
    31  C    6.000000
    32  N    7.000000
    33  C    6.000000
    34  C    6.000000
    35  C    6.000000
    36  C    6.000000
    37  C    6.000000
    38  C    6.000000
    39  O    8.000000
    40  C    6.000000
    41  C    6.000000
    42  O    8.000000
    43  O    8.000000
    44  C    6.000000
    45  H    1.000000
    46  H    1.000000
    47  H    1.000000
    48  H    1.000000
    49  H    1.000000
    50  H    1.000000
    51  H    1.000000
    52  H    1.000000
    53  H    1.000000
    54  H    1.000000
    55  H    1.000000
    56  H    1.000000
    57  H    1.000000
    58  H    1.000000
    59  H    1.000000
    60  H    1.000000
    61  H    1.000000
    62  H    1.000000
    63  H    1.000000
    64  H    1.000000
    65  H    1.000000
    66  H    1.000000
    67  H    1.000000
    68  H    1.000000
    69  H    1.000000
    70  H    1.000000
    71  H    1.000000
    72  H    1.000000
    73  H    1.000000
    74  H    1.000000
    75  H    1.000000
    76  H    1.000000
    77  H    1.000000
    78  H    1.000000
    79  H    1.000000
    80  Mg  12.000000
    81  C    6.000000
    82  C    6.000000
    83  C    6.000000
    84  C    6.000000
    85  N    7.000000
    86  C    6.000000
    87  C    6.000000
    88  C    6.000000
    89  C    6.000000
    90  C    6.000000
    91  C    6.000000
    92  C    6.000000
    93  H    1.000000
    94  N    7.000000
    95  C    6.000000
    96  C    6.000000
    97  C    6.000000
    98  C    6.000000
    99  C    6.000000
   100  C    6.000000
   101  O    8.000000
   102  C    6.000000
   103  N    7.000000
   104  C    6.000000
   105  C    6.000000
   106  C    6.000000
   107  C    6.000000
   108  C    6.000000
   109  C    6.000000
   110  C    6.000000
   111  N    7.000000
   112  C    6.000000
   113  C    6.000000
   114  C    6.000000
   115  C    6.000000
   116  C    6.000000
   117  C    6.000000
   118  O    8.000000
   119  C    6.000000
   120  C    6.000000
   121  O    8.000000
   122  O    8.000000
   123  C    6.000000
   124  H    1.000000
   125  H    1.000000
   126  H    1.000000
   127  H    1.000000
   128  H    1.000000
   129  H    1.000000
   130  H    1.000000
   131  H    1.000000
   132  H    1.000000
   133  H    1.000000
   134  H    1.000000
   135  H    1.000000
   136  H    1.000000
   137  H    1.000000
   138  H    1.000000
   139  H    1.000000
   140  H    1.000000
   141  H    1.000000
   142  H    1.000000
   143  H    1.000000
   144  H    1.000000
   145  H    1.000000
   146  H    1.000000
   147  H    1.000000
   148  H    1.000000
   149  H    1.000000
   150  H    1.000000
   151  H    1.000000
   152  H    1.000000
   153  H    1.000000
   154  H    1.000000
   155  H    1.000000
   156  H    1.000000
   157  H    1.000000
   158  H    1.000000
 Sum of Mulliken charges = 624.00000

 Dipole moment (field-independent basis, Debye):
    X=              0.0000    Y=             -0.0000    Z=             -0.0000  Tot=              0.0000
 Quadrupole moment (field-independent basis, Debye-Ang):
   XX=             -0.0000   YY=              0.0000   ZZ=             -0.0000
   XY=              0.0000   XZ=             -0.0000   YZ=              0.0000

 Normal termination of Gaussian 16 at Wed Oct 13 21:57:46 2021.
