 Gaussian 16, Revision A.03,
 Gaussian 16:  ES64L-G16RevA.03 25-Dec-2016

 --------------------------------------------------------
 #p PBE1PBE/Def2SVP td=(nstates=5) density=(transition=1)
 --------------------------------------------------------

 --------------------------------
 TDDFT excited states in gaussian
 --------------------------------
 Symbolic Z-matrix:
 Charge =  0 Multiplicity = 1

                         Standard orientation:
 ---------------------------------------------------------------------
 Center     Atomic      Atomic             Coordinates (Angstroms)
 Number     Number       Type             X           Y           Z
 ---------------------------------------------------------------------
      1         12           0      -25.388553   -0.386393   -0.170671
      2          6           0      -23.270780    2.348782   -0.572402
      3          6           0      -27.484620    1.549834    1.750887
      4          6           0      -27.186322   -3.196959    0.349994
      5          6           0      -22.940904   -2.385274   -1.838961
      6          7           0      -25.287149    1.655466    0.572316
      7          6           0      -24.364020    2.609167    0.272792
      8          6           0      -24.761761    3.974303    0.848889
      9          6           0      -26.051180    3.595029    1.703223
     10          6           0      -26.291636    2.139847    1.287879
     11          6           0      -25.802622    3.718159    3.201696
     12          6           0      -25.197097    5.060907   -0.197734
     13          6           0      -24.985383    6.505206    0.175224
     14          1           0      -24.719880    6.860542    1.569489
     15          7           0      -27.113863   -0.734116    0.809998
     16          6           0      -27.831603    0.217112    1.562324
     17          6           0      -29.067070   -0.418050    1.939461
     18          6           0      -29.054447   -1.770906    1.515308
     19          6           0      -27.739830   -1.962984    0.854870
     20          6           0      -30.080854    0.224960    2.861510
     21          6           0      -30.072011   -2.828998    1.612714
     22          8           0      -29.843027   -3.996719    1.379566
     23          6           0      -31.497461   -2.510842    2.193559
     24          7           0      -25.218565   -2.527063   -0.815155
     25          6           0      -26.066204   -3.439205   -0.443387
     26          6           0      -25.642326   -4.851070   -0.948863
     27          6           0      -24.347841   -4.610905   -1.704242
     28          6           0      -24.071573   -3.089761   -1.424561
     29          6           0      -25.602168   -5.891615    0.267225
     30          6           0      -24.436617   -4.994046   -3.196627
     31          6           0      -23.916856   -6.422998   -3.605085
     32          7           0      -23.685945   -0.106270   -1.231082
     33          6           0      -22.784740   -1.002525   -1.857615
     34          6           0      -21.695477   -0.312714   -2.436393
     35          6           0      -21.832579    1.020596   -1.858757
     36          6           0      -23.083621    1.046357   -1.178557
     37          6           0      -20.488866   -0.948787   -3.102071
     38          6           0      -21.133466    2.250180   -1.784181
     39          8           0      -20.079800    2.629167   -2.279992
     40          6           0      -22.167957    3.257771   -0.950187
     41          6           0      -21.342971    3.827081    0.166438
     42          8           0      -20.777980    3.151984    1.033316
     43          8           0      -21.160095    5.237106    0.051344
     44          6           0      -20.336246    5.875836    1.124917
     45          1           0      -28.101460    2.221870    2.352362
     46          1           0      -27.718082   -4.076464    0.718011
     47          1           0      -22.185754   -2.938477   -2.400620
     48          1           0      -23.931387    4.289281    1.481237
     49          1           0      -26.907179    4.233931    1.486425
     50          1           0      -24.894896    4.285336    3.405931
     51          1           0      -25.811996    2.754467    3.711649
     52          1           0      -26.514730    4.364960    3.714243
     53          1           0      -26.248277    4.889992   -0.427287
     54          1           0      -24.699533    4.804134   -1.133190
     55          1           0      -25.919914    7.024951   -0.034853
     56          1           0      -24.164850    6.908592   -0.418215
     57          1           0      -30.160682   -0.274608    3.826935
     58          1           0      -31.039256    0.251126    2.341285
     59          1           0      -29.877264    1.254584    3.155221
     60          1           0      -31.385798   -2.531345    3.277941
     61          1           0      -32.177647   -3.338391    1.991580
     62          1           0      -31.827147   -1.516832    1.893778
     63          1           0      -26.464688   -5.128707   -1.608477
     64          1           0      -23.500256   -5.091069   -1.217648
     65          1           0      -24.618620   -6.355081    0.343004
     66          1           0      -26.258078   -6.751066    0.127164
     67          1           0      -25.805324   -5.283960    1.149994
     68          1           0      -23.844179   -4.251167   -3.731875
     69          1           0      -25.477876   -4.859371   -3.489824
     70          1           0      -22.841571   -6.347057   -3.770441
     71          1           0      -24.399490   -6.944181   -4.432066
     72          1           0      -24.035164   -6.950645   -2.659277
     73          1           0      -20.825302   -1.101899   -4.127149
     74          1           0      -20.247596   -1.911476   -2.652936
     75          1           0      -19.529611   -0.454541   -2.943002
     76          1           0      -22.550536    4.013167   -1.637678
     77          1           0      -19.311924    5.504981    1.118906
     78          1           0      -20.681296    5.802797    2.156622
     79          1           0      -20.337328    6.899526    0.750544
     80         12           0       24.721636   -0.782298    0.419035
     81          6           0       25.316914    2.463851   -1.069768
     82          6           0       25.277308    0.653275    3.259412
     83          6           0       24.420040   -3.863559    1.549265
     84          6           0       24.940923   -2.322208   -2.865814
     85          7           0       25.126090    1.400493    1.010324
     86          6           0       25.340453    2.559024    0.292895
     87          6           0       25.649524    3.685791    1.211450
     88          6           0       26.105138    2.977672    2.513221
     89          6           0       25.514308    1.571525    2.255023
     90          6           0       27.636870    2.905223    2.697181
     91          6           0       24.351592    4.500422    1.498991
     92          6           0       24.487105    6.072124    1.467439
     93          1           0       23.202691    6.972802    1.274863
     94          7           0       24.797422   -1.495607    2.277917
     95          6           0       24.923165   -0.758991    3.349493
     96          6           0       24.770783   -1.617435    4.509034
     97          6           0       24.403307   -2.872581    3.969352
     98          6           0       24.560082   -2.775603    2.543424
     99          6           0       24.834142   -1.040400    5.934874
    100          6           0       23.996724   -4.092908    4.747491
    101          8           0       23.737523   -5.110392    4.177487
    102          6           0       23.822271   -3.989183    6.227589
    103          7           0       24.975256   -2.869830   -0.587249
    104          6           0       24.625286   -3.901714    0.177847
    105          6           0       24.361956   -5.123557   -0.619558
    106          6           0       24.741125   -4.623051   -2.049289
    107          6           0       24.917667   -3.138099   -1.871881
    108          6           0       25.040253   -6.463591   -0.158614
    109          6           0       23.638989   -5.026660   -3.104889
    110          6           0       23.922894   -6.173224   -4.114952
    111          7           0       25.040686   -0.183818   -1.501179
    112          6           0       25.032546   -0.852685   -2.745606
    113          6           0       25.207574    0.131979   -3.833198
    114          6           0       25.294979    1.371575   -3.213846
    115          6           0       25.241461    1.169301   -1.845153
    116          6           0       25.412940   -0.216093   -5.327439
    117          6           0       25.456842    2.828278   -3.524951
    118          8           0       25.525815    3.463263   -4.550719
    119          6           0       25.652421    3.589447   -2.119565
    120          6           0       24.895733    4.785769   -2.059173
    121          8           0       23.750072    4.816242   -1.588458
    122          8           0       25.483538    5.927356   -2.595145
    123          6           0       24.821382    7.250802   -2.381830
    124          1           0       25.397818    1.018770    4.280735
    125          1           0       24.255751   -4.877086    1.920793
    126          1           0       24.999424   -2.768053   -3.859926
    127          1           0       26.510941    4.241620    0.840236
    128          1           0       25.741499    3.400275    3.449648
    129          1           0       27.936617    3.420465    3.610232
    130          1           0       28.082603    3.391215    1.829788
    131          1           0       28.045698    1.894572    2.715460
    132          1           0       24.056336    4.201679    2.504980
    133          1           0       23.607730    4.130096    0.793855
    134          1           0       25.224672    6.322501    0.705420
    135          1           0       24.914308    6.282919    2.448551
    136          1           0       23.849685   -1.146794    6.392381
    137          1           0       25.191009   -0.014530    6.019490
    138          1           0       25.442424   -1.681953    6.571808
    139          1           0       23.033757   -3.290723    6.506537
    140          1           0       24.655029   -3.570284    6.792403
    141          1           0       23.499529   -4.957992    6.609651
    142          1           0       23.286822   -5.301966   -0.600179
    143          1           0       25.735842   -4.988286   -2.305630
    144          1           0       25.525513   -6.246641    0.792425
    145          1           0       25.695232   -6.964942   -0.872053
    146          1           0       24.258356   -7.208016   -0.007434
    147          1           0       23.418676   -4.162163   -3.731747
    148          1           0       22.715295   -5.078885   -2.528566
    149          1           0       23.065162   -6.843853   -4.163805
    150          1           0       24.823041   -6.708677   -3.812598
    151          1           0       24.068024   -5.773498   -5.119291
    152          1           0       24.846681   -1.123344   -5.536144
    153          1           0       26.456607   -0.486357   -5.489794
    154          1           0       25.097786    0.594605   -5.984771
    155          1           0       26.710088    3.829789   -2.015574
    156          1           0       24.784247    7.504616   -1.321501
    157          1           0       23.907809    7.340320   -2.968373
    158          1           0       25.535472    8.007341   -2.706891
 ---------------------------------------------------------------------

 SCF Done:  E(RPBE1PBE) =  -4067.37534288     A.U. after   16 cycles

 Excitation energies and oscillator strengths:

 Excited State   1:      Singlet-A      1.8459 eV  671.68 nm  f=0.3571  <S**2>=0.000
     309 -> 315        0.17457
     311 -> 313        0.69231
     311 <- 313       -0.10447
 This state for optimization and/or second-order correction.
 Total Energy, E(TD-HF/TD-DFT) =  -4067.30750842
 Copying the excited state density for this state as the 1-particle RhoCI density.

 Excited State   2:      Singlet-A      1.9882 eV  623.59 nm  f=0.0000  <S**2>=0.000
     312 -> 313        0.70711

 Excited State   3:      Singlet-A      2.0310 eV  610.47 nm  f=0.0000  <S**2>=0.000
     311 -> 314        0.70711

 Excited State   4:      Singlet-A      2.2119 eV  560.54 nm  f=0.1389  <S**2>=0.000
     309 -> 313        0.66067
     311 -> 315       -0.23959

 Excited State   5:      Singlet-A      2.3711 eV  522.90 nm  f=0.0000  <S**2>=0.000
     310 -> 313        0.70711

 The electronic state is 1-A.
 Alpha  occ. eigenvalues --  -46.92820 -46.91400 -19.24906 -19.24649 -19.20059
 Alpha  occ. eigenvalues --  -19.19768 -19.19218 -19.19173 -19.18875 -19.18779
 Alpha  occ. eigenvalues --  -14.42138 -14.41203 -14.41174 -14.39732 -14.39723
 Alpha  occ. eigenvalues --  -14.39671 -14.39218 -14.39210 -10.36190 -10.35504
 Alpha  occ. eigenvalues --  -10.33317 -10.32290 -10.32009 -10.31808 -10.29086
 Alpha  occ. eigenvalues --  -10.29003 -10.28874 -10.28803 -10.28772 -10.28493
 Alpha  occ. eigenvalues --  -10.28493 -10.28485 -10.28388 -10.28319 -10.27991
 Alpha  occ. eigenvalues --  -10.27925 -10.27911 -10.27504 -10.27449 -10.27110
 Alpha  occ. eigenvalues --  -10.26890 -10.26853 -10.26643 -10.26628 -10.26460
 Alpha  occ. eigenvalues --  -10.26008 -10.25973 -10.25968 -10.25930 -10.25851
 Alpha  occ. eigenvalues --  -10.25805 -10.25785 -10.25740 -10.25629 -10.25484
 Alpha  occ. eigenvalues --  -10.25442 -10.25408 -10.25396 -10.25324 -10.25252
 Alpha  occ. eigenvalues --  -10.25138 -10.24888 -10.24666 -10.24606 -10.24591
 Alpha  occ. eigenvalues --  -10.24509 -10.24499 -10.24420 -10.24099 -10.23929
 Alpha  occ. eigenvalues --  -10.23916 -10.23699 -10.23695 -10.23643 -10.23592
 Alpha  occ. eigenvalues --  -10.23466 -10.23460 -10.23396 -10.23381 -10.23304
 Alpha  occ. eigenvalues --  -10.23245 -10.23232 -10.23161 -10.23124 -10.22998
 Alpha  occ. eigenvalues --  -10.22769  -3.14924  -3.13672  -1.87750  -1.87304
 Alpha  occ. eigenvalues --   -1.87148  -1.86526  -1.86039  -1.85916  -1.08944
 Alpha  occ. eigenvalues --   -1.08266  -1.06689  -1.05800  -1.05564  -1.03741
 Alpha  occ. eigenvalues --   -1.00888  -1.00743  -1.00480  -0.99799  -0.99602
 Alpha  occ. eigenvalues --   -0.99465  -0.98739  -0.98163  -0.96847  -0.95914
 Alpha  occ. eigenvalues --   -0.86617  -0.85693  -0.83571  -0.83530  -0.83238
 Alpha  occ. eigenvalues --   -0.83231  -0.82652  -0.82283  -0.82028  -0.81958
 Alpha  occ. eigenvalues --   -0.81768  -0.81746  -0.80744  -0.79717  -0.78646
 Alpha  occ. eigenvalues --   -0.78551  -0.77381  -0.77378  -0.76473  -0.76314
 Alpha  occ. eigenvalues --   -0.76043  -0.75726  -0.75306  -0.74705  -0.74598
 Alpha  occ. eigenvalues --   -0.74300  -0.72923  -0.72846  -0.71659  -0.71442
 Alpha  occ. eigenvalues --   -0.71190  -0.71060  -0.70500  -0.70210  -0.69728
 Alpha  occ. eigenvalues --   -0.69414  -0.67653  -0.67354  -0.66056  -0.65523
 Alpha  occ. eigenvalues --   -0.63834  -0.63505  -0.63375  -0.63203  -0.62592
 Alpha  occ. eigenvalues --   -0.62390  -0.61675  -0.61666  -0.60470  -0.60191
 Alpha  occ. eigenvalues --   -0.60060  -0.59732  -0.59591  -0.59481  -0.59241
 Alpha  occ. eigenvalues --   -0.58812  -0.56071  -0.55873  -0.55629  -0.54796
 Alpha  occ. eigenvalues --   -0.54675  -0.54272  -0.53943  -0.53647  -0.53239
 Alpha  occ. eigenvalues --   -0.52552  -0.52423  -0.52189  -0.51881  -0.51784
 Alpha  occ. eigenvalues --   -0.51045  -0.50824  -0.50317  -0.50110  -0.49541
 Alpha  occ. eigenvalues --   -0.49218  -0.48621  -0.48551  -0.48428  -0.47928
 Alpha  occ. eigenvalues --   -0.47855  -0.47726  -0.47377  -0.47353  -0.47094
 Alpha  occ. eigenvalues --   -0.47053  -0.46993  -0.46839  -0.46753  -0.46667
 Alpha  occ. eigenvalues --   -0.46645  -0.46344  -0.46219  -0.45960  -0.45765
 Alpha  occ. eigenvalues --   -0.45288  -0.44947  -0.44911  -0.44670  -0.44617
 Alpha  occ. eigenvalues --   -0.44447  -0.44438  -0.44278  -0.44193  -0.44023
 Alpha  occ. eigenvalues --   -0.43882  -0.43842  -0.43842  -0.43634  -0.43528
 Alpha  occ. eigenvalues --   -0.43373  -0.43167  -0.43032  -0.42988  -0.42864
 Alpha  occ. eigenvalues --   -0.42479  -0.42374  -0.42360  -0.42246  -0.42218
 Alpha  occ. eigenvalues --   -0.42103  -0.41900  -0.41785  -0.41663  -0.41569
 Alpha  occ. eigenvalues --   -0.41124  -0.40937  -0.40586  -0.40497  -0.40366
 Alpha  occ. eigenvalues --   -0.40220  -0.39989  -0.39855  -0.39663  -0.39608
 Alpha  occ. eigenvalues --   -0.39508  -0.39380  -0.39285  -0.39066  -0.38900
 Alpha  occ. eigenvalues --   -0.38830  -0.38785  -0.38730  -0.38277  -0.38251
 Alpha  occ. eigenvalues --   -0.38167  -0.37941  -0.37934  -0.37776  -0.37652
 Alpha  occ. eigenvalues --   -0.37568  -0.37306  -0.37144  -0.37035  -0.36853
 Alpha  occ. eigenvalues --   -0.36743  -0.36722  -0.36496  -0.36219  -0.36204
 Alpha  occ. eigenvalues --   -0.35902  -0.35724  -0.35416  -0.35288  -0.35096
 Alpha  occ. eigenvalues --   -0.35095  -0.34832  -0.34760  -0.34726  -0.34430
 Alpha  occ. eigenvalues --   -0.33608  -0.33282  -0.32811  -0.32646  -0.32296
 Alpha  occ. eigenvalues --   -0.32052  -0.32049  -0.31535  -0.31248  -0.31172
 Alpha  occ. eigenvalues --   -0.30788  -0.30680  -0.29721  -0.29193  -0.28786
 Alpha  occ. eigenvalues --   -0.28582  -0.28339  -0.27696  -0.27233  -0.27007
 Alpha  occ. eigenvalues --   -0.26564  -0.26128  -0.26041  -0.26008  -0.25718
 Alpha  occ. eigenvalues --   -0.25504  -0.25488  -0.25092  -0.21115  -0.20518
 Alpha  occ. eigenvalues --   -0.19147  -0.19111
 Alpha virt. eigenvalues --   -0.11544  -0.11418  -0.05243  -0.04017  -0.03987
 Alpha virt. eigenvalues --   -0.03312  -0.02045  -0.01792  -0.00465  -0.00043
 Alpha virt. eigenvalues --   -0.00006   0.01043   0.01131   0.01313   0.02215

 Mulliken charges:
               1
     1  Mg  11.999347
     2  C    6.027765
     3  C    5.998796
     4  C    5.979966
     5  C    5.998508
     6  N    7.016056
     7  C    5.964546
     8  C    6.011602
     9  C    5.987960
    10  C    6.026091
    11  C    5.995909
    12  C    6.002150
    13  C    6.000302
    14  H    0.995842
    15  N    6.991337
    16  C    6.034078
    17  C    6.020533
    18  C    6.017409
    19  C    6.027143
    20  C    5.995654
    21  C    6.009758
    22  O    8.030454
    23  C    5.997967
    24  N    6.992704
    25  C    6.027275
    26  C    5.998428
    27  C    6.003819
    28  C    5.976422
    29  C    5.997553
    30  C    6.003896
    31  C    5.998764
    32  N    7.000262
    33  C    5.968596
    34  C    5.974101
    35  C    5.993972
    36  C    5.971401
    37  C    6.000250
    38  C    5.986182
    39  O    7.968965
    40  C    5.992146
    41  C    5.995650
    42  O    7.996612
    43  O    7.997886
    44  C    6.001531
    45  H    1.013576
    46  H    1.002055
    47  H    0.988058
    48  H    1.002554
    49  H    1.002723
    50  H    1.014441
    51  H    0.997936
    52  H    1.003304
    53  H    0.990489
    54  H    1.007399
    55  H    0.996796
    56  H    1.004179
    57  H    1.017789
    58  H    1.016337
    59  H    1.015835
    60  H    1.008150
    61  H    1.013697
    62  H    1.004590
    63  H    0.996238
    64  H    1.000308
    65  H    1.007477
    66  H    0.999109
    67  H    0.994120
    68  H    1.005651
    69  H    0.990125
    70  H    1.001805
    71  H    0.995236
    72  H    0.994269
    73  H    0.985256
    74  H    0.983804
    75  H    0.987220
    76  H    0.994260
    77  H    0.999610
    78  H    0.993857
    79  H    0.996159
    80  Mg  12.000040
    81  C    5.999961
    82  C    5.999949
    83  C    6.000044
    84  C    6.000051
    85  N    6.999940
    86  C    6.000088
    87  C    5.999986
    88  C    6.000025
    89  C    5.999918
    90  C    6.000033
    91  C    5.999977
    92  C    5.999992
    93  H    1.000048
    94  N    7.000024
    95  C    5.999902
    96  C    5.999896
    97  C    5.999973
    98  C    5.999874
    99  C    6.000031
   100  C    5.999920
   101  O    7.999910
   102  C    6.000029
   103  N    7.000007
   104  C    5.999885
   105  C    6.000064
   106  C    5.999946
   107  C    6.000037
   108  C    6.000002
   109  C    5.999987
   110  C    5.999999
   111  N    7.000023
   112  C    6.000130
   113  C    6.000168
   114  C    5.999962
   115  C    6.000130
   116  C    5.999981
   117  C    6.000101
   118  O    8.000102
   119  C    5.999989
   120  C    6.000026
   121  O    8.000063
   122  O    7.999987
   123  C    5.999990
   124  H    0.999941
   125  H    0.999978
   126  H    1.000039
   127  H    0.999970
   128  H    0.999991
   129  H    0.999959
   130  H    0.999917
   131  H    0.999994
   132  H    1.000073
   133  H    1.000011
   134  H    0.999966
   135  H    1.000002
   136  H    0.999927
   137  H    0.999910
   138  H    0.999887
   139  H    0.999986
   140  H    0.999943
   141  H    0.999926
   142  H    1.000022
   143  H    0.999992
   144  H    1.000006
   145  H    0.999942
   146  H    1.000008
   147  H    0.999988
   148  H    1.000068
   149  H    1.000048
   150  H    0.999986
   151  H    0.999990
   152  H    1.000102
   153  H    1.000076
   154  H    1.000092
   155  H    1.000010
   156  H    1.000021
   157  H    1.000042
   158  H    0.999997
 Sum of Mulliken charges = 624.00000

 Dipole moment (field-independent basis, Debye):
    X=             -8.8032    Y=             -0.7533    Z=              4.8951  Tot=             10.1008
 Quadrupole moment (field-independent basis, Debye-Ang):
   XX=            447.2194   YY=             -2.3231   ZZ=             -1.4923
   XY=             23.0464   XZ=           -126.0389   YZ=             -2.7552

 Normal termination of Gaussian 16 at Fri Oct 15 10:45:04 2021.
