 Gaussian 16, Revision A.03,
 Gaussian 16:  ES64L-G16RevA.03 25-Dec-2016

 --------------------------------------------------------
 #p PBE1PBE/Def2SVP td=(nstates=5) density=(transition=1)
 --------------------------------------------------------

 --------------------------------
 TDDFT excited states in gaussian
 --------------------------------
 Symbolic Z-matrix:
 Charge =  0 Multiplicity = 1

                         Standard orientation:
 ---------------------------------------------------------------------
 Center     Atomic      Atomic             Coordinates (Angstroms)
 Number     Number       Type             X           Y           Z
 ---------------------------------------------------------------------
      1         12           0       27.361249   -0.711297    0.225541
      2          6           0       25.543670    2.283441    0.987723
      3          6           0       29.710502    1.259912   -1.351445
      4          6           0       28.642574   -3.465266   -0.978230
      5          6           0       24.753525   -2.469076    1.681707
      6          7           0       27.456500    1.568154   -0.391159
      7          6           0       26.649286    2.524896    0.162165
      8          6           0       27.277130    3.926218   -0.064793
      9          6           0       28.601971    3.612402   -0.878197
     10          6           0       28.632208    2.041175   -0.926136
     11          6           0       28.731397    4.207400   -2.343264
     12          6           0       27.579581    4.731519    1.227037
     13          6           0       27.204641    6.170577    1.251272
     14          1           0       26.931375    7.020780   -0.047831
     15          7           0       28.993278   -1.100036   -1.039712
     16          6           0       29.940739   -0.182038   -1.492033
     17          6           0       30.928587   -0.890886   -2.327968
     18          6           0       30.672002   -2.300074   -2.117331
     19          6           0       29.397632   -2.344618   -1.363359
     20          6           0       32.013982   -0.254513   -3.142317
     21          6           0       31.456090   -3.554025   -2.570824
     22          8           0       31.321346   -4.697086   -2.085489
     23          6           0       32.561651   -3.355207   -3.528048
     24          7           0       26.744198   -2.608976    0.297818
     25          6           0       27.457115   -3.582213   -0.367247
     26          6           0       26.961409   -5.003342    0.018888
     27          6           0       25.930727   -4.652920    1.181555
     28          6           0       25.798846   -3.143764    1.072081
     29          6           0       26.345956   -5.915989   -1.118900
     30          6           0       26.314338   -5.066121    2.593629
     31          6           0       25.416562   -6.140768    3.241858
     32          7           0       25.615153   -0.235854    1.318224
     33          6           0       24.639818   -1.064917    1.819735
     34          6           0       23.545330   -0.266471    2.387057
     35          6           0       23.912396    1.040844    2.121421
     36          6           0       25.167374    1.016714    1.473080
     37          6           0       22.278650   -0.725996    3.030228
     38          6           0       23.474456    2.374749    2.325405
     39          8           0       22.502523    2.858786    2.972381
     40          6           0       24.461735    3.210204    1.626789
     41          6           0       23.768867    4.139731    0.667458
     42          8           0       23.239995    3.815267   -0.340337
     43          8           0       23.897461    5.399491    1.083314
     44          6           0       23.073739    6.411555    0.514356
     45          1           0       30.493884    1.806101   -1.881320
     46          1           0       28.980043   -4.462738   -1.270430
     47          1           0       23.902274   -3.032726    2.067059
     48          1           0       26.556289    4.479764   -0.667660
     49          1           0       29.471606    3.947182   -0.313525
     50          1           0       27.958053    4.920508   -2.627404
     51          1           0       28.604657    3.370982   -3.032152
     52          1           0       29.723722    4.633124   -2.495154
     53          1           0       28.640974    4.747684    1.477335
     54          1           0       27.068106    4.331835    2.102205
     55          1           0       28.011419    6.752610    1.697777
     56          1           0       26.321173    6.262320    1.882462
     57          1           0       31.940092   -0.597646   -4.174028
     58          1           0       32.956158   -0.606646   -2.722297
     59          1           0       32.057113    0.823184   -2.981444
     60          1           0       32.129096   -2.972771   -4.452622
     61          1           0       32.939019   -4.354790   -3.742386
     62          1           0       33.387619   -2.795247   -3.090346
     63          1           0       27.825031   -5.498406    0.464074
     64          1           0       24.995647   -5.153976    0.931413
     65          1           0       26.367389   -5.390756   -2.073097
     66          1           0       25.363402   -6.314842   -0.863804
     67          1           0       26.962878   -6.812830   -1.177555
     68          1           0       26.494447   -4.261386    3.306555
     69          1           0       27.294037   -5.537598    2.523680
     70          1           0       25.125124   -5.981088    4.279773
     71          1           0       26.039426   -7.025972    3.373301
     72          1           0       24.490358   -6.359936    2.712340
     73          1           0       22.324685   -1.767219    3.350631
     74          1           0       21.477269   -0.761411    2.292376
     75          1           0       22.021634    0.026457    3.775683
     76          1           0       24.963546    3.787312    2.403025
     77          1           0       22.077695    6.262910    0.933751
     78          1           0       22.946310    6.254427   -0.556809
     79          1           0       23.409765    7.405764    0.810061
     80         12           0      -27.340177   -0.598583   -0.080371
     81          6           0      -25.721228    2.209685   -1.398430
     82          6           0      -28.400925    1.269309    2.577900
     83          6           0      -28.549386   -3.366495    1.267839
     84          6           0      -26.004489   -2.474710   -2.813960
     85          7           0      -27.029426    1.511392    0.522307
     86          6           0      -26.403014    2.523239   -0.170850
     87          6           0      -26.719930    3.870096    0.452445
     88          6           0      -27.329348    3.476972    1.855991
     89          6           0      -27.684213    1.977765    1.571040
     90          6           0      -26.349352    3.630621    3.012157
     91          6           0      -27.564969    4.739578   -0.548449
     92          6           0      -28.115879    6.048129    0.083147
     93          1           0      -27.289298    6.669416    1.189814
     94          7           0      -28.318156   -0.975029    1.612657
     95          6           0      -28.586089   -0.102318    2.659754
     96          6           0      -29.250259   -0.785989    3.783435
     97          6           0      -29.319009   -2.147666    3.355892
     98          6           0      -28.703864   -2.201866    2.032331
     99          6           0      -29.733719   -0.078862    4.993792
    100          6           0      -29.901439   -3.295710    4.139305
    101          8           0      -29.963275   -4.464247    3.666015
    102          6           0      -30.512301   -3.084196    5.498048
    103          7           0      -27.327135   -2.642997   -0.731376
    104          6           0      -27.912395   -3.556802    0.043195
    105          6           0      -27.664966   -5.017241   -0.539918
    106          6           0      -26.781621   -4.728273   -1.878254
    107          6           0      -26.680065   -3.204055   -1.806360
    108          6           0      -26.928185   -5.881068    0.564099
    109          6           0      -27.487271   -5.153456   -3.236351
    110          6           0      -27.290881   -6.635509   -3.666696
    111          7           0      -26.087839   -0.293854   -1.711114
    112          6           0      -25.710146   -1.100105   -2.817252
    113          6           0      -24.906922   -0.260861   -3.810108
    114          6           0      -24.820257    1.017722   -3.268611
    115          6           0      -25.629334    0.959943   -2.024455
    116          6           0      -24.353777   -0.686480   -5.134036
    117          6           0      -24.352156    2.370786   -3.457775
    118          8           0      -23.685708    2.899675   -4.353050
    119          6           0      -25.075786    3.262910   -2.331445
    120          6           0      -24.120553    4.192162   -1.618112
    121          8           0      -23.468240    3.879686   -0.658881
    122          8           0      -24.271504    5.522835   -2.069472
    123          6           0      -23.766891    6.592110   -1.194978
    124          1           0      -28.619331    1.981863    3.376490
    125          1           0      -28.937124   -4.279169    1.725496
    126          1           0      -25.480841   -3.002800   -3.613688
    127          1           0      -25.776185    4.396926    0.587649
    128          1           0      -28.261411    3.976937    2.121395
    129          1           0      -26.834538    4.302708    3.719806
    130          1           0      -25.391778    3.961159    2.610449
    131          1           0      -26.270127    2.730215    3.620866
    132          1           0      -28.213109    3.983614   -0.990675
    133          1           0      -26.876256    5.000250   -1.351379
    134          1           0      -29.100534    5.749867    0.443253
    135          1           0      -28.210443    6.789922   -0.709757
    136          1           0      -29.112175   -0.510008    5.778395
    137          1           0      -30.804062   -0.195207    5.161778
    138          1           0      -29.577623    0.996793    5.085125
    139          1           0      -31.383076   -2.437898    5.396710
    140          1           0      -29.643558   -2.651435    5.995698
    141          1           0      -30.773641   -3.981793    6.057829
    142          1           0      -28.692117   -5.302121   -0.771050
    143          1           0      -25.719595   -4.974911   -1.843917
    144          1           0      -26.703252   -5.342484    1.484500
    145          1           0      -25.977636   -6.246162    0.174248
    146          1           0      -27.639982   -6.655883    0.847359
    147          1           0      -27.318336   -4.431185   -4.034518
    148          1           0      -28.556668   -5.056243   -3.051987
    149          1           0      -28.287136   -7.055793   -3.799690
    150          1           0      -26.673711   -7.133338   -2.918675
    151          1           0      -26.774042   -6.718916   -4.623037
    152          1           0      -24.980886   -0.212654   -5.889547
    153          1           0      -24.367347   -1.773911   -5.216952
    154          1           0      -23.340913   -0.373579   -5.386755
    155          1           0      -25.859857    3.816725   -2.846985
    156          1           0      -22.689399    6.597019   -1.357397
    157          1           0      -24.118957    6.454154   -0.172468
    158          1           0      -24.239255    7.511646   -1.539521
 ---------------------------------------------------------------------

 SCF Done:  E(RPBE1PBE) =  -4067.38591920     A.U. after   16 cycles

 Excitation energies and oscillator strengths:

 Excited State   1:      Singlet-A      1.7800 eV  696.54 nm  f=0.0000  <S**2>=0.000
     312 -> 313        0.70711
 This state for optimization and/or second-order correction.
 Total Energy, E(TD-HF/TD-DFT) =  -4067.32050560
 Copying the excited state density for this state as the 1-particle RhoCI density.

 Excited State   2:      Singlet-A      1.8621 eV  665.84 nm  f=0.4030  <S**2>=0.000
     310 -> 315       -0.19111
     312 -> 314        0.68753
     312 <- 314       -0.10007

 Excited State   3:      Singlet-A      1.8640 eV  665.14 nm  f=0.3776  <S**2>=0.000
     309 -> 316       -0.17320
     311 -> 313        0.69341
     311 <- 313       -0.11104

 Excited State   4:      Singlet-A      2.2041 eV  562.53 nm  f=0.1214  <S**2>=0.000
     309 -> 313        0.66067
     311 -> 316        0.24060

 Excited State   5:      Singlet-A      2.2336 eV  555.09 nm  f=0.0000  <S**2>=0.000
     311 -> 314        0.70711

 The electronic state is 1-A.
 Alpha  occ. eigenvalues --  -46.92294 -46.91488 -19.25520 -19.24623 -19.20455
 Alpha  occ. eigenvalues --  -19.19720 -19.19404 -19.19014 -19.18979 -19.18581
 Alpha  occ. eigenvalues --  -14.41591 -14.41522 -14.41148 -14.41128 -14.39639
 Alpha  occ. eigenvalues --  -14.39510 -14.39330 -14.39210 -10.36401 -10.35898
 Alpha  occ. eigenvalues --  -10.32675 -10.32326 -10.32288 -10.31567 -10.29249
 Alpha  occ. eigenvalues --  -10.28957 -10.28872 -10.28759 -10.28623 -10.28578
 Alpha  occ. eigenvalues --  -10.28536 -10.28444 -10.28246 -10.28072 -10.28063
 Alpha  occ. eigenvalues --  -10.27947 -10.27903 -10.27744 -10.27571 -10.27466
 Alpha  occ. eigenvalues --  -10.27277 -10.27132 -10.26844 -10.26756 -10.26732
 Alpha  occ. eigenvalues --  -10.26709 -10.26166 -10.26162 -10.26124 -10.26101
 Alpha  occ. eigenvalues --  -10.26079 -10.26067 -10.25937 -10.25849 -10.25798
 Alpha  occ. eigenvalues --  -10.25647 -10.25583 -10.25501 -10.25410 -10.25278
 Alpha  occ. eigenvalues --  -10.25223 -10.25101 -10.24985 -10.24949 -10.24771
 Alpha  occ. eigenvalues --  -10.24595 -10.24462 -10.24341 -10.24288 -10.24280
 Alpha  occ. eigenvalues --  -10.24124 -10.23800 -10.23756 -10.23677 -10.23666
 Alpha  occ. eigenvalues --  -10.23638 -10.23434 -10.23425 -10.23227 -10.23068
 Alpha  occ. eigenvalues --  -10.23002 -10.22910 -10.22879 -10.22855 -10.22837
 Alpha  occ. eigenvalues --  -10.22585  -3.14451  -3.13746  -1.87274  -1.86840
 Alpha  occ. eigenvalues --   -1.86673  -1.86593  -1.86106  -1.86000  -1.13297
 Alpha  occ. eigenvalues --   -1.10181  -1.04414  -1.03842  -1.03211  -1.02588
 Alpha  occ. eigenvalues --   -1.02531  -1.02443  -0.99332  -0.98917  -0.98353
 Alpha  occ. eigenvalues --   -0.98091  -0.97440  -0.97229  -0.96526  -0.96067
 Alpha  occ. eigenvalues --   -0.87771  -0.85945  -0.83463  -0.83152  -0.82823
 Alpha  occ. eigenvalues --   -0.82726  -0.82686  -0.82093  -0.81886  -0.81859
 Alpha  occ. eigenvalues --   -0.81284  -0.81039  -0.80653  -0.80619  -0.78831
 Alpha  occ. eigenvalues --   -0.78499  -0.77792  -0.77229  -0.76860  -0.76339
 Alpha  occ. eigenvalues --   -0.76317  -0.76167  -0.76021  -0.75039  -0.74844
 Alpha  occ. eigenvalues --   -0.74326  -0.73203  -0.72673  -0.71990  -0.71756
 Alpha  occ. eigenvalues --   -0.71446  -0.71268  -0.70595  -0.70072  -0.69601
 Alpha  occ. eigenvalues --   -0.68900  -0.67536  -0.66520  -0.65961  -0.65903
 Alpha  occ. eigenvalues --   -0.63722  -0.63707  -0.63382  -0.62974  -0.62768
 Alpha  occ. eigenvalues --   -0.61859  -0.61479  -0.60755  -0.60352  -0.59927
 Alpha  occ. eigenvalues --   -0.59643  -0.59434  -0.59236  -0.58956  -0.58458
 Alpha  occ. eigenvalues --   -0.58281  -0.57504  -0.55841  -0.55183  -0.54728
 Alpha  occ. eigenvalues --   -0.54471  -0.54058  -0.53901  -0.53479  -0.53254
 Alpha  occ. eigenvalues --   -0.52789  -0.52359  -0.52193  -0.52171  -0.51349
 Alpha  occ. eigenvalues --   -0.50868  -0.50743  -0.50728  -0.50303  -0.49636
 Alpha  occ. eigenvalues --   -0.49492  -0.49152  -0.48732  -0.48462  -0.48316
 Alpha  occ. eigenvalues --   -0.47971  -0.47961  -0.47842  -0.47745  -0.47628
 Alpha  occ. eigenvalues --   -0.47302  -0.47136  -0.46958  -0.46774  -0.46498
 Alpha  occ. eigenvalues --   -0.46341  -0.46195  -0.46120  -0.45969  -0.45927
 Alpha  occ. eigenvalues --   -0.45813  -0.45731  -0.45340  -0.45032  -0.44742
 Alpha  occ. eigenvalues --   -0.44601  -0.44583  -0.44367  -0.44087  -0.44031
 Alpha  occ. eigenvalues --   -0.43878  -0.43871  -0.43702  -0.43633  -0.43511
 Alpha  occ. eigenvalues --   -0.43395  -0.43251  -0.43156  -0.42968  -0.42925
 Alpha  occ. eigenvalues --   -0.42778  -0.42691  -0.42395  -0.42092  -0.42013
 Alpha  occ. eigenvalues --   -0.41539  -0.41521  -0.41490  -0.40922  -0.40918
 Alpha  occ. eigenvalues --   -0.40888  -0.40762  -0.40608  -0.40456  -0.40438
 Alpha  occ. eigenvalues --   -0.40318  -0.40056  -0.39971  -0.39853  -0.39650
 Alpha  occ. eigenvalues --   -0.39532  -0.39424  -0.39265  -0.39084  -0.38969
 Alpha  occ. eigenvalues --   -0.38805  -0.38451  -0.38306  -0.38298  -0.38000
 Alpha  occ. eigenvalues --   -0.37972  -0.37823  -0.37720  -0.37596  -0.37470
 Alpha  occ. eigenvalues --   -0.37415  -0.37165  -0.37023  -0.36838  -0.36590
 Alpha  occ. eigenvalues --   -0.36496  -0.36290  -0.36262  -0.36116  -0.36063
 Alpha  occ. eigenvalues --   -0.35815  -0.35749  -0.35272  -0.35183  -0.35065
 Alpha  occ. eigenvalues --   -0.34946  -0.34628  -0.34125  -0.34047  -0.33927
 Alpha  occ. eigenvalues --   -0.33459  -0.33238  -0.33191  -0.32992  -0.32858
 Alpha  occ. eigenvalues --   -0.31982  -0.31747  -0.31362  -0.31234  -0.31187
 Alpha  occ. eigenvalues --   -0.30922  -0.30888  -0.29475  -0.29382  -0.29353
 Alpha  occ. eigenvalues --   -0.29242  -0.28683  -0.28484  -0.27083  -0.26829
 Alpha  occ. eigenvalues --   -0.26381  -0.26116  -0.26016  -0.25754  -0.25667
 Alpha  occ. eigenvalues --   -0.25586  -0.25312  -0.25186  -0.20998  -0.20879
 Alpha  occ. eigenvalues --   -0.18921  -0.18152
 Alpha virt. eigenvalues --   -0.11365  -0.10470  -0.05531  -0.05035  -0.04397
 Alpha virt. eigenvalues --   -0.04346  -0.02378  -0.02184  -0.00502  -0.00183
 Alpha virt. eigenvalues --    0.00616   0.01102   0.01189   0.01669   0.01731

 Mulliken charges:
               1
     1  Mg  12.000000
     2  C    6.000000
     3  C    6.000000
     4  C    6.000000
     5  C    6.000000
     6  N    7.000000
     7  C    6.000000
     8  C    6.000000
     9  C    6.000000
    10  C    6.000000
    11  C    6.000000
    12  C    6.000000
    13  C    6.000000
    14  H    1.000000
    15  N    7.000000
    16  C    6.000000
    17  C    6.000000
    18  C    6.000000
    19  C    6.000000
    20  C    6.000000
    21  C    6.000000
    22  O    8.000000
    23  C    6.000000
    24  N    7.000000
    25  C    6.000000
    26  C    6.000000
    27  C    6.000000
    28  C    6.000000
    29  C    6.000000
    30  C    6.000000
    31  C    6.000000
    32  N    7.000000
    33  C    6.000000
    34  C    6.000000
    35  C    6.000000
    36  C    6.000000
    37  C    6.000000
    38  C    6.000000
    39  O    8.000000
    40  C    6.000000
    41  C    6.000000
    42  O    8.000000
    43  O    8.000000
    44  C    6.000000
    45  H    1.000000
    46  H    1.000000
    47  H    1.000000
    48  H    1.000000
    49  H    1.000000
    50  H    1.000000
    51  H    1.000000
    52  H    1.000000
    53  H    1.000000
    54  H    1.000000
    55  H    1.000000
    56  H    1.000000
    57  H    1.000000
    58  H    1.000000
    59  H    1.000000
    60  H    1.000000
    61  H    1.000000
    62  H    1.000000
    63  H    1.000000
    64  H    1.000000
    65  H    1.000000
    66  H    1.000000
    67  H    1.000000
    68  H    1.000000
    69  H    1.000000
    70  H    1.000000
    71  H    1.000000
    72  H    1.000000
    73  H    1.000000
    74  H    1.000000
    75  H    1.000000
    76  H    1.000000
    77  H    1.000000
    78  H    1.000000
    79  H    1.000000
    80  Mg  12.000000
    81  C    6.000000
    82  C    6.000000
    83  C    6.000000
    84  C    6.000000
    85  N    7.000000
    86  C    6.000000
    87  C    6.000000
    88  C    6.000000
    89  C    6.000000
    90  C    6.000000
    91  C    6.000000
    92  C    6.000000
    93  H    1.000000
    94  N    7.000000
    95  C    6.000000
    96  C    6.000000
    97  C    6.000000
    98  C    6.000000
    99  C    6.000000
   100  C    6.000000
   101  O    8.000000
   102  C    6.000000
   103  N    7.000000
   104  C    6.000000
   105  C    6.000000
   106  C    6.000000
   107  C    6.000000
   108  C    6.000000
   109  C    6.000000
   110  C    6.000000
   111  N    7.000000
   112  C    6.000000
   113  C    6.000000
   114  C    6.000000
   115  C    6.000000
   116  C    6.000000
   117  C    6.000000
   118  O    8.000000
   119  C    6.000000
   120  C    6.000000
   121  O    8.000000
   122  O    8.000000
   123  C    6.000000
   124  H    1.000000
   125  H    1.000000
   126  H    1.000000
   127  H    1.000000
   128  H    1.000000
   129  H    1.000000
   130  H    1.000000
   131  H    1.000000
   132  H    1.000000
   133  H    1.000000
   134  H    1.000000
   135  H    1.000000
   136  H    1.000000
   137  H    1.000000
   138  H    1.000000
   139  H    1.000000
   140  H    1.000000
   141  H    1.000000
   142  H    1.000000
   143  H    1.000000
   144  H    1.000000
   145  H    1.000000
   146  H    1.000000
   147  H    1.000000
   148  H    1.000000
   149  H    1.000000
   150  H    1.000000
   151  H    1.000000
   152  H    1.000000
   153  H    1.000000
   154  H    1.000000
   155  H    1.000000
   156  H    1.000000
   157  H    1.000000
   158  H    1.000000
 Sum of Mulliken charges = 624.00000

 Dipole moment (field-independent basis, Debye):
    X=             -0.0000    Y=             -0.0000    Z=              0.0000  Tot=              0.0000
 Quadrupole moment (field-independent basis, Debye-Ang):
   XX=              0.0000   YY=             -0.0000   ZZ=              0.0000
   XY=              0.0000   XZ=             -0.0000   YZ=             -0.0000

 Normal termination of Gaussian 16 at Fri Oct 15 10:35:00 2021.
