 Gaussian 16, Revision A.03,
 Gaussian 16:  ES64L-G16RevA.03 25-Dec-2016

 --------------------------------------------------------
 #p PBE1PBE/Def2SVP td=(nstates=5) density=(transition=1)
 --------------------------------------------------------

 --------------------------------
 TDDFT excited states in gaussian
 --------------------------------
 Symbolic Z-matrix:
 Charge =  0 Multiplicity = 1

                         Standard orientation:
 ---------------------------------------------------------------------
 Center     Atomic      Atomic             Coordinates (Angstroms)
 Number     Number       Type             X           Y           Z
 ---------------------------------------------------------------------
      1         12           0       15.978566    0.581208   -0.304384
      2          6           0       14.472257   -2.304095    1.304977
      3          6           0       13.468409    2.362077    1.071302
      4          6           0       17.285926    3.095582   -1.777992
      5          6           0       18.288454   -1.596676   -1.872219
      6          7           0       14.120939    0.023111    1.124356
      7          6           0       13.805548   -1.156106    1.687232
      8          6           0       12.667537   -0.971308    2.709168
      9          6           0       12.149689    0.448573    2.185427
     10          6           0       13.315408    1.000344    1.478171
     11          6           0       10.775270    0.522769    1.541662
     12          6           0       13.264820   -1.009329    4.126462
     13          6           0       12.236229   -1.460874    5.204767
     14          1           0       10.819962   -2.108848    4.845278
     15          7           0       15.485016    2.536325   -0.329056
     16          6           0       14.354875    3.104690    0.226716
     17          6           0       14.339669    4.518844   -0.134903
     18          6           0       15.499349    4.767681   -0.909779
     19          6           0       16.134034    3.424622   -1.030886
     20          6           0       13.288101    5.459530    0.255304
     21          6           0       16.068361    6.155736   -1.514416
     22          8           0       17.162275    6.225863   -2.004147
     23          6           0       15.378777    7.501239   -1.225723
     24          7           0       17.403399    0.663484   -1.850822
     25          6           0       17.870213    1.868654   -2.167270
     26          6           0       19.084603    1.851070   -3.056215
     27          6           0       19.596826    0.424776   -2.739365
     28          6           0       18.263561   -0.240560   -2.252646
     29          6           0       18.763923    2.032128   -4.612655
     30          6           0       20.799523    0.326026   -1.709784
     31          6           0       21.825898    1.491029   -1.600954
     32          7           0       16.277683   -1.495557   -0.406692
     33          6           0       17.245609   -2.240009   -0.996323
     34          6           0       17.187011   -3.574199   -0.601845
     35          6           0       16.107105   -3.624979    0.232598
     36          6           0       15.570516   -2.359619    0.366000
     37          6           0       18.175980   -4.670231   -0.989165
     38          6           0       15.362000   -4.576575    1.070462
     39          8           0       15.366605   -5.795612    1.153932
     40          6           0       14.309787   -3.680421    1.858415
     41          6           0       13.001182   -4.283722    1.676313
     42          8           0       12.278677   -4.204413    0.677709
     43          8           0       12.830899   -5.161818    2.686647
     44          6           0       11.753518   -6.101191    2.431871
     45          1           0       12.560709    2.893571    1.364905
     46          1           0       17.681314    3.970386   -2.297345
     47          1           0       19.080312   -2.212250   -2.303634
     48          1           0       11.861618   -1.687016    2.546331
     49          1           0       12.023179    1.059888    3.077910
     50          1           0       10.068155    1.087760    2.148260
     51          1           0       10.379697   -0.480119    1.382030
     52          1           0       10.776797    0.946706    0.537457
     53          1           0       13.509469    0.017032    4.400924
     54          1           0       14.191525   -1.577735    4.203240
     55          1           0       12.073051   -0.687301    5.955826
     56          1           0       12.845331   -2.115504    5.827953
     57          1           0       12.763593    5.130589    1.152154
     58          1           0       12.616144    5.503523   -0.601979
     59          1           0       13.650215    6.462531    0.482118
     60          1           0       15.409970    7.796050   -0.176838
     61          1           0       14.397006    7.407953   -1.690487
     62          1           0       15.838947    8.287858   -1.824270
     63          1           0       19.667183    2.692817   -2.682593
     64          1           0       19.929537   -0.116346   -3.624801
     65          1           0       19.514943    2.765878   -4.904476
     66          1           0       17.770799    2.429495   -4.825109
     67          1           0       18.907324    1.147646   -5.232149
     68          1           0       21.328763   -0.609712   -1.884090
     69          1           0       20.255087    0.369257   -0.766311
     70          1           0       21.469883    2.246464   -0.900893
     71          1           0       21.955478    1.806282   -2.636882
     72          1           0       22.810699    1.144786   -1.289207
     73          1           0       19.118533   -4.144105   -1.142287
     74          1           0       17.940060   -5.145694   -1.940756
     75          1           0       18.229546   -5.385998   -0.169051
     76          1           0       14.610271   -3.706054    2.906622
     77          1           0       11.618634   -6.831474    3.229228
     78          1           0       11.722041   -6.551161    1.439445
     79          1           0       10.790939   -5.589179    2.455819
     80         12           0      -15.920304    0.577642    0.381466
     81          6           0      -15.071369   -2.581512   -0.919496
     82          6           0      -12.712414    0.677580    1.720595
     83          6           0      -16.435468    3.741666    1.284305
     84          6           0      -18.632393    0.616833   -1.783350
     85          7           0      -14.064744   -0.782550    0.219822
     86          6           0      -13.953199   -2.079555   -0.241942
     87          6           0      -12.744275   -2.844192    0.254918
     88          6           0      -11.998735   -1.802551    1.122896
     89          6           0      -12.932132   -0.551187    1.030236
     90          6           0      -11.737094   -2.262911    2.614261
     91          6           0      -11.779314   -3.451572   -0.858671
     92          6           0      -11.648989   -2.694534   -2.190404
     93          1           0      -10.356750   -1.863112   -2.444241
     94          7           0      -14.762168    1.971898    1.352275
     95          6           0      -13.509556    1.810756    1.872588
     96          6           0      -13.115970    3.017299    2.613750
     97          6           0      -14.204659    3.935254    2.500499
     98          6           0      -15.207869    3.211336    1.660812
     99          6           0      -11.789589    3.160259    3.350667
    100          6           0      -14.055954    5.379593    3.108689
    101          8           0      -12.989240    5.674669    3.629366
    102          6           0      -15.230363    6.435531    2.957694
    103          7           0      -17.238268    1.983745   -0.263689
    104          6           0      -17.376187    3.211197    0.380347
    105          6           0      -18.694595    4.002575   -0.165503
    106          6           0      -19.233237    2.943917   -1.272449
    107          6           0      -18.310064    1.784131   -1.079620
    108          6           0      -19.718472    4.314440    0.965413
    109          6           0      -19.215007    3.463542   -2.773748
    110          6           0      -20.494962    3.350090   -3.616273
    111          7           0      -16.810237   -0.752644   -0.996018
    112          6           0      -17.896786   -0.628319   -1.823427
    113          6           0      -18.022695   -1.865988   -2.621720
    114          6           0      -16.963740   -2.703406   -2.179260
    115          6           0      -16.242732   -1.933319   -1.224402
    116          6           0      -19.036179   -2.173102   -3.689129
    117          6           0      -16.323956   -4.006001   -2.443380
    118          8           0      -16.652506   -4.981153   -3.134753
    119          6           0      -15.164282   -4.031146   -1.458837
    120          6           0      -15.298473   -5.046487   -0.469251
    121          8           0      -16.049367   -4.908114    0.530908
    122          8           0      -14.474379   -6.154269   -0.750386
    123          6           0      -14.372246   -7.211282    0.250646
    124          1           0      -11.791060    0.696823    2.305865
    125          1           0      -16.708433    4.716902    1.691760
    126          1           0      -19.537195    0.685101   -2.390174
    127          1           0      -13.196738   -3.648583    0.833622
    128          1           0      -11.118216   -1.520997    0.546521
    129          1           0      -10.669676   -2.427968    2.760546
    130          1           0      -12.300453   -3.187309    2.744395
    131          1           0      -12.058151   -1.503308    3.327796
    132          1           0      -12.276011   -4.399276   -1.070471
    133          1           0      -10.804760   -3.653294   -0.413498
    134          1           0      -12.495476   -2.022209   -2.334086
    135          1           0      -11.762426   -3.414459   -2.999848
    136          1           0      -11.046818    3.773111    2.839929
    137          1           0      -11.436016    2.194628    3.712330
    138          1           0      -11.936692    3.634330    4.320931
    139          1           0      -16.150269    5.925589    3.244765
    140          1           0      -15.252451    6.749109    1.914346
    141          1           0      -15.026668    7.395964    3.431168
    142          1           0      -18.339473    4.979092   -0.493403
    143          1           0      -20.231650    2.639135   -0.957975
    144          1           0      -20.454389    3.510648    0.968679
    145          1           0      -20.153667    5.310181    0.879754
    146          1           0      -19.277403    4.380669    1.959848
    147          1           0      -18.380013    2.962439   -3.264474
    148          1           0      -18.996314    4.521586   -2.629516
    149          1           0      -20.287522    3.400930   -4.685497
    150          1           0      -21.065748    4.217009   -3.284236
    151          1           0      -20.915343    2.385495   -3.331001
    152          1           0      -19.323007   -1.192915   -4.069046
    153          1           0      -19.866508   -2.575579   -3.108929
    154          1           0      -18.728224   -2.916952   -4.424532
    155          1           0      -14.324256   -4.227866   -2.124624
    156          1           0      -15.273328   -7.784760    0.468235
    157          1           0      -14.008807   -6.797902    1.191918
    158          1           0      -13.523087   -7.828787   -0.042585
 ---------------------------------------------------------------------

 SCF Done:  E(RPBE1PBE) =  -4067.34349516     A.U. after   16 cycles

 Excitation energies and oscillator strengths:

 Excited State   1:      Singlet-A      1.8696 eV  663.16 nm  f=0.3620  <S**2>=0.000
     309 -> 315       -0.17518
     312 -> 314        0.69207
     312 <- 314       -0.10391
 This state for optimization and/or second-order correction.
 Total Energy, E(TD-HF/TD-DFT) =  -4067.27478879
 Copying the excited state density for this state as the 1-particle RhoCI density.

 Excited State   2:      Singlet-A      1.9475 eV  636.64 nm  f=0.3584  <S**2>=0.000
     310 -> 316        0.18528
     311 -> 313        0.68726

 Excited State   3:      Singlet-A      1.9912 eV  622.65 nm  f=0.0000  <S**2>=0.000
     312 -> 313        0.70710

 Excited State   4:      Singlet-A      2.0937 eV  592.17 nm  f=0.0000  <S**2>=0.000
     311 -> 314        0.70710

 Excited State   5:      Singlet-A      2.2406 eV  553.35 nm  f=0.1517  <S**2>=0.000
     310 -> 313        0.66537
     311 -> 316       -0.23012

 The electronic state is 1-A.
 Alpha  occ. eigenvalues --  -46.92754 -46.92367 -19.26419 -19.25571 -19.20500
 Alpha  occ. eigenvalues --  -19.20441 -19.19819 -19.19479 -19.19314 -19.19035
 Alpha  occ. eigenvalues --  -14.42075 -14.41739 -14.40776 -14.40737 -14.39546
 Alpha  occ. eigenvalues --  -14.39434 -14.39032 -14.38472 -10.36981 -10.35226
 Alpha  occ. eigenvalues --  -10.33940 -10.33666 -10.32547 -10.32184 -10.29574
 Alpha  occ. eigenvalues --  -10.29315 -10.29094 -10.28586 -10.28474 -10.28456
 Alpha  occ. eigenvalues --  -10.28454 -10.28234 -10.28116 -10.28035 -10.27982
 Alpha  occ. eigenvalues --  -10.27792 -10.27539 -10.27498 -10.27464 -10.27169
 Alpha  occ. eigenvalues --  -10.26741 -10.26663 -10.26515 -10.26502 -10.26258
 Alpha  occ. eigenvalues --  -10.26230 -10.26131 -10.26112 -10.25951 -10.25923
 Alpha  occ. eigenvalues --  -10.25920 -10.25803 -10.25738 -10.25495 -10.25387
 Alpha  occ. eigenvalues --  -10.25286 -10.25232 -10.25194 -10.25189 -10.25175
 Alpha  occ. eigenvalues --  -10.25171 -10.25124 -10.25028 -10.24821 -10.24673
 Alpha  occ. eigenvalues --  -10.24497 -10.24446 -10.24439 -10.24438 -10.24425
 Alpha  occ. eigenvalues --  -10.24280 -10.24272 -10.24236 -10.24079 -10.23915
 Alpha  occ. eigenvalues --  -10.23583 -10.23548 -10.23460 -10.23456 -10.23402
 Alpha  occ. eigenvalues --  -10.23111 -10.23039 -10.23019 -10.22905 -10.22867
 Alpha  occ. eigenvalues --  -10.21737  -3.14836  -3.14568  -1.87678  -1.87365
 Alpha  occ. eigenvalues --   -1.87228  -1.87045  -1.86959  -1.86794  -1.11301
 Alpha  occ. eigenvalues --   -1.09686  -1.07157  -1.05138  -1.04404  -1.03829
 Alpha  occ. eigenvalues --   -1.01783  -1.01465  -1.00441  -0.99762  -0.99158
 Alpha  occ. eigenvalues --   -0.98875  -0.98374  -0.98197  -0.97238  -0.96506
 Alpha  occ. eigenvalues --   -0.87537  -0.86801  -0.83503  -0.83219  -0.83106
 Alpha  occ. eigenvalues --   -0.82963  -0.82409  -0.82356  -0.81724  -0.81246
 Alpha  occ. eigenvalues --   -0.81147  -0.80467  -0.80173  -0.79831  -0.78840
 Alpha  occ. eigenvalues --   -0.78589  -0.78188  -0.77468  -0.77073  -0.76624
 Alpha  occ. eigenvalues --   -0.75896  -0.75878  -0.75256  -0.75079  -0.74457
 Alpha  occ. eigenvalues --   -0.74440  -0.72684  -0.72536  -0.71521  -0.71149
 Alpha  occ. eigenvalues --   -0.71026  -0.70980  -0.70853  -0.70110  -0.69589
 Alpha  occ. eigenvalues --   -0.69291  -0.67309  -0.66829  -0.66207  -0.66060
 Alpha  occ. eigenvalues --   -0.63968  -0.63662  -0.63353  -0.63158  -0.62852
 Alpha  occ. eigenvalues --   -0.62192  -0.61255  -0.61070  -0.60218  -0.59920
 Alpha  occ. eigenvalues --   -0.59699  -0.59535  -0.59132  -0.59126  -0.58754
 Alpha  occ. eigenvalues --   -0.58254  -0.57046  -0.56443  -0.55181  -0.54804
 Alpha  occ. eigenvalues --   -0.54153  -0.54000  -0.53837  -0.53631  -0.53240
 Alpha  occ. eigenvalues --   -0.52964  -0.52511  -0.52362  -0.52129  -0.51794
 Alpha  occ. eigenvalues --   -0.50999  -0.50684  -0.50087  -0.50017  -0.49809
 Alpha  occ. eigenvalues --   -0.49518  -0.49138  -0.48997  -0.48812  -0.48550
 Alpha  occ. eigenvalues --   -0.48405  -0.48218  -0.48030  -0.47623  -0.47558
 Alpha  occ. eigenvalues --   -0.47234  -0.47197  -0.46967  -0.46824  -0.46697
 Alpha  occ. eigenvalues --   -0.46180  -0.46074  -0.45929  -0.45818  -0.45743
 Alpha  occ. eigenvalues --   -0.45494  -0.45247  -0.45200  -0.44994  -0.44961
 Alpha  occ. eigenvalues --   -0.44746  -0.44575  -0.44276  -0.43963  -0.43940
 Alpha  occ. eigenvalues --   -0.43859  -0.43564  -0.43558  -0.43451  -0.43336
 Alpha  occ. eigenvalues --   -0.43302  -0.43237  -0.42948  -0.42874  -0.42861
 Alpha  occ. eigenvalues --   -0.42650  -0.42224  -0.42116  -0.42084  -0.41811
 Alpha  occ. eigenvalues --   -0.41727  -0.41453  -0.41367  -0.41156  -0.41003
 Alpha  occ. eigenvalues --   -0.40960  -0.40778  -0.40579  -0.40566  -0.40273
 Alpha  occ. eigenvalues --   -0.40101  -0.39834  -0.39775  -0.39550  -0.39455
 Alpha  occ. eigenvalues --   -0.39433  -0.39314  -0.39118  -0.38961  -0.38951
 Alpha  occ. eigenvalues --   -0.38825  -0.38720  -0.38670  -0.38411  -0.38068
 Alpha  occ. eigenvalues --   -0.38054  -0.38005  -0.37830  -0.37826  -0.37784
 Alpha  occ. eigenvalues --   -0.37559  -0.37475  -0.37397  -0.37274  -0.37152
 Alpha  occ. eigenvalues --   -0.37088  -0.37062  -0.36918  -0.36524  -0.36293
 Alpha  occ. eigenvalues --   -0.36166  -0.35987  -0.35548  -0.35345  -0.35257
 Alpha  occ. eigenvalues --   -0.34809  -0.34674  -0.34633  -0.34216  -0.33871
 Alpha  occ. eigenvalues --   -0.33611  -0.33172  -0.32991  -0.32624  -0.32537
 Alpha  occ. eigenvalues --   -0.32430  -0.32104  -0.32074  -0.31670  -0.31615
 Alpha  occ. eigenvalues --   -0.30860  -0.30697  -0.30004  -0.29417  -0.29083
 Alpha  occ. eigenvalues --   -0.28877  -0.28667  -0.27984  -0.26951  -0.26918
 Alpha  occ. eigenvalues --   -0.26569  -0.26231  -0.26155  -0.25995  -0.25640
 Alpha  occ. eigenvalues --   -0.25526  -0.25343  -0.25288  -0.21057  -0.20341
 Alpha  occ. eigenvalues --   -0.18879  -0.18505
 Alpha virt. eigenvalues --   -0.10765  -0.10764  -0.05296  -0.04638  -0.03995
 Alpha virt. eigenvalues --   -0.03616  -0.02415  -0.01824  -0.01185  -0.01047
 Alpha virt. eigenvalues --   -0.00441   0.00120   0.00797   0.01093   0.01102

 Mulliken charges:
               1
     1  Mg  11.999960
     2  C    6.000319
     3  C    6.000129
     4  C    5.999613
     5  C    5.999954
     6  N    7.000159
     7  C    5.999646
     8  C    6.000107
     9  C    5.999883
    10  C    6.000251
    11  C    5.999922
    12  C    6.000020
    13  C    5.999946
    14  H    1.000123
    15  N    6.999884
    16  C    6.000325
    17  C    6.000274
    18  C    6.000181
    19  C    6.000351
    20  C    5.999884
    21  C    6.000135
    22  O    8.000235
    23  C    5.999935
    24  N    6.999929
    25  C    6.000405
    26  C    5.999928
    27  C    6.000027
    28  C    5.999687
    29  C    6.000040
    30  C    6.000073
    31  C    5.999986
    32  N    6.999991
    33  C    5.999697
    34  C    5.999599
    35  C    6.000020
    36  C    5.999607
    37  C    6.000030
    38  C    5.999799
    39  O    7.999612
    40  C    5.999981
    41  C    5.999979
    42  O    7.999911
    43  O    8.000006
    44  C    6.000038
    45  H    1.000329
    46  H    0.999981
    47  H    0.999765
    48  H    1.000031
    49  H    1.000144
    50  H    1.000276
    51  H    1.000139
    52  H    0.999975
    53  H    0.999919
    54  H    1.000000
    55  H    1.000078
    56  H    0.999963
    57  H    1.000279
    58  H    1.000278
    59  H    1.000245
    60  H    1.000133
    61  H    1.000126
    62  H    1.000119
    63  H    0.999947
    64  H    0.999905
    65  H    0.999962
    66  H    0.999965
    67  H    1.000022
    68  H    0.999952
    69  H    1.000015
    70  H    0.999950
    71  H    0.999920
    72  H    0.999926
    73  H    0.999807
    74  H    0.999680
    75  H    0.999798
    76  H    0.999953
    77  H    0.999927
    78  H    0.999895
    79  H    1.000020
    80  Mg  12.002876
    81  C    5.984812
    82  C    6.010351
    83  C    6.021382
    84  C    5.985654
    85  N    6.995788
    86  C    6.031492
    87  C    5.989096
    88  C    6.010916
    89  C    5.964295
    90  C    6.003524
    91  C    5.999095
    92  C    5.997423
    93  H    1.014147
    94  N    7.005901
    95  C    5.959898
    96  C    5.980611
    97  C    5.987729
    98  C    5.961776
    99  C    6.004132
   100  C    5.989471
   101  O    7.983207
   102  C    5.999935
   103  N    7.001192
   104  C    5.965584
   105  C    6.007466
   106  C    5.987654
   107  C    6.033245
   108  C    6.003653
   109  C    5.995484
   110  C    5.999611
   111  N    6.998968
   112  C    6.038583
   113  C    6.026548
   114  C    6.004808
   115  C    6.027887
   116  C    6.000916
   117  C    6.019339
   118  O    8.028154
   119  C    6.000146
   120  C    6.003294
   121  O    8.006637
   122  O    8.001779
   123  C    5.996266
   124  H    0.989379
   125  H    0.992582
   126  H    1.007341
   127  H    0.999950
   128  H    0.996000
   129  H    0.994799
   130  H    0.987755
   131  H    1.006012
   132  H    0.994681
   133  H    1.008116
   134  H    0.995225
   135  H    0.997606
   136  H    0.981123
   137  H    0.984341
   138  H    0.985344
   139  H    0.992845
   140  H    0.990536
   141  H    0.988264
   142  H    1.001146
   143  H    1.001261
   144  H    0.989743
   145  H    0.995578
   146  H    1.004884
   147  H    0.998237
   148  H    1.012074
   149  H    1.001219
   150  H    1.005788
   151  H    0.995864
   152  H    1.015545
   153  H    1.017891
   154  H    1.014228
   155  H    1.009713
   156  H    1.002532
   157  H    1.006775
   158  H    1.004899
 Sum of Mulliken charges = 624.00000

 Dipole moment (field-independent basis, Debye):
    X=             -4.4859    Y=             -6.8185    Z=             -5.9586  Tot=             10.1055
 Quadrupole moment (field-independent basis, Debye-Ang):
   XX=            135.9261   YY=             -4.8203   ZZ=             -0.3407
   XY=            106.5940   XZ=             92.8213   YZ=             -4.6985

 Normal termination of Gaussian 16 at Thu Oct 14 20:40:11 2021.
