 Gaussian 16, Revision A.03,
 Gaussian 16:  ES64L-G16RevA.03 25-Dec-2016

 --------------------------------------------------------
 #p PBE1PBE/Def2SVP td=(nstates=5) density=(transition=1)
 --------------------------------------------------------

 --------------------------------
 TDDFT excited states in gaussian
 --------------------------------
 Symbolic Z-matrix:
 Charge =  0 Multiplicity = 1

                         Standard orientation:
 ---------------------------------------------------------------------
 Center     Atomic      Atomic             Coordinates (Angstroms)
 Number     Number       Type             X           Y           Z
 ---------------------------------------------------------------------
      1         12           0      -23.283022    0.624785    0.166197
      2          6           0      -21.271075   -2.036500    1.237214
      3          6           0      -25.490369   -1.752907   -1.251616
      4          6           0      -25.068340    3.178692   -1.182758
      5          6           0      -20.707582    2.791872    0.935529
      6          7           0      -23.411272   -1.587730    0.181943
      7          6           0      -22.529585   -2.434464    0.859929
      8          6           0      -23.201424   -3.844066    1.034056
      9          6           0      -24.459169   -3.722871    0.165882
     10          6           0      -24.441623   -2.256269   -0.390194
     11          6           0      -24.431512   -4.773460   -0.976805
     12          6           0      -23.427498   -4.094844    2.519990
     13          6           0      -23.441366   -5.534322    3.007737
     14          1           0      -23.545123   -6.661974    1.956059
     15          7           0      -25.040227    0.752682   -1.037677
     16          6           0      -25.777378   -0.337688   -1.537449
     17          6           0      -26.884273    0.126032   -2.355464
     18          6           0      -26.866233    1.575996   -2.325291
     19          6           0      -25.615387    1.889685   -1.509814
     20          6           0      -27.966215   -0.787784   -2.945024
     21          6           0      -27.813005    2.593986   -2.931554
     22          8           0      -27.620397    3.791286   -2.767004
     23          6           0      -29.076873    2.115349   -3.535960
     24          7           0      -22.930906    2.720105   -0.012109
     25          6           0      -23.867475    3.564057   -0.527854
     26          6           0      -23.426705    5.034347   -0.304250
     27          6           0      -22.040527    4.929446    0.442383
     28          6           0      -21.892140    3.392302    0.582452
     29          6           0      -23.356115    5.782458   -1.647553
     30          6           0      -22.001687    5.591867    1.845167
     31          6           0      -21.296237    6.940654    1.743046
     32          7           0      -21.304288    0.499724    0.834491
     33          6           0      -20.333287    1.421434    1.043276
     34          6           0      -19.075384    0.684642    1.316373
     35          6           0      -19.398794   -0.626935    1.506439
     36          6           0      -20.770841   -0.689187    1.152588
     37          6           0      -17.761255    1.413740    1.540459
     38          6           0      -18.926432   -1.961036    1.900131
     39          8           0      -17.798832   -2.320704    2.216355
     40          6           0      -20.145239   -2.859406    1.815186
     41          6           0      -19.722677   -4.020423    1.016060
     42          8           0      -19.579666   -4.140273   -0.208244
     43          8           0      -19.409229   -5.035512    1.896626
     44          6           0      -18.899525   -6.261343    1.321586
     45          1           0      -26.188113   -2.515356   -1.603509
     46          1           0      -25.755014    3.940995   -1.556785
     47          1           0      -19.914357    3.530679    1.068054
     48          1           0      -22.435792   -4.480854    0.589227
     49          1           0      -25.286787   -4.047542    0.796472
     50          1           0      -24.302408   -4.360750   -1.977501
     51          1           0      -25.453520   -5.138847   -1.073192
     52          1           0      -23.647607   -5.517023   -0.834221
     53          1           0      -24.350370   -3.558317    2.742412
     54          1           0      -22.684384   -3.535441    3.087056
     55          1           0      -24.237476   -5.643610    3.742952
     56          1           0      -22.493495   -5.581862    3.544970
     57          1           0      -27.755186   -1.851612   -2.834585
     58          1           0      -28.079951   -0.587133   -4.011181
     59          1           0      -28.928002   -0.505230   -2.518599
     60          1           0      -29.691895    1.675795   -2.750300
     61          1           0      -28.884787    1.526979   -4.433161
     62          1           0      -29.694149    2.940929   -3.890340
     63          1           0      -24.204736    5.523706    0.281217
     64          1           0      -21.305993    5.302120   -0.272729
     65          1           0      -22.398995    6.235516   -1.904308
     66          1           0      -24.059108    6.586619   -1.431295
     67          1           0      -23.560813    5.165682   -2.522195
     68          1           0      -21.300270    5.064122    2.491632
     69          1           0      -22.985097    5.722765    2.297087
     70          1           0      -21.955238    7.615632    2.288930
     71          1           0      -21.297378    7.372265    0.742434
     72          1           0      -20.286646    6.974033    2.153520
     73          1           0      -17.759227    2.467767    1.261534
     74          1           0      -16.925921    0.939746    1.026506
     75          1           0      -17.595931    1.491340    2.615629
     76          1           0      -20.420522   -3.139021    2.831592
     77          1           0      -18.080887   -5.994943    0.652542
     78          1           0      -19.644504   -6.818885    0.753489
     79          1           0      -18.321762   -6.719316    2.123707
     80         12           0       23.103101    0.568527    0.100387
     81          6           0       22.465918   -2.393266   -1.446506
     82          6           0       23.178601   -0.978565    3.172470
     83          6           0       23.553038    3.610162    1.516997
     84          6           0       22.543834    2.176835   -2.996761
     85          7           0       22.627078   -1.439606    0.803937
     86          6           0       22.724694   -2.501635   -0.039636
     87          6           0       22.924180   -3.801579    0.663121
     88          6           0       22.887309   -3.286010    2.194086
     89          6           0       22.899050   -1.797168    2.076814
     90          6           0       21.605822   -3.806803    2.989444
     91          6           0       24.355202   -4.392020    0.260134
     92          6           0       24.560551   -5.900501    0.414823
     93          1           0       23.615067   -6.835090    1.209873
     94          7           0       23.437046    1.263415    2.044612
     95          6           0       23.404807    0.446525    3.186601
     96          6           0       23.629423    1.305350    4.326191
     97          6           0       23.769441    2.628311    3.859789
     98          6           0       23.632995    2.510135    2.414577
     99          6           0       23.741719    0.724685    5.755187
    100          6           0       23.936544    3.973917    4.741855
    101          8           0       24.193933    5.074879    4.238766
    102          6           0       23.834362    4.020832    6.257471
    103          7           0       23.116765    2.634374   -0.694647
    104          6           0       23.290285    3.686334    0.140731
    105          6           0       22.974911    5.009489   -0.554922
    106          6           0       22.971464    4.559326   -2.127761
    107          6           0       22.979182    3.028271   -1.995744
    108          6           0       21.695754    5.800091   -0.017035
    109          6           0       24.287179    4.928273   -2.983530
    110          6           0       24.143754    5.606396   -4.333614
    111          7           0       22.654785    0.074931   -1.879062
    112          6           0       22.447802    0.788492   -2.999690
    113          6           0       22.239777   -0.136076   -4.157927
    114          6           0       22.303643   -1.409750   -3.544623
    115          6           0       22.430582   -1.186068   -2.151853
    116          6           0       22.059166    0.140388   -5.608617
    117          6           0       22.218869   -2.781367   -3.881262
    118          8           0       22.048482   -3.331411   -4.988688
    119          6           0       22.315812   -3.489540   -2.532334
    120          6           0       21.107030   -4.251843   -2.318040
    121          8           0       19.963765   -3.917153   -2.324937
    122          8           0       21.516064   -5.533355   -1.961294
    123          6           0       20.531697   -6.621729   -1.592731
    124          1           0       23.438740   -1.418894    4.136889
    125          1           0       23.602117    4.592035    1.993087
    126          1           0       22.172267    2.604649   -3.929586
    127          1           0       22.226603   -4.629976    0.541247
    128          1           0       23.769426   -3.614015    2.743947
    129          1           0       21.762701   -4.044093    4.041417
    130          1           0       21.141975   -4.616359    2.426123
    131          1           0       20.889063   -2.984990    2.983001
    132          1           0       25.158414   -3.906979    0.815171
    133          1           0       24.484200   -4.127008   -0.789567
    134          1           0       25.567362   -6.017040    0.817883
    135          1           0       24.633034   -6.342512   -0.578166
    136          1           0       23.691305   -0.363029    5.802764
    137          1           0       22.943738    1.182341    6.338953
    138          1           0       24.685771    1.079389    6.169415
    139          1           0       24.720805    3.491435    6.604876
    140          1           0       23.066760    3.351003    6.645566
    141          1           0       23.599247    5.030900    6.592384
    142          1           0       23.835113    5.665979   -0.418541
    143          1           0       22.107666    4.971852   -2.649452
    144          1           0       20.967454    5.962727   -0.811886
    145          1           0       21.999878    6.750992    0.418966
    146          1           0       21.163437    5.207864    0.727663
    147          1           0       24.947171    4.069156   -3.102753
    148          1           0       24.880220    5.587689   -2.350549
    149          1           0       24.652014    4.967102   -5.054630
    150          1           0       24.539226    6.621684   -4.344611
    151          1           0       23.094674    5.609080   -4.632759
    152          1           0       22.153101    1.188738   -5.891405
    153          1           0       21.071387   -0.176111   -5.944613
    154          1           0       22.808260   -0.427100   -6.160446
    155          1           0       23.170861   -4.164277   -2.481637
    156          1           0       19.513877   -6.231135   -1.599633
    157          1           0       20.723719   -6.957699   -0.572857
    158          1           0       20.670983   -7.402009   -2.340923
 ---------------------------------------------------------------------

 SCF Done:  E(RPBE1PBE) =  -4067.37190888     A.U. after   16 cycles

 Excitation energies and oscillator strengths:

 Excited State   1:      Singlet-A      1.8263 eV  678.87 nm  f=0.3815  <S**2>=0.000
     310 -> 316       -0.16179
     312 -> 313        0.69457
     312 <- 313       -0.11150
 This state for optimization and/or second-order correction.
 Total Energy, E(TD-HF/TD-DFT) =  -4067.30479204
 Copying the excited state density for this state as the 1-particle RhoCI density.

 Excited State   2:      Singlet-A      1.8923 eV  655.20 nm  f=0.3848  <S**2>=0.000
     309 -> 315        0.18631
     311 -> 314        0.68965
     311 <- 314       -0.10199

 Excited State   3:      Singlet-A      1.9873 eV  623.89 nm  f=0.0000  <S**2>=0.000
     312 -> 314        0.70711

 Excited State   4:      Singlet-A      2.0024 eV  619.19 nm  f=0.0000  <S**2>=0.000
     311 -> 313        0.70711

 Excited State   5:      Singlet-A      2.2008 eV  563.37 nm  f=0.1147  <S**2>=0.000
     310 -> 313        0.65560
     312 -> 316        0.24483

 The electronic state is 1-A.
 Alpha  occ. eigenvalues --  -46.92753 -46.92512 -19.25155 -19.24300 -19.20068
 Alpha  occ. eigenvalues --  -19.19695 -19.19637 -19.19475 -19.19222 -19.18921
 Alpha  occ. eigenvalues --  -14.41978 -14.41711 -14.41257 -14.41121 -14.39685
 Alpha  occ. eigenvalues --  -14.39207 -14.38931 -14.38929 -10.36412 -10.35552
 Alpha  occ. eigenvalues --  -10.33475 -10.32660 -10.32397 -10.31494 -10.29574
 Alpha  occ. eigenvalues --  -10.29376 -10.29070 -10.28828 -10.28639 -10.28544
 Alpha  occ. eigenvalues --  -10.28520 -10.28422 -10.28318 -10.28216 -10.28004
 Alpha  occ. eigenvalues --  -10.27973 -10.27696 -10.27583 -10.27472 -10.27350
 Alpha  occ. eigenvalues --  -10.26965 -10.26548 -10.26499 -10.26488 -10.26363
 Alpha  occ. eigenvalues --  -10.26302 -10.26111 -10.26100 -10.26080 -10.26025
 Alpha  occ. eigenvalues --  -10.25977 -10.25810 -10.25799 -10.25687 -10.25653
 Alpha  occ. eigenvalues --  -10.25578 -10.25537 -10.25516 -10.25509 -10.25501
 Alpha  occ. eigenvalues --  -10.25363 -10.25323 -10.25221 -10.25060 -10.25054
 Alpha  occ. eigenvalues --  -10.24880 -10.24870 -10.24390 -10.24216 -10.23990
 Alpha  occ. eigenvalues --  -10.23972 -10.23949 -10.23856 -10.23740 -10.23673
 Alpha  occ. eigenvalues --  -10.23615 -10.23564 -10.23540 -10.23514 -10.23062
 Alpha  occ. eigenvalues --  -10.22969 -10.22757 -10.22734 -10.22676 -10.22472
 Alpha  occ. eigenvalues --  -10.22349  -3.14745  -3.14493  -1.87606  -1.87347
 Alpha  occ. eigenvalues --   -1.87101  -1.86979  -1.86825  -1.86747  -1.10592
 Alpha  occ. eigenvalues --   -1.10289  -1.04996  -1.04855  -1.04300  -1.02939
 Alpha  occ. eigenvalues --   -1.01962  -1.01712  -1.00173  -0.99156  -0.99078
 Alpha  occ. eigenvalues --   -0.98272  -0.97393  -0.97258  -0.97205  -0.96173
 Alpha  occ. eigenvalues --   -0.87821  -0.87788  -0.83520  -0.83075  -0.82926
 Alpha  occ. eigenvalues --   -0.82483  -0.82204  -0.81817  -0.81454  -0.81313
 Alpha  occ. eigenvalues --   -0.81165  -0.81060  -0.80502  -0.79952  -0.78624
 Alpha  occ. eigenvalues --   -0.78590  -0.78139  -0.77716  -0.77029  -0.76601
 Alpha  occ. eigenvalues --   -0.76431  -0.75796  -0.75427  -0.75256  -0.74644
 Alpha  occ. eigenvalues --   -0.74378  -0.72731  -0.72255  -0.71781  -0.71614
 Alpha  occ. eigenvalues --   -0.71357  -0.71123  -0.70452  -0.70291  -0.69529
 Alpha  occ. eigenvalues --   -0.68900  -0.67015  -0.67003  -0.66422  -0.65451
 Alpha  occ. eigenvalues --   -0.63696  -0.63474  -0.62982  -0.62880  -0.62595
 Alpha  occ. eigenvalues --   -0.62346  -0.61427  -0.60414  -0.59799  -0.59691
 Alpha  occ. eigenvalues --   -0.59640  -0.59314  -0.59170  -0.59046  -0.58782
 Alpha  occ. eigenvalues --   -0.58465  -0.56747  -0.56298  -0.55048  -0.54566
 Alpha  occ. eigenvalues --   -0.54431  -0.54240  -0.53771  -0.53584  -0.53355
 Alpha  occ. eigenvalues --   -0.53329  -0.53001  -0.52863  -0.52288  -0.52257
 Alpha  occ. eigenvalues --   -0.50637  -0.50526  -0.50307  -0.50127  -0.49775
 Alpha  occ. eigenvalues --   -0.49645  -0.49311  -0.48629  -0.48308  -0.48173
 Alpha  occ. eigenvalues --   -0.48021  -0.47871  -0.47730  -0.47668  -0.47519
 Alpha  occ. eigenvalues --   -0.47474  -0.47450  -0.47319  -0.46694  -0.46608
 Alpha  occ. eigenvalues --   -0.46526  -0.46365  -0.46213  -0.46127  -0.46015
 Alpha  occ. eigenvalues --   -0.45959  -0.45410  -0.45353  -0.45096  -0.44823
 Alpha  occ. eigenvalues --   -0.44435  -0.44330  -0.44171  -0.44147  -0.44026
 Alpha  occ. eigenvalues --   -0.44013  -0.43775  -0.43693  -0.43655  -0.43517
 Alpha  occ. eigenvalues --   -0.43262  -0.42915  -0.42868  -0.42764  -0.42577
 Alpha  occ. eigenvalues --   -0.42495  -0.42282  -0.42072  -0.41925  -0.41702
 Alpha  occ. eigenvalues --   -0.41592  -0.41467  -0.41264  -0.41141  -0.41068
 Alpha  occ. eigenvalues --   -0.40926  -0.40842  -0.40815  -0.40577  -0.40331
 Alpha  occ. eigenvalues --   -0.39983  -0.39865  -0.39690  -0.39476  -0.39409
 Alpha  occ. eigenvalues --   -0.39232  -0.39159  -0.39127  -0.39033  -0.39003
 Alpha  occ. eigenvalues --   -0.38753  -0.38725  -0.38510  -0.38411  -0.38172
 Alpha  occ. eigenvalues --   -0.38049  -0.37951  -0.37816  -0.37671  -0.37489
 Alpha  occ. eigenvalues --   -0.37339  -0.37265  -0.37113  -0.36745  -0.36624
 Alpha  occ. eigenvalues --   -0.36447  -0.36380  -0.36153  -0.36135  -0.35958
 Alpha  occ. eigenvalues --   -0.35877  -0.35843  -0.35644  -0.35245  -0.35062
 Alpha  occ. eigenvalues --   -0.34820  -0.34661  -0.34316  -0.33879  -0.33461
 Alpha  occ. eigenvalues --   -0.33381  -0.32984  -0.32943  -0.32775  -0.32759
 Alpha  occ. eigenvalues --   -0.32535  -0.31810  -0.31566  -0.31563  -0.31258
 Alpha  occ. eigenvalues --   -0.31007  -0.30901  -0.29397  -0.29379  -0.29313
 Alpha  occ. eigenvalues --   -0.29085  -0.28649  -0.28244  -0.26918  -0.26785
 Alpha  occ. eigenvalues --   -0.26434  -0.26143  -0.26084  -0.25973  -0.25929
 Alpha  occ. eigenvalues --   -0.25657  -0.25534  -0.25453  -0.20767  -0.20722
 Alpha  occ. eigenvalues --   -0.18752  -0.18568
 Alpha virt. eigenvalues --   -0.11108  -0.10976  -0.05165  -0.05043  -0.04175
 Alpha virt. eigenvalues --   -0.04029  -0.02431  -0.02101  -0.00423  -0.00069
 Alpha virt. eigenvalues --    0.00575   0.00799   0.01089   0.01375   0.01493

 Mulliken charges:
               1
     1  Mg  11.999687
     2  C    6.023042
     3  C    5.996634
     4  C    5.977657
     5  C    6.005153
     6  N    7.014259
     7  C    5.966748
     8  C    6.005218
     9  C    5.988786
    10  C    6.029549
    11  C    5.998204
    12  C    6.004180
    13  C    5.999806
    14  H    0.993578
    15  N    6.995417
    16  C    6.035903
    17  C    6.018475
    18  C    6.017377
    19  C    6.028193
    20  C    5.997678
    21  C    6.014541
    22  O    8.030352
    23  C    5.992423
    24  N    6.993582
    25  C    6.031374
    26  C    5.993049
    27  C    6.011045
    28  C    5.972732
    29  C    5.997738
    30  C    6.004279
    31  C    6.001499
    32  N    7.001094
    33  C    5.966380
    34  C    5.969516
    35  C    5.999571
    36  C    5.966475
    37  C    6.002968
    38  C    5.980595
    39  O    7.973476
    40  C    5.999645
    41  C    5.996806
    42  O    7.992134
    43  O    7.999364
    44  C    6.001224
    45  H    1.013084
    46  H    1.002050
    47  H    0.989137
    48  H    1.002870
    49  H    1.006152
    50  H    0.998860
    51  H    0.999238
    52  H    1.012845
    53  H    0.990890
    54  H    1.007541
    55  H    0.996968
    56  H    1.004337
    57  H    1.015641
    58  H    1.016697
    59  H    1.016405
    60  H    1.007365
    61  H    1.007576
    62  H    1.014675
    63  H    0.998100
    64  H    0.996426
    65  H    1.008126
    66  H    0.999782
    67  H    0.994815
    68  H    1.004458
    69  H    0.990747
    70  H    0.994555
    71  H    0.994722
    72  H    1.001193
    73  H    0.982671
    74  H    0.982280
    75  H    0.979719
    76  H    0.992630
    77  H    0.999362
    78  H    0.993312
    79  H    0.997369
    80  Mg  12.000004
    81  C    5.999988
    82  C    6.000009
    83  C    5.999989
    84  C    6.000005
    85  N    6.999986
    86  C    6.000008
    87  C    6.000024
    88  C    5.999976
    89  C    6.000046
    90  C    5.999993
    91  C    6.000003
    92  C    6.000004
    93  H    1.000025
    94  N    7.000001
    95  C    6.000037
    96  C    6.000008
    97  C    6.000022
    98  C    6.000015
    99  C    5.999995
   100  C    6.000010
   101  O    8.000003
   102  C    5.999993
   103  N    7.000029
   104  C    6.000005
   105  C    5.999982
   106  C    6.000020
   107  C    5.999951
   108  C    6.000004
   109  C    6.000012
   110  C    6.000003
   111  N    6.999990
   112  C    5.999983
   113  C    5.999987
   114  C    5.999995
   115  C    6.000002
   116  C    6.000004
   117  C    5.999985
   118  O    7.999965
   119  C    6.000005
   120  C    5.999998
   121  O    8.000044
   122  O    7.999978
   123  C    5.999989
   124  H    1.000007
   125  H    0.999994
   126  H    0.999991
   127  H    1.000015
   128  H    0.999976
   129  H    1.000007
   130  H    1.000037
   131  H    1.000046
   132  H    0.999967
   133  H    0.999987
   134  H    0.999963
   135  H    0.999987
   136  H    1.000016
   137  H    1.000046
   138  H    0.999980
   139  H    0.999973
   140  H    1.000039
   141  H    1.000013
   142  H    0.999970
   143  H    1.000017
   144  H    1.000031
   145  H    0.999985
   146  H    1.000036
   147  H    0.999977
   148  H    0.999965
   149  H    0.999975
   150  H    0.999966
   151  H    1.000024
   152  H    0.999971
   153  H    1.000012
   154  H    0.999950
   155  H    0.999970
   156  H    1.000051
   157  H    0.999998
   158  H    0.999982
 Sum of Mulliken charges = 624.00000

 Dipole moment (field-independent basis, Debye):
    X=             -9.3689    Y=              0.2363    Z=             -4.7253  Tot=             10.4957
 Quadrupole moment (field-independent basis, Debye-Ang):
   XX=            432.3360   YY=             -2.7479   ZZ=              4.0970
   XY=             -9.6478   XZ=            114.4415   YZ=             -2.6372

 Normal termination of Gaussian 16 at Fri Oct 15 02:09:20 2021.
