 Gaussian 16, Revision A.03,
 Gaussian 16:  ES64L-G16RevA.03 25-Dec-2016

 --------------------------------------------------------
 #p PBE1PBE/Def2SVP td=(nstates=5) density=(transition=1)
 --------------------------------------------------------

 --------------------------------
 TDDFT excited states in gaussian
 --------------------------------
 Symbolic Z-matrix:
 Charge =  0 Multiplicity = 1

                         Standard orientation:
 ---------------------------------------------------------------------
 Center     Atomic      Atomic             Coordinates (Angstroms)
 Number     Number       Type             X           Y           Z
 ---------------------------------------------------------------------
      1         12           0      -30.955322    0.153083    0.463100
      2          6           0      -28.421641   -2.017314   -0.400539
      3          6           0      -32.723379   -1.065542   -2.200727
      4          6           0      -33.318693    2.473268    1.123122
      5          6           0      -28.850409    1.703221    2.755596
      6          7           0      -30.467624   -1.317675   -1.198207
      7          6           0      -29.524197   -2.178287   -1.226360
      8          6           0      -29.599666   -3.294802   -2.390869
      9          6           0      -30.877517   -2.743978   -3.138734
     10          6           0      -31.386853   -1.564062   -2.182363
     11          6           0      -30.596683   -2.108883   -4.599855
     12          6           0      -29.743613   -4.796811   -1.889315
     13          6           0      -29.106441   -5.926825   -2.773450
     14          1           0      -28.640517   -5.527513   -4.140963
     15          7           0      -32.754414    0.584041   -0.335798
     16          6           0      -33.405466   -0.102919   -1.434612
     17          6           0      -34.727780    0.491898   -1.598822
     18          6           0      -34.872150    1.592756   -0.718072
     19          6           0      -33.642343    1.563995    0.105559
     20          6           0      -35.635650   -0.144182   -2.588983
     21          6           0      -36.051423    2.567381   -0.490722
     22          8           0      -36.033434    3.532182    0.214298
     23          6           0      -37.272672    2.332496   -1.402561
     24          7           0      -31.090713    1.946011    1.674903
     25          6           0      -32.119737    2.724552    1.790047
     26          6           0      -31.784324    4.005858    2.604901
     27          6           0      -30.396125    3.701749    3.217473
     28          6           0      -30.064654    2.352621    2.537221
     29          6           0      -31.812118    5.259164    1.704376
     30          6           0      -30.423800    3.673571    4.776515
     31          6           0      -30.594702    5.045936    5.447770
     32          7           0      -29.004630   -0.076693    1.094516
     33          6           0      -28.330520    0.573851    2.112656
     34          6           0      -27.050981   -0.073482    2.235788
     35          6           0      -26.968318   -1.099304    1.247169
     36          6           0      -28.244238   -1.036417    0.623577
     37          6           0      -26.031996    0.306170    3.144075
     38          6           0      -26.222641   -2.182843    0.690630
     39          8           0      -25.031663   -2.532352    0.945572
     40          6           0      -27.116393   -2.735051   -0.486700
     41          6           0      -26.358004   -2.585953   -1.710383
     42          8           0      -26.276534   -1.540841   -2.355251
     43          8           0      -25.658233   -3.751002   -1.896136
     44          6           0      -24.641044   -3.652228   -2.964167
     45          1           0      -33.300324   -1.416288   -3.058427
     46          1           0      -34.136913    3.176428    1.296026
     47          1           0      -28.255230    2.180732    3.537340
     48          1           0      -28.705957   -3.100509   -2.984404
     49          1           0      -31.601948   -3.545521   -3.281680
     50          1           0      -29.536505   -1.861216   -4.659787
     51          1           0      -31.194998   -1.207092   -4.728902
     52          1           0      -30.839024   -2.739186   -5.456100
     53          1           0      -30.821393   -4.956670   -1.874161
     54          1           0      -29.566814   -4.971702   -0.827505
     55          1           0      -29.756101   -6.789777   -2.919083
     56          1           0      -28.188311   -6.272059   -2.298016
     57          1           0      -35.442825    0.241530   -3.590465
     58          1           0      -36.679766   -0.137639   -2.275805
     59          1           0      -35.398521   -1.207803   -2.593044
     60          1           0      -37.878491    1.465593   -1.136973
     61          1           0      -36.794054    2.229573   -2.375912
     62          1           0      -37.954829    3.175366   -1.509539
     63          1           0      -32.559760    4.004031    3.370555
     64          1           0      -29.669708    4.427961    2.852807
     65          1           0      -31.641195    5.082929    0.642158
     66          1           0      -31.059269    6.029475    1.874799
     67          1           0      -32.803387    5.690067    1.844828
     68          1           0      -29.471020    3.287323    5.135969
     69          1           0      -31.210660    3.000494    5.118662
     70          1           0      -30.764163    5.778598    4.658714
     71          1           0      -29.625575    5.376177    5.822014
     72          1           0      -31.296243    5.145413    6.275699
     73          1           0      -26.555815    0.472408    4.085471
     74          1           0      -25.501834    1.230954    2.917059
     75          1           0      -25.258531   -0.462500    3.136287
     76          1           0      -27.201452   -3.795563   -0.248220
     77          1           0      -23.893277   -2.945630   -2.602978
     78          1           0      -25.087726   -3.431627   -3.933091
     79          1           0      -24.167751   -4.630531   -3.049373
     80         12           0       30.995458   -0.090486   -0.627198
     81          6           0       28.005685   -1.490405    0.609757
     82          6           0       29.088972    2.186669   -2.296641
     83          6           0       33.849081    1.702760   -1.195141
     84          6           0       32.692131   -2.261665    1.632735
     85          7           0       28.758506    0.390978   -0.705013
     86          6           0       27.707563   -0.366301   -0.273159
     87          6           0       26.351385    0.301615   -0.558731
     88          6           0       26.835214    1.217796   -1.787163
     89          6           0       28.329968    1.271424   -1.591131
     90          6           0       26.469211    0.695395   -3.202320
     91          6           0       25.784314    1.190767    0.637604
     92          6           0       24.286924    1.443960    0.720206
     93          1           0       23.673068    2.836447    0.461973
     94          7           0       31.505158    1.727936   -1.655371
     95          6           0       30.566419    2.406869   -2.376509
     96          6           0       31.158291    3.386250   -3.175893
     97          6           0       32.575566    3.274135   -2.913324
     98          6           0       32.731246    2.229621   -1.861799
     99          6           0       30.408539    4.315778   -4.122601
    100          6           0       33.602950    4.134146   -3.613990
    101          8           0       33.227442    4.978614   -4.467559
    102          6           0       35.152021    3.967620   -3.425913
    103          7           0       32.923696   -0.302426    0.125494
    104          6           0       33.965039    0.565930   -0.300387
    105          6           0       35.300242   -0.006450    0.086796
    106          6           0       34.975183   -1.007327    1.216772
    107          6           0       33.466544   -1.288365    0.956246
    108          6           0       36.146837   -0.762087   -0.962336
    109          6           0       35.172474   -0.360527    2.687422
    110          6           0       36.565423   -0.358085    3.298921
    111          7           0       30.445816   -1.702315    0.689793
    112          6           0       31.235282   -2.483468    1.520313
    113          6           0       30.474120   -3.349651    2.282367
    114          6           0       29.150843   -3.041624    1.922830
    115          6           0       29.194415   -2.013045    0.966587
    116          6           0       31.017308   -4.353977    3.249202
    117          6           0       27.848321   -3.426491    2.076907
    118          8           0       27.377022   -4.378067    2.667819
    119          6           0       27.047631   -2.273928    1.435102
    120          6           0       26.445453   -1.532823    2.591357
    121          8           0       27.078784   -1.049047    3.477318
    122          8           0       25.052074   -1.565277    2.512099
    123          6           0       24.432988   -1.022588    3.671062
    124          1           0       28.527612    2.798933   -3.005824
    125          1           0       34.815786    2.109369   -1.500941
    126          1           0       33.288428   -2.985146    2.192209
    127          1           0       25.626900   -0.391505   -0.984984
    128          1           0       26.323238    2.173212   -1.675845
    129          1           0       25.576305    1.273708   -3.441406
    130          1           0       26.202607   -0.361417   -3.197074
    131          1           0       27.248274    0.925644   -3.929242
    132          1           0       26.205365    2.195356    0.596286
    133          1           0       26.177914    0.755388    1.556353
    134          1           0       24.025171    1.129968    1.731691
    135          1           0       23.805055    0.739698    0.042224
    136          1           0       30.862741    4.601143   -5.072071
    137          1           0       30.242062    5.137009   -3.425878
    138          1           0       29.498826    3.830273   -4.475947
    139          1           0       35.453928    2.977919   -3.767544
    140          1           0       35.272019    4.130770   -2.355073
    141          1           0       35.775779    4.749625   -3.858715
    142          1           0       35.869472    0.815255    0.520185
    143          1           0       35.576283   -1.914363    1.151979
    144          1           0       36.264651   -1.830223   -0.780684
    145          1           0       36.975215   -0.149813   -1.319328
    146          1           0       35.515814   -0.760399   -1.850960
    147          1           0       34.491046   -0.990973    3.258289
    148          1           0       34.816742    0.669750    2.708408
    149          1           0       36.814073    0.654386    3.615857
    150          1           0       37.286324   -0.689076    2.550844
    151          1           0       36.606827   -0.976607    4.195854
    152          1           0       30.455770   -4.212898    4.172259
    153          1           0       32.061515   -4.169916    3.504899
    154          1           0       30.875502   -5.382558    2.917073
    155          1           0       26.265932   -2.712164    0.815579
    156          1           0       24.230812   -1.820645    4.384914
    157          1           0       23.424315   -0.649101    3.490411
    158          1           0       25.048207   -0.266341    4.155608
 ---------------------------------------------------------------------

 SCF Done:  E(RPBE1PBE) =  -4067.36780527     A.U. after   16 cycles

 Excitation energies and oscillator strengths:

 Excited State   1:      Singlet-A      1.8056 eV  686.65 nm  f=0.0000  <S**2>=0.000
     312 -> 313        0.70711
 This state for optimization and/or second-order correction.
 Total Energy, E(TD-HF/TD-DFT) =  -4067.30144911
 Copying the excited state density for this state as the 1-particle RhoCI density.

 Excited State   2:      Singlet-A      1.8621 eV  665.84 nm  f=0.3862  <S**2>=0.000
     309 -> 315       -0.18180
     311 -> 313        0.68867
     311 <- 313       -0.10551

 Excited State   3:      Singlet-A      1.9096 eV  649.28 nm  f=0.3729  <S**2>=0.000
     310 -> 316       -0.19440
     312 -> 314        0.68533

 Excited State   4:      Singlet-A      2.1541 eV  575.57 nm  f=0.1181  <S**2>=0.000
     309 -> 313        0.65689
     311 -> 315        0.24321

 Excited State   5:      Singlet-A      2.2083 eV  561.45 nm  f=0.1059  <S**2>=0.000
     310 -> 314        0.65633
     312 -> 316        0.25145

 The electronic state is 1-A.
 Alpha  occ. eigenvalues --  -46.93685 -46.91810 -19.26002 -19.25456 -19.21070
 Alpha  occ. eigenvalues --  -19.20188 -19.19538 -19.18664 -19.18347 -19.18151
 Alpha  occ. eigenvalues --  -14.42492 -14.42328 -14.41597 -14.41073 -14.39433
 Alpha  occ. eigenvalues --  -14.39322 -14.38825 -14.38662 -10.36668 -10.35543
 Alpha  occ. eigenvalues --  -10.33241 -10.32221 -10.32045 -10.30450 -10.30101
 Alpha  occ. eigenvalues --  -10.30089 -10.29454 -10.29443 -10.28528 -10.28484
 Alpha  occ. eigenvalues --  -10.28394 -10.28348 -10.28198 -10.28187 -10.28172
 Alpha  occ. eigenvalues --  -10.28117 -10.27982 -10.27911 -10.27678 -10.27039
 Alpha  occ. eigenvalues --  -10.26884 -10.26834 -10.26753 -10.26735 -10.26690
 Alpha  occ. eigenvalues --  -10.26573 -10.26207 -10.26007 -10.25958 -10.25827
 Alpha  occ. eigenvalues --  -10.25822 -10.25688 -10.25654 -10.25600 -10.25598
 Alpha  occ. eigenvalues --  -10.25488 -10.25452 -10.25439 -10.25390 -10.25375
 Alpha  occ. eigenvalues --  -10.25290 -10.25243 -10.25205 -10.25003 -10.24968
 Alpha  occ. eigenvalues --  -10.24916 -10.24784 -10.24701 -10.24429 -10.24390
 Alpha  occ. eigenvalues --  -10.24231 -10.24164 -10.24046 -10.23982 -10.23656
 Alpha  occ. eigenvalues --  -10.23584 -10.23544 -10.23422 -10.23274 -10.23122
 Alpha  occ. eigenvalues --  -10.23096 -10.22975 -10.22842 -10.22398 -10.22210
 Alpha  occ. eigenvalues --  -10.21865  -3.15564  -3.14000  -1.88402  -1.87931
 Alpha  occ. eigenvalues --   -1.87782  -1.86835  -1.86380  -1.86228  -1.12347
 Alpha  occ. eigenvalues --   -1.10278  -1.07107  -1.04813  -1.04281  -1.02049
 Alpha  occ. eigenvalues --   -1.02032  -1.01592  -1.00323  -1.00008  -0.99335
 Alpha  occ. eigenvalues --   -0.98978  -0.98589  -0.98269  -0.96515  -0.95333
 Alpha  occ. eigenvalues --   -0.88709  -0.86947  -0.83606  -0.83213  -0.83016
 Alpha  occ. eigenvalues --   -0.82975  -0.82589  -0.82034  -0.81919  -0.81822
 Alpha  occ. eigenvalues --   -0.81412  -0.81308  -0.81098  -0.80208  -0.78641
 Alpha  occ. eigenvalues --   -0.78202  -0.77908  -0.77723  -0.77159  -0.76572
 Alpha  occ. eigenvalues --   -0.76144  -0.75814  -0.75362  -0.75000  -0.74583
 Alpha  occ. eigenvalues --   -0.74575  -0.72758  -0.72385  -0.71707  -0.71691
 Alpha  occ. eigenvalues --   -0.71207  -0.70670  -0.70265  -0.70043  -0.70036
 Alpha  occ. eigenvalues --   -0.69174  -0.68059  -0.66697  -0.66683  -0.65900
 Alpha  occ. eigenvalues --   -0.63904  -0.63746  -0.63138  -0.62905  -0.62781
 Alpha  occ. eigenvalues --   -0.62668  -0.61633  -0.61343  -0.60671  -0.60189
 Alpha  occ. eigenvalues --   -0.59800  -0.59785  -0.59297  -0.59275  -0.58759
 Alpha  occ. eigenvalues --   -0.58633  -0.57342  -0.56142  -0.55012  -0.54712
 Alpha  occ. eigenvalues --   -0.54475  -0.54130  -0.53969  -0.53766  -0.53685
 Alpha  occ. eigenvalues --   -0.53542  -0.52897  -0.52702  -0.52459  -0.52151
 Alpha  occ. eigenvalues --   -0.51116  -0.50540  -0.50176  -0.50171  -0.49845
 Alpha  occ. eigenvalues --   -0.49767  -0.49650  -0.49100  -0.48568  -0.48435
 Alpha  occ. eigenvalues --   -0.48148  -0.47858  -0.47799  -0.47648  -0.47360
 Alpha  occ. eigenvalues --   -0.47326  -0.47213  -0.47155  -0.46750  -0.46674
 Alpha  occ. eigenvalues --   -0.46476  -0.46414  -0.46041  -0.45949  -0.45772
 Alpha  occ. eigenvalues --   -0.45590  -0.45465  -0.45438  -0.45286  -0.45141
 Alpha  occ. eigenvalues --   -0.44808  -0.44706  -0.44466  -0.44329  -0.44090
 Alpha  occ. eigenvalues --   -0.43974  -0.43709  -0.43627  -0.43576  -0.43536
 Alpha  occ. eigenvalues --   -0.43143  -0.43089  -0.43086  -0.42792  -0.42637
 Alpha  occ. eigenvalues --   -0.42468  -0.42447  -0.42009  -0.41877  -0.41689
 Alpha  occ. eigenvalues --   -0.41655  -0.41273  -0.41269  -0.41143  -0.41118
 Alpha  occ. eigenvalues --   -0.41074  -0.41010  -0.40780  -0.40711  -0.40532
 Alpha  occ. eigenvalues --   -0.40374  -0.40049  -0.39903  -0.39833  -0.39685
 Alpha  occ. eigenvalues --   -0.39489  -0.39397  -0.39188  -0.39066  -0.38916
 Alpha  occ. eigenvalues --   -0.38647  -0.38615  -0.38491  -0.38197  -0.38150
 Alpha  occ. eigenvalues --   -0.37992  -0.37881  -0.37774  -0.37769  -0.37579
 Alpha  occ. eigenvalues --   -0.37492  -0.37403  -0.37281  -0.37112  -0.37074
 Alpha  occ. eigenvalues --   -0.36608  -0.36474  -0.36389  -0.36284  -0.36192
 Alpha  occ. eigenvalues --   -0.36067  -0.35995  -0.35827  -0.35479  -0.35373
 Alpha  occ. eigenvalues --   -0.35206  -0.35142  -0.34671  -0.34346  -0.34314
 Alpha  occ. eigenvalues --   -0.33475  -0.33168  -0.32935  -0.32813  -0.32619
 Alpha  occ. eigenvalues --   -0.32608  -0.32068  -0.31960  -0.31897  -0.31593
 Alpha  occ. eigenvalues --   -0.31480  -0.31391  -0.30375  -0.30241  -0.29558
 Alpha  occ. eigenvalues --   -0.29089  -0.29002  -0.28579  -0.27072  -0.26956
 Alpha  occ. eigenvalues --   -0.26242  -0.25769  -0.25686  -0.25383  -0.25327
 Alpha  occ. eigenvalues --   -0.25223  -0.24953  -0.24611  -0.21297  -0.20609
 Alpha  occ. eigenvalues --   -0.19618  -0.18830
 Alpha virt. eigenvalues --   -0.11979  -0.10925  -0.05970  -0.05134  -0.04262
 Alpha virt. eigenvalues --   -0.04216  -0.02270  -0.01848  -0.01383  -0.00111
 Alpha virt. eigenvalues --    0.00118   0.00765   0.00883   0.01263   0.01514

 Mulliken charges:
               1
     1  Mg  12.000000
     2  C    6.000000
     3  C    6.000000
     4  C    6.000000
     5  C    6.000000
     6  N    7.000000
     7  C    6.000000
     8  C    6.000000
     9  C    6.000000
    10  C    6.000000
    11  C    6.000000
    12  C    6.000000
    13  C    6.000000
    14  H    1.000000
    15  N    7.000000
    16  C    6.000000
    17  C    6.000000
    18  C    6.000000
    19  C    6.000000
    20  C    6.000000
    21  C    6.000000
    22  O    8.000000
    23  C    6.000000
    24  N    7.000000
    25  C    6.000000
    26  C    6.000000
    27  C    6.000000
    28  C    6.000000
    29  C    6.000000
    30  C    6.000000
    31  C    6.000000
    32  N    7.000000
    33  C    6.000000
    34  C    6.000000
    35  C    6.000000
    36  C    6.000000
    37  C    6.000000
    38  C    6.000000
    39  O    8.000000
    40  C    6.000000
    41  C    6.000000
    42  O    8.000000
    43  O    8.000000
    44  C    6.000000
    45  H    1.000000
    46  H    1.000000
    47  H    1.000000
    48  H    1.000000
    49  H    1.000000
    50  H    1.000000
    51  H    1.000000
    52  H    1.000000
    53  H    1.000000
    54  H    1.000000
    55  H    1.000000
    56  H    1.000000
    57  H    1.000000
    58  H    1.000000
    59  H    1.000000
    60  H    1.000000
    61  H    1.000000
    62  H    1.000000
    63  H    1.000000
    64  H    1.000000
    65  H    1.000000
    66  H    1.000000
    67  H    1.000000
    68  H    1.000000
    69  H    1.000000
    70  H    1.000000
    71  H    1.000000
    72  H    1.000000
    73  H    1.000000
    74  H    1.000000
    75  H    1.000000
    76  H    1.000000
    77  H    1.000000
    78  H    1.000000
    79  H    1.000000
    80  Mg  12.000000
    81  C    6.000000
    82  C    6.000000
    83  C    6.000000
    84  C    6.000000
    85  N    7.000000
    86  C    6.000000
    87  C    6.000000
    88  C    6.000000
    89  C    6.000000
    90  C    6.000000
    91  C    6.000000
    92  C    6.000000
    93  H    1.000000
    94  N    7.000000
    95  C    6.000000
    96  C    6.000000
    97  C    6.000000
    98  C    6.000000
    99  C    6.000000
   100  C    6.000000
   101  O    8.000000
   102  C    6.000000
   103  N    7.000000
   104  C    6.000000
   105  C    6.000000
   106  C    6.000000
   107  C    6.000000
   108  C    6.000000
   109  C    6.000000
   110  C    6.000000
   111  N    7.000000
   112  C    6.000000
   113  C    6.000000
   114  C    6.000000
   115  C    6.000000
   116  C    6.000000
   117  C    6.000000
   118  O    8.000000
   119  C    6.000000
   120  C    6.000000
   121  O    8.000000
   122  O    8.000000
   123  C    6.000000
   124  H    1.000000
   125  H    1.000000
   126  H    1.000000
   127  H    1.000000
   128  H    1.000000
   129  H    1.000000
   130  H    1.000000
   131  H    1.000000
   132  H    1.000000
   133  H    1.000000
   134  H    1.000000
   135  H    1.000000
   136  H    1.000000
   137  H    1.000000
   138  H    1.000000
   139  H    1.000000
   140  H    1.000000
   141  H    1.000000
   142  H    1.000000
   143  H    1.000000
   144  H    1.000000
   145  H    1.000000
   146  H    1.000000
   147  H    1.000000
   148  H    1.000000
   149  H    1.000000
   150  H    1.000000
   151  H    1.000000
   152  H    1.000000
   153  H    1.000000
   154  H    1.000000
   155  H    1.000000
   156  H    1.000000
   157  H    1.000000
   158  H    1.000000
 Sum of Mulliken charges = 624.00000

 Dipole moment (field-independent basis, Debye):
    X=             -0.0000    Y=              0.0000    Z=             -0.0000  Tot=              0.0000
 Quadrupole moment (field-independent basis, Debye-Ang):
   XX=             -0.0000   YY=              0.0000   ZZ=             -0.0000
   XY=              0.0000   XZ=             -0.0000   YZ=             -0.0000

 Normal termination of Gaussian 16 at Fri Oct 15 10:34:08 2021.
