 Gaussian 16, Revision A.03,
 Gaussian 16:  ES64L-G16RevA.03 25-Dec-2016

 --------------------------------------------------------
 #p PBE1PBE/Def2SVP td=(nstates=5) density=(transition=1)
 --------------------------------------------------------

 --------------------------------
 TDDFT excited states in gaussian
 --------------------------------
 Symbolic Z-matrix:
 Charge =  0 Multiplicity = 1

                         Standard orientation:
 ---------------------------------------------------------------------
 Center     Atomic      Atomic             Coordinates (Angstroms)
 Number     Number       Type             X           Y           Z
 ---------------------------------------------------------------------
      1         12           0      -11.170694    0.156746   -0.479890
      2          6           0       -8.149793   -0.947193    0.749647
      3          6           0      -12.532658   -2.863306    0.349951
      4          6           0      -14.116383    1.651913   -0.469683
      5          6           0       -9.617025    3.215153   -1.228049
      6          7           0      -10.464323   -1.494372    0.876542
      7          6           0       -9.159199   -1.832905    1.037974
      8          6           0       -8.982682   -3.212717    1.599556
      9          6           0      -10.281974   -3.890468    1.055921
     10          6           0      -11.129236   -2.689524    0.662251
     11          6           0      -10.005392   -4.912558   -0.083747
     12          6           0       -8.945525   -3.215137    3.209698
     13          6           0       -7.973907   -4.298608    3.871924
     14          1           0       -8.813197   -5.210659    4.732038
     15          7           0      -13.074389   -0.576304   -0.301487
     16          6           0      -13.479217   -1.794693    0.119467
     17          6           0      -14.933562   -1.858152    0.190475
     18          6           0      -15.406874   -0.557492   -0.078756
     19          6           0      -14.167286    0.240568   -0.294156
     20          6           0      -15.660506   -3.167839    0.581046
     21          6           0      -16.846118   -0.160205    0.096258
     22          8           0      -17.658584   -0.994105    0.400811
     23          6           0      -17.380134    1.278713   -0.037667
     24          7           0      -11.844975    2.152978   -0.932852
     25          6           0      -13.054680    2.487425   -0.840259
     26          6           0      -13.279257    3.945396   -1.002092
     27          6           0      -11.819594    4.486255   -1.268180
     28          6           0      -11.038894    3.250859   -1.141498
     29          6           0      -14.359117    4.248194   -2.095269
     30          6           0      -11.387629    5.598569   -0.204301
     31          6           0      -10.186377    6.535753   -0.583774
     32          7           0       -9.285253    0.990258   -0.381158
     33          6           0       -8.794142    2.205908   -0.821516
     34          6           0       -7.361736    2.240437   -0.716730
     35          6           0       -7.042564    0.964688   -0.132842
     36          6           0       -8.231456    0.315266    0.138068
     37          6           0       -6.438343    3.343415   -1.123100
     38          6           0       -5.960136    0.137910    0.276364
     39          8           0       -4.728223    0.255783    0.299797
     40          6           0       -6.635128   -1.048708    1.040787
     41          6           0       -5.950591   -2.293874    0.584548
     42          8           0       -4.993085   -2.827235    1.162405
     43          8           0       -6.501780   -2.720090   -0.592244
     44          6           0       -5.774002   -3.934767   -1.055669
     45          1           0      -13.037611   -3.827139    0.446172
     46          1           0      -15.096010    2.128317   -0.401036
     47          1           0       -9.161766    4.202867   -1.333555
     48          1           0       -8.101119   -3.593318    1.085265
     49          1           0      -10.734523   -4.480285    1.853222
     50          1           0      -10.291538   -5.909501    0.250157
     51          1           0       -8.925209   -4.943064   -0.230196
     52          1           0      -10.517171   -4.553488   -0.976088
     53          1           0       -9.910616   -3.256996    3.714396
     54          1           0       -8.592491   -2.253252    3.580117
     55          1           0       -7.338150   -3.712074    4.535336
     56          1           0       -7.279852   -4.858691    3.245166
     57          1           0      -16.293328   -3.095835    1.465532
     58          1           0      -14.997785   -4.025717    0.700125
     59          1           0      -16.267145   -3.456227   -0.276750
     60          1           0      -17.276654    1.684412   -1.043516
     61          1           0      -16.947800    1.975503    0.680877
     62          1           0      -18.407528    1.221586    0.323202
     63          1           0      -13.614252    4.255912   -0.012505
     64          1           0      -11.573049    4.844617   -2.267339
     65          1           0      -15.153875    4.810002   -1.605013
     66          1           0      -14.745576    3.335775   -2.549764
     67          1           0      -14.052531    4.991249   -2.831294
     68          1           0      -11.128515    5.127213    0.743977
     69          1           0      -12.281952    6.198233   -0.041359
     70          1           0      -10.314069    7.615842   -0.650500
     71          1           0       -9.813986    6.294772   -1.578502
     72          1           0       -9.360957    6.389691    0.112988
     73          1           0       -6.876239    4.163218   -1.692211
     74          1           0       -5.718558    2.762569   -1.698430
     75          1           0       -6.004267    3.587485   -0.153423
     76          1           0       -6.589672   -0.966381    2.127248
     77          1           0       -4.769443   -3.654711   -1.371130
     78          1           0       -6.171577   -4.333968   -1.988793
     79          1           0       -5.811040   -4.667652   -0.249416
     80         12           0       10.850372    0.733860   -0.278354
     81          6           0       10.421250   -2.713504   -0.304393
     82          6           0        7.283220    0.943785   -0.071215
     83          6           0       11.112886    3.967681    0.249628
     84          6           0       14.290847    0.226587    0.234998
     85          7           0        9.094751   -0.729832   -0.076584
     86          6           0        9.213762   -2.094901   -0.211490
     87          6           0        7.836982   -2.756553   -0.106785
     88          6           0        6.887624   -1.544484   -0.316160
     89          6           0        7.781254   -0.350636   -0.105310
     90          6           0        6.124409   -1.413207   -1.692403
     91          6           0        7.616879   -3.483094    1.230266
     92          6           0        6.375559   -4.284838    1.327638
     93          1           0        6.345997   -5.434948    2.405353
     94          7           0        9.395098    2.282745    0.062544
     95          6           0        7.996226    2.169281    0.082090
     96          6           0        7.446847    3.478930    0.296812
     97          6           0        8.561334    4.365864    0.532140
     98          6           0        9.782848    3.534199    0.253548
     99          6           0        5.921052    3.745740    0.417886
    100          6           0        8.381059    5.843960    0.892315
    101          8           0        7.289971    6.388213    0.855877
    102          6           0        9.568137    6.636393    1.287771
    103          7           0       12.514388    1.935254   -0.042643
    104          6           0       12.346219    3.252553    0.115208
    105          6           0       13.735817    3.931872    0.448823
    106          6           0       14.786859    2.757702    0.510761
    107          6           0       13.781832    1.504454    0.263315
    108          6           0       14.173874    5.136009   -0.425713
    109          6           0       15.441670    2.699757    1.907495
    110          6           0       16.874257    2.153288    1.935069
    111          7           0       12.177075   -0.880136   -0.067604
    112          6           0       13.540279   -0.946183    0.006175
    113          6           0       13.944195   -2.351552   -0.121351
    114          6           0       12.778089   -3.036903   -0.333178
    115          6           0       11.730751   -2.149668   -0.230497
    116          6           0       15.382897   -2.876771   -0.161777
    117          6           0       12.230961   -4.345654   -0.529275
    118          8           0       12.747968   -5.427961   -0.658494
    119          6           0       10.673740   -4.187266   -0.533513
    120          6           0       10.187305   -4.575017   -1.886094
    121          8           0       10.605675   -4.195081   -2.944425
    122          8           0        9.038283   -5.370683   -1.735786
    123          6           0        8.393473   -5.766206   -2.955509
    124          1           0        6.192878    0.907595   -0.108273
    125          1           0       11.356772    5.021503    0.402448
    126          1           0       15.362902    0.036704    0.320718
    127          1           0        7.751978   -3.402353   -0.979701
    128          1           0        6.111398   -1.411995    0.436699
    129          1           0        5.083509   -1.273073   -1.401647
    130          1           0        6.417602   -2.080277   -2.503499
    131          1           0        6.410951   -0.447566   -2.108715
    132          1           0        7.497236   -2.839400    2.102149
    133          1           0        8.473674   -4.120276    1.449636
    134          1           0        6.200294   -4.707932    0.338510
    135          1           0        5.535925   -3.612549    1.503253
    136          1           0        5.896239    3.881412    1.499595
    137          1           0        5.270783    2.886936    0.250199
    138          1           0        5.412067    4.568822   -0.084021
    139          1           0       10.064197    6.026418    2.042715
    140          1           0        9.224723    7.549559    1.774141
    141          1           0       10.123459    6.740436    0.355302
    142          1           0       13.615362    4.359492    1.444579
    143          1           0       15.545584    2.772212   -0.271043
    144          1           0       14.059632    6.042604    0.169390
    145          1           0       13.605715    5.113718   -1.355067
    146          1           0       15.245477    5.080502   -0.617143
    147          1           0       14.775719    2.072817    2.499871
    148          1           0       15.419731    3.645835    2.448751
    149          1           0       17.434891    2.967603    2.395350
    150          1           0       17.259301    1.839316    0.964801
    151          1           0       16.941720    1.304460    2.615649
    152          1           0       15.590191   -3.767374    0.430559
    153          1           0       15.945575   -2.007573    0.179619
    154          1           0       15.653482   -2.924216   -1.216709
    155          1           0       10.296787   -4.863344    0.233997
    156          1           0        8.575324   -6.835348   -3.065285
    157          1           0        8.659824   -5.268597   -3.888312
    158          1           0        7.327961   -5.572911   -2.834310
 ---------------------------------------------------------------------

 SCF Done:  E(RPBE1PBE) =  -4067.36812875     A.U. after   16 cycles

 Excitation energies and oscillator strengths:

 Excited State   1:      Singlet-A      1.7983 eV  689.45 nm  f=0.3705  <S**2>=0.000
     310 -> 315        0.16117
     312 -> 313        0.69411
     312 <- 313       -0.10897
 This state for optimization and/or second-order correction.
 Total Energy, E(TD-HF/TD-DFT) =  -4067.30204214
 Copying the excited state density for this state as the 1-particle RhoCI density.

 Excited State   2:      Singlet-A      1.8677 eV  663.85 nm  f=0.0000  <S**2>=0.000
     312 -> 314        0.70709

 Excited State   3:      Singlet-A      1.9039 eV  651.21 nm  f=0.3723  <S**2>=0.000
     309 -> 316       -0.16991
     311 -> 314        0.69270
     311 <- 314       -0.10621

 Excited State   4:      Singlet-A      1.9315 eV  641.90 nm  f=0.0000  <S**2>=0.000
     311 -> 313        0.70707

 Excited State   5:      Singlet-A      2.1990 eV  563.82 nm  f=0.1024  <S**2>=0.000
     310 -> 313        0.65391
     312 -> 315       -0.25097

 The electronic state is 1-A.
 Alpha  occ. eigenvalues --  -46.92830 -46.92629 -19.26385 -19.25466 -19.20546
 Alpha  occ. eigenvalues --  -19.19531 -19.19449 -19.18757 -19.18535 -19.18505
 Alpha  occ. eigenvalues --  -14.42019 -14.41567 -14.41550 -14.41511 -14.39783
 Alpha  occ. eigenvalues --  -14.39517 -14.38692 -14.38495 -10.36374 -10.35920
 Alpha  occ. eigenvalues --  -10.32646 -10.31603 -10.31553 -10.31288 -10.29813
 Alpha  occ. eigenvalues --  -10.29697 -10.29111 -10.29054 -10.28867 -10.28722
 Alpha  occ. eigenvalues --  -10.28377 -10.28349 -10.28315 -10.28296 -10.28236
 Alpha  occ. eigenvalues --  -10.28223 -10.28152 -10.27931 -10.27092 -10.26678
 Alpha  occ. eigenvalues --  -10.26667 -10.26562 -10.26409 -10.26197 -10.26189
 Alpha  occ. eigenvalues --  -10.26127 -10.26118 -10.25980 -10.25972 -10.25826
 Alpha  occ. eigenvalues --  -10.25810 -10.25753 -10.25712 -10.25625 -10.25535
 Alpha  occ. eigenvalues --  -10.25468 -10.25379 -10.25378 -10.25270 -10.25267
 Alpha  occ. eigenvalues --  -10.25264 -10.25188 -10.25150 -10.25025 -10.25020
 Alpha  occ. eigenvalues --  -10.24977 -10.24675 -10.24662 -10.24480 -10.24453
 Alpha  occ. eigenvalues --  -10.24388 -10.23963 -10.23933 -10.23854 -10.23812
 Alpha  occ. eigenvalues --  -10.23801 -10.23793 -10.23769 -10.23710 -10.23670
 Alpha  occ. eigenvalues --  -10.23544 -10.23460 -10.23066 -10.22978 -10.22606
 Alpha  occ. eigenvalues --  -10.21728  -3.14834  -3.14782  -1.87681  -1.87608
 Alpha  occ. eigenvalues --   -1.87212  -1.87170  -1.87043  -1.86996  -1.11221
 Alpha  occ. eigenvalues --   -1.10904  -1.06449  -1.05084  -1.04463  -1.03521
 Alpha  occ. eigenvalues --   -1.03192  -1.01719  -1.01463  -0.99118  -0.99085
 Alpha  occ. eigenvalues --   -0.98582  -0.98232  -0.98074  -0.97744  -0.97241
 Alpha  occ. eigenvalues --   -0.87548  -0.87127  -0.84135  -0.83388  -0.83278
 Alpha  occ. eigenvalues --   -0.82975  -0.82916  -0.82577  -0.82244  -0.81688
 Alpha  occ. eigenvalues --   -0.81246  -0.80841  -0.80670  -0.79970  -0.79196
 Alpha  occ. eigenvalues --   -0.78560  -0.78242  -0.78176  -0.77088  -0.76582
 Alpha  occ. eigenvalues --   -0.76576  -0.75915  -0.75479  -0.75220  -0.75018
 Alpha  occ. eigenvalues --   -0.74765  -0.72865  -0.72004  -0.71882  -0.71509
 Alpha  occ. eigenvalues --   -0.71153  -0.71018  -0.70421  -0.70337  -0.69830
 Alpha  occ. eigenvalues --   -0.69618  -0.67578  -0.67263  -0.66673  -0.66269
 Alpha  occ. eigenvalues --   -0.64932  -0.63693  -0.63562  -0.63234  -0.62633
 Alpha  occ. eigenvalues --   -0.62086  -0.62082  -0.61386  -0.60825  -0.60315
 Alpha  occ. eigenvalues --   -0.59890  -0.59845  -0.59489  -0.59212  -0.59109
 Alpha  occ. eigenvalues --   -0.58891  -0.57148  -0.57112  -0.54976  -0.54492
 Alpha  occ. eigenvalues --   -0.54338  -0.54269  -0.53786  -0.53648  -0.53437
 Alpha  occ. eigenvalues --   -0.53134  -0.52898  -0.52626  -0.52045  -0.51490
 Alpha  occ. eigenvalues --   -0.51353  -0.50888  -0.50836  -0.50349  -0.50201
 Alpha  occ. eigenvalues --   -0.49725  -0.49600  -0.49295  -0.48887  -0.48726
 Alpha  occ. eigenvalues --   -0.48412  -0.48340  -0.47929  -0.47614  -0.47603
 Alpha  occ. eigenvalues --   -0.47324  -0.47215  -0.47109  -0.46844  -0.46502
 Alpha  occ. eigenvalues --   -0.46364  -0.46331  -0.46143  -0.45975  -0.45915
 Alpha  occ. eigenvalues --   -0.45821  -0.45423  -0.45265  -0.45134  -0.44849
 Alpha  occ. eigenvalues --   -0.44813  -0.44728  -0.44672  -0.44557  -0.44321
 Alpha  occ. eigenvalues --   -0.44176  -0.43938  -0.43768  -0.43683  -0.43578
 Alpha  occ. eigenvalues --   -0.43368  -0.43155  -0.43005  -0.42636  -0.42555
 Alpha  occ. eigenvalues --   -0.42500  -0.42424  -0.42066  -0.42040  -0.41824
 Alpha  occ. eigenvalues --   -0.41730  -0.41638  -0.41590  -0.41474  -0.41100
 Alpha  occ. eigenvalues --   -0.41069  -0.40908  -0.40898  -0.40711  -0.40621
 Alpha  occ. eigenvalues --   -0.40575  -0.40347  -0.40111  -0.39942  -0.39828
 Alpha  occ. eigenvalues --   -0.39637  -0.39532  -0.39280  -0.39172  -0.39110
 Alpha  occ. eigenvalues --   -0.38967  -0.38827  -0.38756  -0.38447  -0.38383
 Alpha  occ. eigenvalues --   -0.38179  -0.38083  -0.37978  -0.37822  -0.37603
 Alpha  occ. eigenvalues --   -0.37602  -0.37504  -0.37423  -0.37124  -0.37057
 Alpha  occ. eigenvalues --   -0.36959  -0.36937  -0.36862  -0.36590  -0.36478
 Alpha  occ. eigenvalues --   -0.36294  -0.36201  -0.36190  -0.35784  -0.35288
 Alpha  occ. eigenvalues --   -0.35030  -0.34980  -0.34638  -0.34567  -0.34373
 Alpha  occ. eigenvalues --   -0.33680  -0.33542  -0.33292  -0.32829  -0.32722
 Alpha  occ. eigenvalues --   -0.32475  -0.31972  -0.31894  -0.31679  -0.31554
 Alpha  occ. eigenvalues --   -0.31312  -0.30929  -0.30249  -0.29950  -0.29365
 Alpha  occ. eigenvalues --   -0.29133  -0.29053  -0.28470  -0.27183  -0.26890
 Alpha  occ. eigenvalues --   -0.26330  -0.26153  -0.25830  -0.25596  -0.25410
 Alpha  occ. eigenvalues --   -0.25408  -0.24915  -0.24811  -0.21348  -0.21089
 Alpha  occ. eigenvalues --   -0.19067  -0.18801
 Alpha virt. eigenvalues --   -0.11370  -0.11300  -0.05379  -0.05278  -0.04051
 Alpha virt. eigenvalues --   -0.03109  -0.02323  -0.01519  -0.00856  -0.00541
 Alpha virt. eigenvalues --    0.00189   0.00565   0.00875   0.01116   0.02060

 Mulliken charges:
               1
     1  Mg  12.000670
     2  C    6.012786
     3  C    5.992591
     4  C    5.984966
     5  C    6.003102
     6  N    7.008224
     7  C    5.966431
     8  C    6.010302
     9  C    5.986281
    10  C    6.031807
    11  C    5.996956
    12  C    5.998954
    13  C    6.002133
    14  H    0.991169
    15  N    6.995325
    16  C    6.035507
    17  C    6.022329
    18  C    6.013551
    19  C    6.029262
    20  C    5.996203
    21  C    6.009160
    22  O    8.018919
    23  C    5.998387
    24  N    7.000548
    25  C    6.028905
    26  C    5.991662
    27  C    6.010071
    28  C    5.966051
    29  C    5.997337
    30  C    6.006344
    31  C    6.001353
    32  N    6.999494
    33  C    5.973238
    34  C    5.968422
    35  C    6.000203
    36  C    5.975602
    37  C    5.999139
    38  C    5.984102
    39  O    7.971062
    40  C    6.001370
    41  C    5.996172
    42  O    7.992989
    43  O    8.000976
    44  C    6.000796
    45  H    1.010284
    46  H    1.006220
    47  H    0.991661
    48  H    1.002847
    49  H    1.005192
    50  H    1.003448
    51  H    1.014990
    52  H    0.999627
    53  H    0.989401
    54  H    1.004916
    55  H    1.002064
    56  H    1.000472
    57  H    1.017273
    58  H    1.017180
    59  H    1.016922
    60  H    1.010559
    61  H    1.010990
    62  H    1.010771
    63  H    0.998072
    64  H    0.998377
    65  H    1.000024
    66  H    0.994206
    67  H    1.008793
    68  H    0.997186
    69  H    0.988167
    70  H    0.994285
    71  H    1.001511
    72  H    1.003480
    73  H    0.982817
    74  H    0.984895
    75  H    0.982901
    76  H    0.991665
    77  H    1.000006
    78  H    0.993764
    79  H    0.994184
    80  Mg  11.999767
    81  C    6.000896
    82  C    6.000079
    83  C    5.998629
    84  C    6.000150
    85  N    7.000352
    86  C    5.998692
    87  C    6.000380
    88  C    5.999586
    89  C    6.001100
    90  C    5.999746
    91  C    6.000052
    92  C    6.000023
    93  H    0.999495
    94  N    6.999588
    95  C    6.001723
    96  C    6.000852
    97  C    6.000541
    98  C    6.001756
    99  C    5.999732
   100  C    6.000499
   101  O    8.001466
   102  C    5.999932
   103  N    6.999904
   104  C    6.001592
   105  C    5.999710
   106  C    6.000258
   107  C    5.998680
   108  C    6.000008
   109  C    6.000305
   110  C    6.000159
   111  N    7.000080
   112  C    5.998300
   113  C    5.998429
   114  C    5.999842
   115  C    5.998452
   116  C    5.999973
   117  C    5.999214
   118  O    7.998308
   119  C    6.000010
   120  C    5.999781
   121  O    7.999739
   122  O    7.999919
   123  C    6.000113
   124  H    1.001676
   125  H    1.000038
   126  H    0.999153
   127  H    0.999983
   128  H    1.000651
   129  H    1.001439
   130  H    1.000411
   131  H    0.999897
   132  H    0.999715
   133  H    0.999971
   134  H    1.000037
   135  H    1.000529
   136  H    1.000825
   137  H    1.001836
   138  H    1.001459
   139  H    1.000192
   140  H    1.000451
   141  H    1.000197
   142  H    0.999814
   143  H    0.999634
   144  H    0.999784
   145  H    0.999958
   146  H    1.000036
   147  H    0.999997
   148  H    0.999330
   149  H    0.999472
   150  H    0.999960
   151  H    0.999931
   152  H    0.998916
   153  H    0.999113
   154  H    0.998874
   155  H    0.999518
   156  H    0.999531
   157  H    0.999776
   158  H    1.000083
 Sum of Mulliken charges = 624.00000

 Dipole moment (field-independent basis, Debye):
    X=             -9.8314    Y=             -3.4289    Z=              0.4901  Tot=             10.4237
 Quadrupole moment (field-independent basis, Debye-Ang):
   XX=            197.9189   YY=             -2.7175   ZZ=             -1.6580
   XY=             45.5460   XZ=             -4.3503   YZ=              2.1953

 Normal termination of Gaussian 16 at Fri Oct 15 09:07:10 2021.
