 Gaussian 16, Revision A.03,
 Gaussian 16:  ES64L-G16RevA.03 25-Dec-2016

 --------------------------------------------------------
 #p PBE1PBE/Def2SVP td=(nstates=5) density=(transition=1)
 --------------------------------------------------------

 --------------------------------
 TDDFT excited states in gaussian
 --------------------------------
 Symbolic Z-matrix:
 Charge =  0 Multiplicity = 1

                         Standard orientation:
 ---------------------------------------------------------------------
 Center     Atomic      Atomic             Coordinates (Angstroms)
 Number     Number       Type             X           Y           Z
 ---------------------------------------------------------------------
      1         12           0       25.178663   -0.735402    0.239263
      2          6           0       25.431252    2.313698   -1.513836
      3          6           0       25.143302    1.049426    3.176022
      4          6           0       25.016292   -3.598989    1.986840
      5          6           0       25.796899   -2.511047   -2.711678
      6          7           0       25.144854    1.409840    0.661258
      7          6           0       25.241047    2.495555   -0.100817
      8          6           0       25.191473    3.855311    0.626628
      9          6           0       25.395604    3.285815    2.113309
     10          6           0       25.262791    1.789298    1.970303
     11          6           0       26.713490    3.675661    2.737431
     12          6           0       23.788565    4.661032    0.447100
     13          6           0       23.944267    6.177785    0.590856
     14          1           0       23.549889    6.978767   -0.676726
     15          7           0       24.923443   -1.241334    2.320807
     16          6           0       24.987934   -0.307554    3.384519
     17          6           0       24.570594   -1.008343    4.578023
     18          6           0       24.501791   -2.362272    4.262213
     19          6           0       24.797858   -2.475485    2.799571
     20          6           0       24.485590   -0.365976    5.949730
     21          6           0       24.138627   -3.569737    5.095820
     22          8           0       24.067850   -4.647357    4.580987
     23          6           0       23.786227   -3.458102    6.545610
     24          7           0       25.569947   -2.749014   -0.226939
     25          6           0       25.363811   -3.770606    0.653731
     26          6           0       25.553064   -5.086076   -0.151551
     27          6           0       25.228775   -4.747142   -1.595465
     28          6           0       25.566064   -3.237701   -1.571047
     29          6           0       27.010594   -5.534058   -0.052753
     30          6           0       23.839045   -5.061058   -2.010333
     31          6           0       22.695752   -4.649970   -1.115920
     32          7           0       25.512958   -0.263540   -1.737685
     33          6           0       25.759903   -1.062819   -2.837981
     34          6           0       25.912804   -0.204082   -4.022593
     35          6           0       25.763911    1.106854   -3.537458
     36          6           0       25.530387    1.018027   -2.192261
     37          6           0       26.211908   -0.648620   -5.388926
     38          6           0       25.616614    2.489769   -3.904537
     39          8           0       25.639192    3.052891   -5.038270
     40          6           0       25.358904    3.313956   -2.555704
     41          6           0       26.500097    4.289739   -2.429802
     42          8           0       27.644042    3.972650   -2.569613
     43          8           0       26.135985    5.615788   -2.070719
     44          6           0       27.267591    6.488195   -1.632319
     45          1           0       25.182866    1.594333    4.120905
     46          1           0       25.069893   -4.546804    2.527169
     47          1           0       25.818570   -3.000164   -3.688039
     48          1           0       25.966373    4.516047    0.235970
     49          1           0       24.570185    3.725252    2.674741
     50          1           0       26.504758    4.539443    3.368424
     51          1           0       27.503744    3.823984    2.001191
     52          1           0       26.910722    2.873729    3.448767
     53          1           0       23.074688    4.333360    1.203455
     54          1           0       23.324307    4.414841   -0.508077
     55          1           0       24.995907    6.260856    0.865955
     56          1           0       23.410875    6.565027    1.458769
     57          1           0       24.425871    0.701455    5.740707
     58          1           0       25.470236   -0.568363    6.370207
     59          1           0       23.607317   -0.690321    6.508257
     60          1           0       22.811276   -2.979101    6.453835
     61          1           0       24.444111   -2.810699    7.124771
     62          1           0       23.726518   -4.448265    6.998700
     63          1           0       24.973532   -5.936977    0.204834
     64          1           0       25.821978   -5.273325   -2.342621
     65          1           0       27.689393   -5.355910   -0.886840
     66          1           0       27.006555   -6.605198    0.148834
     67          1           0       27.446025   -5.063892    0.829710
     68          1           0       23.713494   -6.118454   -2.244453
     69          1           0       23.722801   -4.526292   -2.952812
     70          1           0       22.167201   -3.865198   -1.657855
     71          1           0       22.827215   -4.264706   -0.104352
     72          1           0       22.002821   -5.488503   -1.048405
     73          1           0       27.240513   -1.008505   -5.409932
     74          1           0       26.023778    0.237505   -5.995031
     75          1           0       25.592172   -1.498746   -5.677238
     76          1           0       24.367256    3.747163   -2.687642
     77          1           0       27.829425    6.841435   -2.496938
     78          1           0       27.953976    5.989511   -0.946485
     79          1           0       26.988946    7.427426   -1.155366
     80         12           0      -24.893759   -0.586267   -0.493425
     81          6           0      -26.345076    2.195085    1.313819
     82          6           0      -24.056137    1.582449   -2.736735
     83          6           0      -23.884599   -3.278796   -2.104149
     84          6           0      -26.616723   -2.908223    1.708747
     85          7           0      -25.084605    1.700677   -0.599476
     86          6           0      -25.696390    2.644827    0.198740
     87          6           0      -25.578049    3.993916   -0.413492
     88          6           0      -25.284936    3.690475   -1.905348
     89          6           0      -24.815000    2.222330   -1.776096
     90          6           0      -26.516789    3.794051   -2.831146
     91          6           0      -24.360573    4.746516    0.204791
     92          6           0      -24.589543    6.260921    0.583941
     93          1           0      -23.626821    6.971849    1.616305
     94          7           0      -23.995250   -0.780070   -2.261225
     95          6           0      -23.618444    0.218820   -3.014169
     96          6           0      -22.859717   -0.316062   -4.129030
     97          6           0      -22.731964   -1.694329   -3.836210
     98          6           0      -23.579967   -1.961077   -2.706170
     99          6           0      -22.243653    0.616883   -5.187371
    100          6           0      -21.919764   -2.697744   -4.606597
    101          8           0      -21.915361   -3.846522   -4.278491
    102          6           0      -21.041859   -2.225250   -5.719214
    103          7           0      -25.484544   -2.836332   -0.342090
    104          6           0      -24.739363   -3.657296   -1.079218
    105          6           0      -24.831537   -5.062411   -0.615260
    106          6           0      -25.898773   -4.923890    0.516210
    107          6           0      -26.054513   -3.434928    0.678882
    108          6           0      -25.109277   -6.175245   -1.688903
    109          6           0      -25.441854   -5.678114    1.825511
    110          6           0      -26.118176   -7.021717    2.216353
    111          7           0      -26.157798   -0.486676    1.100149
    112          6           0      -26.726261   -1.455994    1.956490
    113          6           0      -27.476681   -0.779058    3.034303
    114          6           0      -27.321320    0.582201    2.809202
    115          6           0      -26.584720    0.741154    1.647628
    116          6           0      -28.373469   -1.487724    4.078166
    117          6           0      -27.704563    1.915067    3.376267
    118          8           0      -28.311119    2.263199    4.361690
    119          6           0      -27.224447    3.030557    2.318955
    120          6           0      -26.611800    4.135081    2.960905
    121          8           0      -25.387707    4.193853    3.143067
    122          8           0      -27.456302    5.140893    3.420427
    123          6           0      -26.857594    6.415386    3.923100
    124          1           0      -23.677037    2.210848   -3.544577
    125          1           0      -23.496371   -4.169838   -2.601728
    126          1           0      -27.132570   -3.592156    2.384464
    127          1           0      -26.542316    4.501810   -0.381586
    128          1           0      -24.531810    4.312042   -2.389267
    129          1           0      -26.355778    4.552805   -3.597536
    130          1           0      -27.362311    4.071082   -2.202192
    131          1           0      -26.800351    2.860242   -3.317443
    132          1           0      -23.588237    4.698104   -0.563057
    133          1           0      -24.042587    4.145209    1.056262
    134          1           0      -25.621399    6.362746    0.919011
    135          1           0      -24.486697    6.755084   -0.382881
    136          1           0      -21.157448    0.553741   -5.110175
    137          1           0      -22.573604    1.654795   -5.159193
    138          1           0      -22.416178    0.216106   -6.185817
    139          1           0      -20.263005   -1.545000   -5.375614
    140          1           0      -21.509343   -1.606653   -6.485225
    141          1           0      -20.513828   -3.083477   -6.135575
    142          1           0      -23.879351   -5.316775   -0.149687
    143          1           0      -26.865458   -5.260901    0.141358
    144          1           0      -25.072014   -5.678282   -2.657748
    145          1           0      -25.999631   -6.790439   -1.554171
    146          1           0      -24.311391   -6.915554   -1.628031
    147          1           0      -25.614154   -5.028586    2.684155
    148          1           0      -24.352765   -5.653128    1.788825
    149          1           0      -25.358145   -7.749551    2.499983
    150          1           0      -26.715812   -7.384085    1.379745
    151          1           0      -26.765760   -6.888020    3.083706
    152          1           0      -27.930757   -2.461109    4.287550
    153          1           0      -29.341818   -1.704824    3.626716
    154          1           0      -28.475390   -0.905655    4.994379
    155          1           0      -28.104173    3.375315    1.776313
    156          1           0      -26.315748    6.933694    3.130725
    157          1           0      -26.361862    6.273474    4.882669
    158          1           0      -27.683578    7.116343    4.042896
 ---------------------------------------------------------------------

 SCF Done:  E(RPBE1PBE) =  -4067.33995038     A.U. after   16 cycles

 Excitation energies and oscillator strengths:

 Excited State   1:      Singlet-A      1.8249 eV  679.40 nm  f=0.3553  <S**2>=0.000
     309 -> 315        0.17191
     312 -> 313        0.69448
     312 <- 313       -0.10918
 This state for optimization and/or second-order correction.
 Total Energy, E(TD-HF/TD-DFT) =  -4067.27288637
 Copying the excited state density for this state as the 1-particle RhoCI density.

 Excited State   2:      Singlet-A      1.9762 eV  627.38 nm  f=0.0000  <S**2>=0.000
     312 -> 314        0.70711

 Excited State   3:      Singlet-A      2.0225 eV  613.04 nm  f=0.0000  <S**2>=0.000
     311 -> 313        0.70711

 Excited State   4:      Singlet-A      2.1781 eV  569.23 nm  f=0.1117  <S**2>=0.000
     309 -> 313        0.65714
     312 -> 315       -0.25113

 Excited State   5:      Singlet-A      2.4048 eV  515.57 nm  f=0.0000  <S**2>=0.000
     310 -> 313        0.70711

 The electronic state is 1-A.
 Alpha  occ. eigenvalues --  -46.92847 -46.92041 -19.25189 -19.24677 -19.20265
 Alpha  occ. eigenvalues --  -19.20086 -19.19243 -19.19052 -19.18807 -19.18741
 Alpha  occ. eigenvalues --  -14.42727 -14.41201 -14.41079 -14.39749 -14.39698
 Alpha  occ. eigenvalues --  -14.39252 -14.39244 -14.38901 -10.36473 -10.35532
 Alpha  occ. eigenvalues --  -10.33344 -10.32127 -10.32072 -10.32034 -10.29354
 Alpha  occ. eigenvalues --  -10.29042 -10.28954 -10.28902 -10.28833 -10.28522
 Alpha  occ. eigenvalues --  -10.28519 -10.28519 -10.28278 -10.28017 -10.27959
 Alpha  occ. eigenvalues --  -10.27952 -10.27937 -10.27531 -10.27507 -10.27476
 Alpha  occ. eigenvalues --  -10.26733 -10.26689 -10.26669 -10.26654 -10.26488
 Alpha  occ. eigenvalues --  -10.26392 -10.26333 -10.26131 -10.26000 -10.25972
 Alpha  occ. eigenvalues --  -10.25956 -10.25838 -10.25832 -10.25767 -10.25586
 Alpha  occ. eigenvalues --  -10.25422 -10.25412 -10.25349 -10.25258 -10.24923
 Alpha  occ. eigenvalues --  -10.24911 -10.24887 -10.24692 -10.24618 -10.24592
 Alpha  occ. eigenvalues --  -10.24535 -10.24534 -10.24446 -10.23943 -10.23793
 Alpha  occ. eigenvalues --  -10.23723 -10.23722 -10.23678 -10.23670 -10.23484
 Alpha  occ. eigenvalues --  -10.23423 -10.23362 -10.23271 -10.23186 -10.23151
 Alpha  occ. eigenvalues --  -10.23085 -10.23025 -10.22826 -10.22587 -10.22421
 Alpha  occ. eigenvalues --  -10.21917  -3.14950  -3.14118  -1.87776  -1.87330
 Alpha  occ. eigenvalues --   -1.87175  -1.86982  -1.86469  -1.86358  -1.10379
 Alpha  occ. eigenvalues --   -1.08972  -1.06715  -1.06643  -1.05827  -1.02252
 Alpha  occ. eigenvalues --   -1.01580  -1.00915  -1.00508  -0.99842  -0.99628
 Alpha  occ. eigenvalues --   -0.99491  -0.97985  -0.97850  -0.96427  -0.95940
 Alpha  occ. eigenvalues --   -0.87428  -0.85720  -0.84273  -0.83730  -0.83556
 Alpha  occ. eigenvalues --   -0.83258  -0.83003  -0.82309  -0.82005  -0.81984
 Alpha  occ. eigenvalues --   -0.81794  -0.81308  -0.80810  -0.79743  -0.78904
 Alpha  occ. eigenvalues --   -0.78672  -0.77913  -0.77405  -0.76836  -0.76574
 Alpha  occ. eigenvalues --   -0.76340  -0.76068  -0.75511  -0.75332  -0.74732
 Alpha  occ. eigenvalues --   -0.74237  -0.72995  -0.72949  -0.71685  -0.71515
 Alpha  occ. eigenvalues --   -0.71469  -0.71086  -0.70590  -0.70526  -0.69754
 Alpha  occ. eigenvalues --   -0.69347  -0.67380  -0.67019  -0.65765  -0.65549
 Alpha  occ. eigenvalues --   -0.64065  -0.63531  -0.63306  -0.63230  -0.62416
 Alpha  occ. eigenvalues --   -0.62316  -0.61702  -0.61412  -0.60497  -0.60214
 Alpha  occ. eigenvalues --   -0.60087  -0.59617  -0.59453  -0.58844  -0.58839
 Alpha  occ. eigenvalues --   -0.57906  -0.56403  -0.55900  -0.55656  -0.54780
 Alpha  occ. eigenvalues --   -0.54702  -0.54469  -0.53769  -0.53674  -0.53628
 Alpha  occ. eigenvalues --   -0.53083  -0.52579  -0.52298  -0.52215  -0.51811
 Alpha  occ. eigenvalues --   -0.51071  -0.50926  -0.50344  -0.50340  -0.50136
 Alpha  occ. eigenvalues --   -0.49254  -0.49079  -0.48662  -0.48578  -0.48508
 Alpha  occ. eigenvalues --   -0.48455  -0.48120  -0.47954  -0.47945  -0.47709
 Alpha  occ. eigenvalues --   -0.47380  -0.47134  -0.47121  -0.47019  -0.46672
 Alpha  occ. eigenvalues --   -0.46532  -0.46370  -0.46053  -0.45987  -0.45958
 Alpha  occ. eigenvalues --   -0.45487  -0.45367  -0.44973  -0.44937  -0.44747
 Alpha  occ. eigenvalues --   -0.44644  -0.44617  -0.44464  -0.44312  -0.44305
 Alpha  occ. eigenvalues --   -0.44049  -0.43973  -0.43868  -0.43854  -0.43731
 Alpha  occ. eigenvalues --   -0.43555  -0.43399  -0.43033  -0.43014  -0.42843
 Alpha  occ. eigenvalues --   -0.42506  -0.42404  -0.42386  -0.42245  -0.42197
 Alpha  occ. eigenvalues --   -0.42129  -0.41938  -0.41454  -0.41150  -0.41072
 Alpha  occ. eigenvalues --   -0.40963  -0.40770  -0.40613  -0.40437  -0.40393
 Alpha  occ. eigenvalues --   -0.40246  -0.40155  -0.40018  -0.39689  -0.39635
 Alpha  occ. eigenvalues --   -0.39620  -0.39406  -0.39135  -0.39091  -0.38878
 Alpha  occ. eigenvalues --   -0.38812  -0.38581  -0.38405  -0.38278  -0.38194
 Alpha  occ. eigenvalues --   -0.38031  -0.37960  -0.37847  -0.37678  -0.37656
 Alpha  occ. eigenvalues --   -0.37333  -0.37332  -0.37295  -0.37170  -0.36749
 Alpha  occ. eigenvalues --   -0.36698  -0.36414  -0.36246  -0.35928  -0.35894
 Alpha  occ. eigenvalues --   -0.35839  -0.35443  -0.35315  -0.35279  -0.35211
 Alpha  occ. eigenvalues --   -0.35122  -0.34859  -0.34787  -0.34718  -0.34460
 Alpha  occ. eigenvalues --   -0.33308  -0.33300  -0.32711  -0.32673  -0.32353
 Alpha  occ. eigenvalues --   -0.32118  -0.32076  -0.31562  -0.31461  -0.31228
 Alpha  occ. eigenvalues --   -0.31199  -0.30708  -0.29823  -0.29545  -0.28821
 Alpha  occ. eigenvalues --   -0.28813  -0.28366  -0.27724  -0.27259  -0.27136
 Alpha  occ. eigenvalues --   -0.26591  -0.26154  -0.26035  -0.25993  -0.25593
 Alpha  occ. eigenvalues --   -0.25514  -0.25307  -0.25267  -0.21039  -0.20545
 Alpha  occ. eigenvalues --   -0.19137  -0.18969
 Alpha virt. eigenvalues --   -0.11445  -0.11445  -0.05259  -0.04043  -0.03826
 Alpha virt. eigenvalues --   -0.03338  -0.02242  -0.01819  -0.00492  -0.00071
 Alpha virt. eigenvalues --    0.00028   0.00725   0.00926   0.01015   0.01339

 Mulliken charges:
               1
     1  Mg  12.004466
     2  C    5.982643
     3  C    6.012019
     4  C    6.014024
     5  C    5.990140
     6  N    6.988819
     7  C    6.038273
     8  C    5.986269
     9  C    6.016449
    10  C    5.962606
    11  C    6.003479
    12  C    5.998934
    13  C    5.999808
    14  H    0.996594
    15  N    7.007006
    16  C    5.957416
    17  C    5.987715
    18  C    5.978904
    19  C    5.972967
    20  C    6.000430
    21  C    5.988568
    22  O    7.971774
    23  C    6.002595
    24  N    7.000838
    25  C    5.973942
    26  C    6.003329
    27  C    5.996018
    28  C    6.027298
    29  C    5.998350
    30  C    5.993991
    31  C    6.000359
    32  N    7.002080
    33  C    6.037594
    34  C    6.032650
    35  C    6.000154
    36  C    6.026298
    37  C    5.999462
    38  C    6.013519
    39  O    8.029041
    40  C    6.003229
    41  C    6.005462
    42  O    8.002128
    43  O    8.002764
    44  C    5.997917
    45  H    0.989660
    46  H    0.995624
    47  H    1.007806
    48  H    0.997778
    49  H    0.994577
    50  H    0.992133
    51  H    0.986400
    52  H    1.005721
    53  H    1.010659
    54  H    0.994030
    55  H    1.002830
    56  H    1.005287
    57  H    0.985917
    58  H    0.985771
    59  H    0.986344
    60  H    0.992469
    61  H    0.992931
    62  H    0.986365
    63  H    1.001261
    64  H    1.000410
    65  H    0.988710
    66  H    0.998541
    67  H    1.006371
    68  H    1.007033
    69  H    0.993648
    70  H    0.994077
    71  H    1.015261
    72  H    1.002734
    73  H    1.020931
    74  H    1.012743
    75  H    1.019402
    76  H    1.005924
    77  H    1.001479
    78  H    1.005320
    79  H    1.005528
    80  Mg  12.000022
    81  C    5.999968
    82  C    5.999932
    83  C    6.000036
    84  C    6.000047
    85  N    6.999958
    86  C    6.000077
    87  C    5.999987
    88  C    6.000022
    89  C    5.999952
    90  C    6.000020
    91  C    5.999990
    92  C    5.999993
    93  H    1.000021
    94  N    7.000023
    95  C    5.999943
    96  C    5.999927
    97  C    5.999987
    98  C    5.999908
    99  C    6.000017
   100  C    5.999945
   101  O    7.999940
   102  C    6.000019
   103  N    7.000008
   104  C    5.999909
   105  C    6.000047
   106  C    5.999962
   107  C    6.000029
   108  C    6.000003
   109  C    5.999986
   110  C    6.000002
   111  N    7.000001
   112  C    6.000089
   113  C    6.000103
   114  C    5.999977
   115  C    6.000080
   116  C    5.999996
   117  C    6.000084
   118  O    8.000082
   119  C    5.999993
   120  C    6.000019
   121  O    8.000033
   122  O    7.999998
   123  C    5.999991
   124  H    0.999951
   125  H    0.999984
   126  H    1.000040
   127  H    0.999985
   128  H    0.999984
   129  H    0.999969
   130  H    0.999952
   131  H    1.000000
   132  H    1.000038
   133  H    1.000004
   134  H    0.999988
   135  H    1.000000
   136  H    0.999926
   137  H    0.999935
   138  H    0.999918
   139  H    0.999974
   140  H    0.999959
   141  H    0.999937
   142  H    1.000010
   143  H    1.000007
   144  H    1.000001
   145  H    0.999974
   146  H    1.000003
   147  H    0.999992
   148  H    1.000039
   149  H    1.000033
   150  H    1.000000
   151  H    1.000000
   152  H    1.000071
   153  H    1.000070
   154  H    1.000069
   155  H    1.000019
   156  H    1.000010
   157  H    1.000025
   158  H    1.000009
 Sum of Mulliken charges = 624.00000

 Dipole moment (field-independent basis, Debye):
    X=              1.1790    Y=              2.5061    Z=             -9.7477  Tot=             10.1335
 Quadrupole moment (field-independent basis, Debye-Ang):
   XX=             61.3073   YY=             -1.3183   ZZ=             -6.2571
   XY=             61.9674   XZ=           -247.1782   YZ=              7.2781

 Normal termination of Gaussian 16 at Wed Oct 13 21:46:48 2021.
