 Gaussian 16, Revision A.03,
 Gaussian 16:  ES64L-G16RevA.03 25-Dec-2016

 --------------------------------------------------------
 #p PBE1PBE/Def2SVP td=(nstates=5) density=(transition=1)
 --------------------------------------------------------

 --------------------------------
 TDDFT excited states in gaussian
 --------------------------------
 Symbolic Z-matrix:
 Charge =  0 Multiplicity = 1

                         Standard orientation:
 ---------------------------------------------------------------------
 Center     Atomic      Atomic             Coordinates (Angstroms)
 Number     Number       Type             X           Y           Z
 ---------------------------------------------------------------------
      1         12           0       26.381113   -0.901102    0.209728
      2          6           0       27.136369    2.427579   -0.935556
      3          6           0       25.345256    0.519104    3.136136
      4          6           0       25.968125   -4.018735    1.376464
      5          6           0       27.906398   -2.102038   -2.579970
      6          7           0       26.213703    1.337694    0.995488
      7          6           0       26.552829    2.456680    0.291713
      8          6           0       26.092385    3.624265    1.079163
      9          6           0       25.641876    3.043776    2.448265
     10          6           0       25.759604    1.505122    2.271742
     11          6           0       26.551391    3.538041    3.617856
     12          6           0       25.039912    4.485253    0.426666
     13          6           0       24.683624    5.823849    1.052895
     14          1           0       24.662038    6.991021    0.157813
     15          7           0       25.649786   -1.630795    1.941501
     16          6           0       25.355759   -0.869595    3.106366
     17          6           0       24.780245   -1.809805    4.086367
     18          6           0       25.053161   -3.084788    3.597657
     19          6           0       25.649375   -2.947348    2.256466
     20          6           0       24.223492   -1.323054    5.407956
     21          6           0       24.740834   -4.464412    4.216537
     22          8           0       25.223878   -5.537606    3.809542
     23          6           0       23.786155   -4.489546    5.339613
     24          7           0       26.923781   -2.835939   -0.462010
     25          6           0       26.659431   -3.979046    0.136766
     26          6           0       27.181335   -5.218696   -0.640377
     27          6           0       27.552676   -4.577134   -1.979109
     28          6           0       27.414298   -3.102013   -1.679789
     29          6           0       28.405520   -5.877160    0.080850
     30          6           0       26.743427   -4.995820   -3.185840
     31          6           0       27.526440   -5.259676   -4.484256
     32          7           0       27.233503   -0.025178   -1.446127
     33          6           0       27.809351   -0.672961   -2.517128
     34          6           0       28.269060    0.297394   -3.556041
     35          6           0       28.010620    1.480618   -2.893872
     36          6           0       27.447465    1.265070   -1.630270
     37          6           0       28.717383    0.023902   -4.955758
     38          6           0       28.127728    2.922129   -3.057597
     39          8           0       28.532757    3.532693   -4.040383
     40          6           0       27.564730    3.617094   -1.796682
     41          6           0       28.566954    4.558218   -1.366150
     42          8           0       29.636423    4.298484   -0.763740
     43          8           0       28.125750    5.833428   -1.549579
     44          6           0       28.860404    6.917675   -0.935257
     45          1           0       24.930879    0.962377    4.043738
     46          1           0       25.989650   -5.019494    1.812542
     47          1           0       28.570891   -2.576645   -3.304726
     48          1           0       27.007952    4.199518    1.210336
     49          1           0       24.618369    3.321111    2.701090
     50          1           0       26.163624    3.980730    4.535876
     51          1           0       27.181680    4.298830    3.157653
     52          1           0       27.309510    2.826490    3.946143
     53          1           0       24.070396    3.986857    0.421570
     54          1           0       25.164407    4.531498   -0.654859
     55          1           0       25.389545    6.079577    1.841652
     56          1           0       23.622132    5.753313    1.288873
     57          1           0       24.556659   -1.896410    6.272785
     58          1           0       23.134837   -1.289567    5.445402
     59          1           0       24.535809   -0.318801    5.695435
     60          1           0       22.891691   -3.941665    5.042859
     61          1           0       24.328456   -3.948602    6.114324
     62          1           0       23.489705   -5.530217    5.465580
     63          1           0       26.333913   -5.899857   -0.725022
     64          1           0       28.589031   -4.692819   -2.295131
     65          1           0       29.323066   -5.755123   -0.493991
     66          1           0       28.272141   -6.954097    0.183535
     67          1           0       28.493326   -5.352964    1.032606
     68          1           0       25.951783   -4.281582   -3.410017
     69          1           0       26.103286   -5.791754   -2.806685
     70          1           0       26.949707   -5.987957   -5.053588
     71          1           0       28.572144   -5.514407   -4.309135
     72          1           0       27.518910   -4.267654   -4.935360
     73          1           0       27.952087    0.194827   -5.713093
     74          1           0       29.166945   -0.968096   -4.922244
     75          1           0       29.623500    0.596329   -5.158051
     76          1           0       26.760076    4.247640   -2.174786
     77          1           0       29.663878    6.602637   -0.268930
     78          1           0       28.179358    7.619372   -0.454473
     79          1           0       29.352131    7.548923   -1.675876
     80         12           0      -27.192488   -0.555077   -0.413803
     81          6           0      -25.583302    2.610775   -0.459752
     82          6           0      -28.701913    0.529604    2.595701
     83          6           0      -28.454274   -3.541367   -0.047319
     84          6           0      -25.354396   -1.470404   -3.220970
     85          7           0      -27.139355    1.389869    0.949249
     86          6           0      -26.470150    2.539115    0.606481
     87          6           0      -26.761926    3.702053    1.539631
     88          6           0      -27.679126    2.945108    2.593207
     89          6           0      -27.896471    1.541939    2.006223
     90          6           0      -27.088750    3.036209    3.997262
     91          6           0      -27.493521    4.836150    0.788552
     92          6           0      -27.170675    6.329006    1.178004
     93          1           0      -26.532390    6.599485    2.560843
     94          7           0      -28.478709   -1.384491    1.028933
     95          6           0      -28.908947   -0.795699    2.218356
     96          6           0      -29.771294   -1.760545    2.918887
     97          6           0      -29.782796   -2.930607    2.091528
     98          6           0      -28.906514   -2.602399    0.950726
     99          6           0      -30.354602   -1.507557    4.205058
    100          6           0      -30.512037   -4.250247    2.322857
    101          8           0      -30.346620   -5.214986    1.559531
    102          6           0      -31.565276   -4.360952    3.354239
    103          7           0      -26.858832   -2.299261   -1.426635
    104          6           0      -27.585550   -3.383422   -1.143140
    105          6           0      -27.191925   -4.581328   -2.067238
    106          6           0      -26.364519   -3.856856   -3.176055
    107          6           0      -26.145064   -2.487314   -2.614005
    108          6           0      -26.468440   -5.761447   -1.324038
    109          6           0      -27.311729   -3.814186   -4.435494
    110          6           0      -28.220212   -2.564435   -4.700354
    111          7           0      -25.844956    0.364779   -1.679319
    112          6           0      -25.163729   -0.162815   -2.791201
    113          6           0      -24.229052    0.872806   -3.297402
    114          6           0      -24.338406    1.913298   -2.382285
    115          6           0      -25.311611    1.634657   -1.446108
    116          6           0      -23.248024    0.540843   -4.316130
    117          6           0      -23.703918    3.179186   -2.023125
    118          8           0      -22.758683    3.731277   -2.574875
    119          6           0      -24.474884    3.695268   -0.718866
    120          6           0      -23.539795    3.889384    0.415884
    121          8           0      -23.286290    3.070257    1.294454
    122          8           0      -22.992585    5.184297    0.342108
    123          6           0      -21.998566    5.639896    1.287453
    124          1           0      -29.389712    0.859828    3.377450
    125          1           0      -28.857719   -4.555157    0.004349
    126          1           0      -24.871405   -1.857602   -4.120229
    127          1           0      -25.861299    4.104113    2.004378
    128          1           0      -28.590466    3.537223    2.672030
    129          1           0      -27.756973    3.451455    4.750867
    130          1           0      -26.152680    3.586908    4.090335
    131          1           0      -26.934020    2.009563    4.331814
    132          1           0      -28.574247    4.716505    0.863864
    133          1           0      -27.201499    4.610546   -0.237671
    134          1           0      -28.089187    6.912374    1.232805
    135          1           0      -26.692974    6.753219    0.294872
    136          1           0      -31.420737   -1.709677    4.100068
    137          1           0      -30.003617   -0.560270    4.613259
    138          1           0      -29.815455   -2.241152    4.805272
    139          1           0      -31.177797   -4.370243    4.373448
    140          1           0      -32.092715   -5.306663    3.231056
    141          1           0      -32.165869   -3.452897    3.309585
    142          1           0      -28.198125   -4.890237   -2.350596
    143          1           0      -25.468817   -4.416845   -3.445989
    144          1           0      -27.189162   -6.537861   -1.067099
    145          1           0      -25.931542   -5.319152   -0.485483
    146          1           0      -25.739221   -6.154972   -2.031994
    147          1           0      -27.825775   -4.770900   -4.530153
    148          1           0      -26.612841   -3.652738   -5.256759
    149          1           0      -29.173991   -3.006566   -4.986859
    150          1           0      -27.869986   -1.950275   -5.530963
    151          1           0      -28.412728   -1.919909   -3.843351
    152          1           0      -22.750970   -0.384832   -4.028837
    153          1           0      -22.507818    1.341498   -4.302807
    154          1           0      -23.682240    0.605209   -5.313467
    155          1           0      -24.867680    4.663726   -1.030093
    156          1           0      -20.976269    5.533965    0.925245
    157          1           0      -22.224165    5.297828    2.297614
    158          1           0      -22.277747    6.689865    1.379866
 ---------------------------------------------------------------------

 SCF Done:  E(RPBE1PBE) =  -4067.38646211     A.U. after   16 cycles

 Excitation energies and oscillator strengths:

 Excited State   1:      Singlet-A      1.8853 eV  657.62 nm  f=0.3612  <S**2>=0.000
     310 -> 316        0.18501
     312 -> 313        0.68870
     312 <- 313       -0.10057
 This state for optimization and/or second-order correction.
 Total Energy, E(TD-HF/TD-DFT) =  -4067.31717724
 Copying the excited state density for this state as the 1-particle RhoCI density.

 Excited State   2:      Singlet-A      1.9171 eV  646.72 nm  f=0.3710  <S**2>=0.000
     309 -> 315       -0.19069
     311 -> 314        0.68791

 Excited State   3:      Singlet-A      2.0456 eV  606.11 nm  f=0.0000  <S**2>=0.000
     312 -> 314        0.70711

 Excited State   4:      Singlet-A      2.0856 eV  594.48 nm  f=0.0000  <S**2>=0.000
     311 -> 313        0.70711

 Excited State   5:      Singlet-A      2.2635 eV  547.74 nm  f=0.0749  <S**2>=0.000
     310 -> 313        0.63958
     312 -> 316       -0.29067

 The electronic state is 1-A.
 Alpha  occ. eigenvalues --  -46.91926 -46.91897 -19.25815 -19.24666 -19.20095
 Alpha  occ. eigenvalues --  -19.19669 -19.19210 -19.19084 -19.18853 -19.18826
 Alpha  occ. eigenvalues --  -14.41453 -14.41404 -14.40994 -14.40614 -14.39419
 Alpha  occ. eigenvalues --  -14.39257 -14.39217 -14.38731 -10.36469 -10.36117
 Alpha  occ. eigenvalues --  -10.32649 -10.32328 -10.32268 -10.31641 -10.28700
 Alpha  occ. eigenvalues --  -10.28563 -10.28453 -10.28433 -10.28417 -10.28400
 Alpha  occ. eigenvalues --  -10.28256 -10.28212 -10.28145 -10.28122 -10.28041
 Alpha  occ. eigenvalues --  -10.28037 -10.27876 -10.27814 -10.27785 -10.27151
 Alpha  occ. eigenvalues --  -10.26763 -10.26633 -10.26551 -10.26366 -10.26184
 Alpha  occ. eigenvalues --  -10.26121 -10.26075 -10.25905 -10.25822 -10.25815
 Alpha  occ. eigenvalues --  -10.25770 -10.25582 -10.25490 -10.25379 -10.25137
 Alpha  occ. eigenvalues --  -10.25122 -10.25034 -10.25026 -10.25010 -10.24991
 Alpha  occ. eigenvalues --  -10.24960 -10.24942 -10.24918 -10.24786 -10.24690
 Alpha  occ. eigenvalues --  -10.24677 -10.24495 -10.24448 -10.24268 -10.24140
 Alpha  occ. eigenvalues --  -10.23869 -10.23674 -10.23663 -10.23589 -10.23484
 Alpha  occ. eigenvalues --  -10.23477 -10.23407 -10.23320 -10.23266 -10.23172
 Alpha  occ. eigenvalues --  -10.23149 -10.22785 -10.22744 -10.22710 -10.22582
 Alpha  occ. eigenvalues --  -10.22346  -3.14080  -3.14051  -1.86930  -1.86899
 Alpha  occ. eigenvalues --   -1.86446  -1.86438  -1.86316  -1.86260  -1.10886
 Alpha  occ. eigenvalues --   -1.09404  -1.04520  -1.04226  -1.03782  -1.03716
 Alpha  occ. eigenvalues --   -1.02070  -1.00738  -1.00430  -0.99311  -0.99294
 Alpha  occ. eigenvalues --   -0.98609  -0.97780  -0.97676  -0.96808  -0.96199
 Alpha  occ. eigenvalues --   -0.87551  -0.86392  -0.84424  -0.83970  -0.83580
 Alpha  occ. eigenvalues --   -0.82930  -0.82777  -0.82747  -0.81862  -0.81606
 Alpha  occ. eigenvalues --   -0.81391  -0.81132  -0.80973  -0.80648  -0.78980
 Alpha  occ. eigenvalues --   -0.78350  -0.78337  -0.77632  -0.77212  -0.76745
 Alpha  occ. eigenvalues --   -0.76695  -0.76268  -0.75589  -0.75273  -0.75205
 Alpha  occ. eigenvalues --   -0.74831  -0.73102  -0.72936  -0.72034  -0.71760
 Alpha  occ. eigenvalues --   -0.71481  -0.71215  -0.70872  -0.70104  -0.69603
 Alpha  occ. eigenvalues --   -0.69147  -0.67465  -0.66646  -0.66409  -0.65777
 Alpha  occ. eigenvalues --   -0.63927  -0.63667  -0.63651  -0.63220  -0.62496
 Alpha  occ. eigenvalues --   -0.62372  -0.61055  -0.60935  -0.60852  -0.59849
 Alpha  occ. eigenvalues --   -0.59655  -0.59360  -0.59207  -0.59118  -0.59016
 Alpha  occ. eigenvalues --   -0.58786  -0.57141  -0.56135  -0.54923  -0.54779
 Alpha  occ. eigenvalues --   -0.54501  -0.54062  -0.53943  -0.53591  -0.53403
 Alpha  occ. eigenvalues --   -0.52854  -0.52592  -0.52470  -0.52230  -0.51768
 Alpha  occ. eigenvalues --   -0.51060  -0.50837  -0.50253  -0.50092  -0.50086
 Alpha  occ. eigenvalues --   -0.49804  -0.48967  -0.48824  -0.48571  -0.48442
 Alpha  occ. eigenvalues --   -0.48441  -0.48204  -0.47941  -0.47822  -0.47745
 Alpha  occ. eigenvalues --   -0.47722  -0.47466  -0.47369  -0.46911  -0.46647
 Alpha  occ. eigenvalues --   -0.46490  -0.46340  -0.46231  -0.46179  -0.45988
 Alpha  occ. eigenvalues --   -0.45793  -0.45421  -0.45344  -0.45163  -0.45035
 Alpha  occ. eigenvalues --   -0.44869  -0.44590  -0.44477  -0.44326  -0.44240
 Alpha  occ. eigenvalues --   -0.44098  -0.43677  -0.43635  -0.43470  -0.43280
 Alpha  occ. eigenvalues --   -0.43129  -0.43029  -0.42993  -0.42992  -0.42700
 Alpha  occ. eigenvalues --   -0.42571  -0.42393  -0.42243  -0.42076  -0.42017
 Alpha  occ. eigenvalues --   -0.41901  -0.41705  -0.41650  -0.41290  -0.41280
 Alpha  occ. eigenvalues --   -0.40962  -0.40921  -0.40847  -0.40765  -0.40388
 Alpha  occ. eigenvalues --   -0.40213  -0.39953  -0.39876  -0.39742  -0.39413
 Alpha  occ. eigenvalues --   -0.39329  -0.39077  -0.38984  -0.38820  -0.38771
 Alpha  occ. eigenvalues --   -0.38766  -0.38561  -0.38511  -0.38494  -0.38242
 Alpha  occ. eigenvalues --   -0.38170  -0.38122  -0.38027  -0.37766  -0.37524
 Alpha  occ. eigenvalues --   -0.37347  -0.37207  -0.36919  -0.36822  -0.36669
 Alpha  occ. eigenvalues --   -0.36590  -0.36464  -0.36373  -0.36076  -0.36067
 Alpha  occ. eigenvalues --   -0.35981  -0.35926  -0.35739  -0.35430  -0.35221
 Alpha  occ. eigenvalues --   -0.35040  -0.34897  -0.34827  -0.34234  -0.33738
 Alpha  occ. eigenvalues --   -0.33465  -0.32913  -0.32725  -0.32433  -0.32160
 Alpha  occ. eigenvalues --   -0.32123  -0.31721  -0.31066  -0.31053  -0.30988
 Alpha  occ. eigenvalues --   -0.30748  -0.30591  -0.29300  -0.29085  -0.29071
 Alpha  occ. eigenvalues --   -0.28704  -0.28577  -0.28184  -0.27167  -0.26621
 Alpha  occ. eigenvalues --   -0.26196  -0.25875  -0.25867  -0.25788  -0.25738
 Alpha  occ. eigenvalues --   -0.25686  -0.25401  -0.25127  -0.21007  -0.20785
 Alpha  occ. eigenvalues --   -0.18604  -0.18458
 Alpha virt. eigenvalues --   -0.10694  -0.10693  -0.05238  -0.05180  -0.03996
 Alpha virt. eigenvalues --   -0.03504  -0.02201  -0.01915  -0.00128   0.00241
 Alpha virt. eigenvalues --    0.00384   0.00522   0.01068   0.01449   0.01603

 Mulliken charges:
               1
     1  Mg  12.000017
     2  C    6.000025
     3  C    5.999982
     4  C    6.000006
     5  C    6.000028
     6  N    7.000006
     7  C    6.000016
     8  C    5.999983
     9  C    6.000024
    10  C    5.999969
    11  C    6.000016
    12  C    5.999986
    13  C    5.999996
    14  H    1.000016
    15  N    6.999997
    16  C    5.999957
    17  C    5.999979
    18  C    5.999989
    19  C    5.999958
    20  C    6.000012
    21  C    5.999961
    22  O    7.999948
    23  C    6.000000
    24  N    6.999974
    25  C    5.999982
    26  C    6.000006
    27  C    5.999999
    28  C    6.000036
    29  C    6.000003
    30  C    5.999980
    31  C    5.999993
    32  N    7.000011
    33  C    6.000049
    34  C    6.000035
    35  C    5.999974
    36  C    6.000036
    37  C    5.999999
    38  C    6.000060
    39  O    8.000046
    40  C    5.999980
    41  C    6.000004
    42  O    7.999994
    43  O    8.000010
    44  C    5.999999
    45  H    0.999985
    46  H    0.999985
    47  H    1.000006
    48  H    0.999983
    49  H    1.000012
    50  H    0.999991
    51  H    0.999970
    52  H    0.999978
    53  H    1.000036
    54  H    0.999999
    55  H    0.999986
    56  H    1.000029
    57  H    0.999949
    58  H    0.999986
    59  H    0.999968
    60  H    1.000011
    61  H    0.999974
    62  H    0.999967
    63  H    1.000010
    64  H    0.999985
    65  H    0.999968
    66  H    0.999986
    67  H    1.000000
    68  H    1.000028
    69  H    1.000029
    70  H    1.000020
    71  H    0.999986
    72  H    0.999999
    73  H    1.000059
    74  H    1.000012
    75  H    1.000017
    76  H    1.000032
    77  H    0.999989
    78  H    1.000021
    79  H    1.000001
    80  Mg  11.997997
    81  C    6.019144
    82  C    5.997809
    83  C    5.971842
    84  C    6.007144
    85  N    7.009689
    86  C    5.972868
    87  C    6.014669
    88  C    5.986406
    89  C    6.028432
    90  C    5.999994
    91  C    6.001305
    92  C    6.000993
    93  H    0.995524
    94  N    6.992532
    95  C    6.039659
    96  C    6.017446
    97  C    6.017667
    98  C    6.026997
    99  C    5.995691
   100  C    6.013237
   101  O    8.030432
   102  C    5.995201
   103  N    6.991581
   104  C    6.035735
   105  C    5.996750
   106  C    6.009856
   107  C    5.970892
   108  C    5.997048
   109  C    6.001341
   110  C    6.006805
   111  N    7.003600
   112  C    5.968485
   113  C    5.962791
   114  C    6.003958
   115  C    5.967891
   116  C    6.003493
   117  C    5.982944
   118  O    7.976326
   119  C    5.996897
   120  C    5.998321
   121  O    7.990895
   122  O    8.000139
   123  C    6.003067
   124  H    1.011810
   125  H    1.002658
   126  H    0.989323
   127  H    0.999420
   128  H    1.004591
   129  H    1.002439
   130  H    1.012521
   131  H    0.996213
   132  H    0.991007
   133  H    1.007423
   134  H    0.997007
   135  H    1.004053
   136  H    1.016342
   137  H    1.014676
   138  H    1.017149
   139  H    1.008269
   140  H    1.013838
   141  H    1.004908
   142  H    0.995073
   143  H    0.996670
   144  H    0.996084
   145  H    0.999964
   146  H    1.008938
   147  H    0.988812
   148  H    1.000879
   149  H    0.990425
   150  H    1.002768
   151  H    0.995755
   152  H    0.981534
   153  H    0.985972
   154  H    0.980098
   155  H    0.992992
   156  H    0.998825
   157  H    0.994164
   158  H    0.995903
 Sum of Mulliken charges = 624.00000

 Dipole moment (field-independent basis, Debye):
    X=             -6.4725    Y=             -3.5530    Z=              6.8198  Tot=             10.0513
 Quadrupole moment (field-independent basis, Debye-Ang):
   XX=            349.2992   YY=              3.2119   ZZ=             -2.9371
   XY=             99.3604   XZ=           -185.4161   YZ=             -5.0042

 Normal termination of Gaussian 16 at Fri Oct 15 04:40:03 2021.
