 Gaussian 16, Revision A.03,
 Gaussian 16:  ES64L-G16RevA.03 25-Dec-2016

 --------------------------------------------------------
 #p PBE1PBE/Def2SVP td=(nstates=5) density=(transition=1)
 --------------------------------------------------------

 --------------------------------
 TDDFT excited states in gaussian
 --------------------------------
 Symbolic Z-matrix:
 Charge =  0 Multiplicity = 1

                         Standard orientation:
 ---------------------------------------------------------------------
 Center     Atomic      Atomic             Coordinates (Angstroms)
 Number     Number       Type             X           Y           Z
 ---------------------------------------------------------------------
      1         12           0       13.371634   -0.662739    0.265712
      2          6           0       12.382063    2.282432   -1.593075
      3          6           0       15.400432    1.282804    1.858265
      4          6           0       14.327420   -3.498918    1.645968
      5          6           0       11.655821   -2.760275   -2.156264
      6          7           0       13.731799    1.605232    0.199559
      7          6           0       13.260584    2.622836   -0.603738
      8          6           0       13.915740    3.908250   -0.246866
      9          6           0       15.199282    3.465359    0.501461
     10          6           0       14.797628    2.013375    0.852758
     11          6           0       16.480254    3.488170   -0.361028
     12          6           0       13.003300    4.709218    0.731311
     13          6           0       12.851890    6.253536    0.445366
     14          1           0       11.628585    7.052953    1.047432
     15          7           0       14.727960   -1.025259    1.679556
     16          6           0       15.401333   -0.102939    2.314051
     17          6           0       16.158533   -0.743372    3.372906
     18          6           0       15.721751   -2.088892    3.350904
     19          6           0       14.909738   -2.244713    2.174635
     20          6           0       17.036112    0.083578    4.329992
     21          6           0       16.096529   -3.163903    4.332688
     22          8           0       15.686473   -4.277028    4.190667
     23          6           0       16.900262   -2.801759    5.538817
     24          7           0       13.225865   -2.885864   -0.420718
     25          6           0       13.606905   -3.775783    0.493331
     26          6           0       13.078040   -5.130954    0.207124
     27          6           0       12.371020   -4.882055   -1.162758
     28          6           0       12.397502   -3.383651   -1.310431
     29          6           0       14.082914   -6.337788    0.252154
     30          6           0       10.924115   -5.512984   -1.179815
     31          6           0       10.659154   -6.810827   -1.992734
     32          7           0       12.289939   -0.408464   -1.440884
     33          6           0       11.583993   -1.290730   -2.288997
     34          6           0       10.871304   -0.512366   -3.323057
     35          6           0       11.150888    0.821132   -3.055753
     36          6           0       12.019433    0.867241   -1.978440
     37          6           0       10.117977   -1.115973   -4.533116
     38          6           0       10.856858    2.203023   -3.554644
     39          8           0       10.155951    2.644678   -4.434322
     40          6           0       11.793448    3.212493   -2.720073
     41          6           0       11.085660    4.369070   -2.309248
     42          8           0       10.521652    4.438491   -1.208286
     43          8           0       11.014357    5.417598   -3.221117
     44          6           0       10.457008    6.730462   -2.772549
     45          1           0       16.092638    1.831119    2.499679
     46          1           0       14.592700   -4.434458    2.142611
     47          1           0       11.127647   -3.375538   -2.886293
     48          1           0       14.242891    4.421706   -1.151366
     49          1           0       15.464351    4.035256    1.391785
     50          1           0       17.215550    4.171226    0.065304
     51          1           0       16.186515    3.826938   -1.354099
     52          1           0       16.949372    2.514454   -0.504892
     53          1           0       13.471442    4.585460    1.708022
     54          1           0       12.045963    4.188475    0.736048
     55          1           0       12.880256    6.391350   -0.635175
     56          1           0       13.771902    6.654732    0.872140
     57          1           0       16.605172    0.022505    5.330165
     58          1           0       17.206730    1.121218    4.045185
     59          1           0       17.997739   -0.407822    4.475191
     60          1           0       16.382697   -2.096288    6.188317
     61          1           0       17.827163   -2.255076    5.365698
     62          1           0       17.046492   -3.697740    6.142606
     63          1           0       12.308265   -5.345475    0.948437
     64          1           0       13.008782   -5.247774   -1.967792
     65          1           0       15.026373   -5.933664    0.617653
     66          1           0       14.191833   -6.933264   -0.654979
     67          1           0       13.702265   -7.073148    0.961195
     68          1           0       10.227712   -4.785258   -1.597286
     69          1           0       10.607135   -5.496964   -0.137053
     70          1           0       10.082086   -7.512774   -1.390990
     71          1           0       11.609751   -7.246752   -2.300511
     72          1           0       10.064177   -6.593488   -2.880600
     73          1           0        9.692597   -2.067746   -4.216112
     74          1           0       10.838820   -1.369450   -5.310790
     75          1           0        9.338650   -0.450386   -4.904977
     76          1           0       12.620113    3.509453   -3.364803
     77          1           0       11.072246    7.169800   -1.986062
     78          1           0        9.379974    6.676309   -2.618519
     79          1           0       10.673214    7.443653   -3.567882
     80         12           0      -13.543282   -0.665852    0.013156
     81          6           0      -11.532259    2.288155    0.502487
     82          6           0      -16.342210    1.363724    0.599794
     83          6           0      -15.399090   -3.315933   -0.546255
     84          6           0      -10.616733   -2.562198   -0.232427
     85          7           0      -13.839949    1.619662    0.528241
     86          6           0      -12.925063    2.622384    0.459095
     87          6           0      -13.582552    3.992711    0.440219
     88          6           0      -15.135218    3.688489    0.829841
     89          6           0      -15.115170    2.140499    0.672789
     90          6           0      -15.585032    4.240573    2.205728
     91          6           0      -13.416276    4.724471   -0.934358
     92          6           0      -12.741111    6.116545   -0.829686
     93          1           0      -13.713405    7.354920   -1.274172
     94          7           0      -15.525967   -0.926948    0.018979
     95          6           0      -16.587719   -0.005084    0.310534
     96          6           0      -17.937310   -0.607801    0.201650
     97          6           0      -17.621294   -1.950273   -0.188757
     98          6           0      -16.157907   -2.101267   -0.252663
     99          6           0      -19.251326    0.123768    0.482976
    100          6           0      -18.545002   -3.088223   -0.403389
    101          8           0      -18.260190   -4.144961   -0.956511
    102          6           0      -20.027513   -2.893186   -0.029448
    103          7           0      -13.062339   -2.575223   -0.499717
    104          6           0      -14.015396   -3.522477   -0.654390
    105          6           0      -13.453251   -4.915110   -0.724340
    106          6           0      -11.918797   -4.712586   -0.674889
    107          6           0      -11.819570   -3.178846   -0.514036
    108          6           0      -14.021272   -5.880170    0.295045
    109          6           0      -11.225104   -5.203929   -2.077900
    110          6           0      -10.018525   -6.280891   -1.927599
    111          7           0      -11.479104   -0.305662    0.374557
    112          6           0      -10.406293   -1.199860    0.142754
    113          6           0       -9.156678   -0.449434    0.311468
    114          6           0       -9.585123    0.904123    0.309896
    115          6           0      -10.971619    0.926037    0.468392
    116          6           0       -7.717371   -0.949001    0.393105
    117          6           0       -9.054499    2.281014    0.518173
    118          8           0       -7.911233    2.787844    0.689963
    119          6           0      -10.328865    3.211004    0.519115
    120          6           0      -10.286309    4.073476    1.745970
    121          8           0      -10.007961    3.676127    2.841884
    122          8           0      -10.493432    5.378486    1.394556
    123          6           0      -10.132620    6.323829    2.481154
    124          1           0      -17.165180    2.005354    0.920847
    125          1           0      -15.959210   -4.233764   -0.738345
    126          1           0       -9.689110   -3.127200   -0.343183
    127          1           0      -13.135081    4.550700    1.262767
    128          1           0      -15.833674    4.049166    0.074267
    129          1           0      -15.824159    3.427089    2.891311
    130          1           0      -16.450496    4.894226    2.089523
    131          1           0      -14.883487    4.911366    2.701740
    132          1           0      -14.377048    4.888587   -1.422986
    133          1           0      -12.797387    4.149293   -1.623530
    134          1           0      -11.942527    6.260755   -1.557867
    135          1           0      -12.261513    6.329726    0.125119
    136          1           0      -19.221581    1.213817    0.485794
    137          1           0      -19.775491   -0.184074    1.387678
    138          1           0      -19.907815   -0.159003   -0.340541
    139          1           0      -20.126596   -2.693211    1.037425
    140          1           0      -20.646279   -3.738901   -0.331337
    141          1           0      -20.397815   -2.028314   -0.579853
    142          1           0      -13.777802   -5.359813   -1.666060
    143          1           0      -11.483389   -5.198945    0.197526
    144          1           0      -14.694125   -6.621933   -0.136129
    145          1           0      -14.650369   -5.426679    1.060912
    146          1           0      -13.184448   -6.360536    0.802494
    147          1           0      -10.813893   -4.391907   -2.676701
    148          1           0      -11.936306   -5.686191   -2.747989
    149          1           0      -10.163852   -6.743838   -0.951357
    150          1           0       -9.039060   -5.806170   -1.998918
    151          1           0      -10.139348   -7.112097   -2.621803
    152          1           0       -7.008701   -0.232270   -0.021387
    153          1           0       -7.631501   -1.799475   -0.284226
    154          1           0       -7.622581   -1.275214    1.428917
    155          1           0      -10.194564    3.890709   -0.321969
    156          1           0      -10.679081    6.016415    3.372563
    157          1           0      -10.574508    7.264532    2.153015
    158          1           0       -9.089883    6.412456    2.785900
 ---------------------------------------------------------------------

 SCF Done:  E(RPBE1PBE) =  -4067.33722697     A.U. after   16 cycles

 Excitation energies and oscillator strengths:

 Excited State   1:      Singlet-A      1.8270 eV  678.63 nm  f=0.3743  <S**2>=0.000
     309 -> 315        0.18271
     312 -> 314        0.69101
     312 <- 314       -0.10661
 This state for optimization and/or second-order correction.
 Total Energy, E(TD-HF/TD-DFT) =  -4067.27008682
 Copying the excited state density for this state as the 1-particle RhoCI density.

 Excited State   2:      Singlet-A      1.8807 eV  659.25 nm  f=0.3523  <S**2>=0.000
     310 -> 317        0.15930
     311 -> 313        0.69541
     311 <- 313       -0.11002

 Excited State   3:      Singlet-A      1.9061 eV  650.47 nm  f=0.0000  <S**2>=0.000
     312 -> 313        0.70710

 Excited State   4:      Singlet-A      1.9646 eV  631.08 nm  f=0.0000  <S**2>=0.000
     311 -> 314        0.70709

 Excited State   5:      Singlet-A      2.1728 eV  570.62 nm  f=0.1255  <S**2>=0.000
     309 -> 314        0.65727
     312 -> 315       -0.25559

 The electronic state is 1-A.
 Alpha  occ. eigenvalues --  -46.92768 -46.91911 -19.26229 -19.24582 -19.20000
 Alpha  occ. eigenvalues --  -19.19894 -19.19172 -19.18990 -19.18988 -19.18713
 Alpha  occ. eigenvalues --  -14.41898 -14.41536 -14.41122 -14.40253 -14.39669
 Alpha  occ. eigenvalues --  -14.39620 -14.39167 -14.38954 -10.35779 -10.35438
 Alpha  occ. eigenvalues --  -10.33258 -10.32362 -10.32065 -10.31964 -10.29391
 Alpha  occ. eigenvalues --  -10.29081 -10.29034 -10.29028 -10.28985 -10.28804
 Alpha  occ. eigenvalues --  -10.28636 -10.28442 -10.28440 -10.28427 -10.28033
 Alpha  occ. eigenvalues --  -10.27939 -10.27883 -10.27874 -10.27858 -10.27454
 Alpha  occ. eigenvalues --  -10.27396 -10.26814 -10.26788 -10.26743 -10.26593
 Alpha  occ. eigenvalues --  -10.26574 -10.26399 -10.26390 -10.26364 -10.26344
 Alpha  occ. eigenvalues --  -10.25914 -10.25879 -10.25856 -10.25756 -10.25749
 Alpha  occ. eigenvalues --  -10.25686 -10.25620 -10.25557 -10.25399 -10.25343
 Alpha  occ. eigenvalues --  -10.25278 -10.24949 -10.24916 -10.24880 -10.24615
 Alpha  occ. eigenvalues --  -10.24546 -10.24495 -10.24459 -10.24374 -10.23948
 Alpha  occ. eigenvalues --  -10.23866 -10.23858 -10.23651 -10.23636 -10.23608
 Alpha  occ. eigenvalues --  -10.23597 -10.23418 -10.23379 -10.23342 -10.23194
 Alpha  occ. eigenvalues --  -10.23174 -10.23120 -10.23069 -10.23025 -10.22957
 Alpha  occ. eigenvalues --  -10.22946  -3.14871  -3.14130  -1.87697  -1.87251
 Alpha  occ. eigenvalues --   -1.87096  -1.86969  -1.86505  -1.86375  -1.11661
 Alpha  occ. eigenvalues --   -1.08877  -1.06645  -1.05740  -1.04516  -1.03445
 Alpha  occ. eigenvalues --   -1.01825  -1.00837  -1.00414  -0.99552  -0.99412
 Alpha  occ. eigenvalues --   -0.98603  -0.97797  -0.97195  -0.96573  -0.95860
 Alpha  occ. eigenvalues --   -0.85885  -0.85638  -0.83477  -0.83180  -0.82845
 Alpha  occ. eigenvalues --   -0.82715  -0.82276  -0.82237  -0.81907  -0.81720
 Alpha  occ. eigenvalues --   -0.81661  -0.81184  -0.80020  -0.79663  -0.78592
 Alpha  occ. eigenvalues --   -0.78188  -0.77426  -0.77327  -0.76263  -0.76022
 Alpha  occ. eigenvalues --   -0.75999  -0.75442  -0.75251  -0.74947  -0.74654
 Alpha  occ. eigenvalues --   -0.73921  -0.73209  -0.72874  -0.71420  -0.71383
 Alpha  occ. eigenvalues --   -0.71051  -0.71010  -0.70446  -0.70269  -0.69679
 Alpha  occ. eigenvalues --   -0.69535  -0.67301  -0.66982  -0.65796  -0.65472
 Alpha  occ. eigenvalues --   -0.63457  -0.63437  -0.63154  -0.63104  -0.62339
 Alpha  occ. eigenvalues --   -0.61907  -0.61620  -0.61465  -0.60417  -0.60324
 Alpha  occ. eigenvalues --   -0.60012  -0.59965  -0.59538  -0.58937  -0.58760
 Alpha  occ. eigenvalues --   -0.58506  -0.56891  -0.55818  -0.55575  -0.55234
 Alpha  occ. eigenvalues --   -0.54623  -0.53807  -0.53595  -0.53263  -0.52900
 Alpha  occ. eigenvalues --   -0.52499  -0.52415  -0.52134  -0.51729  -0.51675
 Alpha  occ. eigenvalues --   -0.50997  -0.50639  -0.50262  -0.50057  -0.49818
 Alpha  occ. eigenvalues --   -0.49419  -0.49011  -0.48498  -0.48375  -0.48340
 Alpha  occ. eigenvalues --   -0.47908  -0.47873  -0.47299  -0.47218  -0.47035
 Alpha  occ. eigenvalues --   -0.46943  -0.46851  -0.46608  -0.46590  -0.46289
 Alpha  occ. eigenvalues --   -0.46225  -0.45993  -0.45940  -0.45912  -0.45402
 Alpha  occ. eigenvalues --   -0.45032  -0.44900  -0.44861  -0.44646  -0.44561
 Alpha  occ. eigenvalues --   -0.44481  -0.44389  -0.44303  -0.44225  -0.43975
 Alpha  occ. eigenvalues --   -0.43855  -0.43797  -0.43675  -0.43477  -0.43322
 Alpha  occ. eigenvalues --   -0.43227  -0.42935  -0.42891  -0.42744  -0.42585
 Alpha  occ. eigenvalues --   -0.42424  -0.42312  -0.42213  -0.42164  -0.42058
 Alpha  occ. eigenvalues --   -0.42016  -0.41648  -0.41522  -0.41159  -0.41073
 Alpha  occ. eigenvalues --   -0.40887  -0.40871  -0.40670  -0.40534  -0.40316
 Alpha  occ. eigenvalues --   -0.40272  -0.40166  -0.39682  -0.39612  -0.39584
 Alpha  occ. eigenvalues --   -0.39554  -0.39460  -0.39329  -0.39192  -0.39019
 Alpha  occ. eigenvalues --   -0.38845  -0.38723  -0.38689  -0.38408  -0.38198
 Alpha  occ. eigenvalues --   -0.38116  -0.38048  -0.37879  -0.37636  -0.37600
 Alpha  occ. eigenvalues --   -0.37392  -0.37260  -0.37094  -0.37038  -0.36720
 Alpha  occ. eigenvalues --   -0.36673  -0.36335  -0.36170  -0.36088  -0.35852
 Alpha  occ. eigenvalues --   -0.35627  -0.35543  -0.35353  -0.35310  -0.35237
 Alpha  occ. eigenvalues --   -0.35085  -0.35043  -0.34782  -0.34705  -0.34412
 Alpha  occ. eigenvalues --   -0.33511  -0.33230  -0.33191  -0.32599  -0.32457
 Alpha  occ. eigenvalues --   -0.32187  -0.31992  -0.31483  -0.31394  -0.31117
 Alpha  occ. eigenvalues --   -0.30614  -0.30585  -0.29696  -0.29304  -0.28736
 Alpha  occ. eigenvalues --   -0.28526  -0.28287  -0.27630  -0.27181  -0.27083
 Alpha  occ. eigenvalues --   -0.26514  -0.26081  -0.25952  -0.25941  -0.25628
 Alpha  occ. eigenvalues --   -0.25517  -0.25432  -0.24948  -0.20789  -0.20467
 Alpha  occ. eigenvalues --   -0.19059  -0.18865
 Alpha virt. eigenvalues --   -0.11367  -0.11342  -0.05261  -0.04014  -0.03966
 Alpha virt. eigenvalues --   -0.03258  -0.02319  -0.01740  -0.00408   0.00021
 Alpha virt. eigenvalues --    0.00053   0.00755   0.01073   0.01104   0.01344

 Mulliken charges:
               1
     1  Mg  11.999747
     2  C    6.000630
     3  C    6.000203
     4  C    5.999430
     5  C    6.000004
     6  N    7.000596
     7  C    5.998941
     8  C    6.000223
     9  C    5.999711
    10  C    6.000766
    11  C    5.999797
    12  C    6.000096
    13  C    6.000100
    14  H    0.999748
    15  N    6.999647
    16  C    6.001094
    17  C    6.000879
    18  C    6.000330
    19  C    6.001187
    20  C    5.999836
    21  C    6.000481
    22  O    8.000865
    23  C    5.999735
    24  N    6.999961
    25  C    6.001111
    26  C    5.999509
    27  C    6.000412
    28  C    5.999316
    29  C    6.000004
    30  C    6.000149
    31  C    5.999996
    32  N    6.999970
    33  C    5.998683
    34  C    5.998562
    35  C    6.000068
    36  C    5.998797
    37  C    6.000028
    38  C    5.999340
    39  O    7.998980
    40  C    5.999923
    41  C    5.999857
    42  O    7.999514
    43  O    8.000060
    44  C    6.000055
    45  H    1.000570
    46  H    1.000297
    47  H    0.999602
    48  H    1.000160
    49  H    1.000140
    50  H    1.000286
    51  H    1.000556
    52  H    1.000032
    53  H    0.999578
    54  H    0.999923
    55  H    1.000164
    56  H    1.000003
    57  H    1.000677
    58  H    1.000674
    59  H    1.000810
    60  H    1.000245
    61  H    1.000353
    62  H    1.000636
    63  H    0.999931
    64  H    1.000060
    65  H    0.999938
    66  H    1.000391
    67  H    1.000071
    68  H    0.999943
    69  H    0.999559
    70  H    0.999741
    71  H    1.000114
    72  H    0.999974
    73  H    0.999165
    74  H    0.999438
    75  H    0.999146
    76  H    0.999896
    77  H    0.999944
    78  H    0.999609
    79  H    1.000032
    80  Mg  12.004096
    81  C    5.975285
    82  C    5.997539
    83  C    6.028928
    84  C    5.997388
    85  N    6.982551
    86  C    6.032164
    87  C    5.990270
    88  C    6.011127
    89  C    5.972951
    90  C    6.002358
    91  C    5.998793
    92  C    5.997906
    93  H    1.006457
    94  N    7.002806
    95  C    5.969655
    96  C    5.975897
    97  C    5.987429
    98  C    5.973749
    99  C    6.003157
   100  C    5.988300
   101  O    7.968925
   102  C    6.003806
   103  N    7.008677
   104  C    5.964382
   105  C    6.008632
   106  C    5.989408
   107  C    6.028647
   108  C    6.000580
   109  C    5.995473
   110  C    5.999277
   111  N    6.998056
   112  C    6.036646
   113  C    6.030393
   114  C    6.002323
   115  C    6.028431
   116  C    6.001587
   117  C    6.011747
   118  O    8.028992
   119  C    6.003549
   120  C    6.006939
   121  O    8.000010
   122  O    8.001722
   123  C    5.998415
   124  H    0.986820
   125  H    0.998444
   126  H    1.012383
   127  H    0.997517
   128  H    0.999178
   129  H    1.000547
   130  H    0.996617
   131  H    0.987193
   132  H    1.007971
   133  H    0.995476
   134  H    0.997092
   135  H    0.998144
   136  H    0.985372
   137  H    0.981794
   138  H    0.985238
   139  H    0.992654
   140  H    0.986356
   141  H    0.994926
   142  H    1.001753
   143  H    1.003399
   144  H    1.002660
   145  H    1.005388
   146  H    0.991371
   147  H    0.999240
   148  H    1.011602
   149  H    1.003703
   150  H    0.997509
   151  H    1.006025
   152  H    1.013842
   153  H    1.014989
   154  H    1.015814
   155  H    1.004511
   156  H    1.004269
   157  H    1.004703
   158  H    1.000073
 Sum of Mulliken charges = 624.00000

 Dipole moment (field-independent basis, Debye):
    X=             10.3844    Y=              0.4137    Z=              0.2139  Tot=             10.3948
 Quadrupole moment (field-independent basis, Debye-Ang):
   XX=           -268.0926   YY=              2.1953   ZZ=              0.2256
   XY=            -13.6014   XZ=              7.4022   YZ=             -0.1799

 Normal termination of Gaussian 16 at Thu Oct 14 20:10:10 2021.
