 Gaussian 16, Revision A.03,
 Gaussian 16:  ES64L-G16RevA.03 25-Dec-2016

 --------------------------------------------------------
 #p PBE1PBE/Def2SVP td=(nstates=5) density=(transition=1)
 --------------------------------------------------------

 --------------------------------
 TDDFT excited states in gaussian
 --------------------------------
 Symbolic Z-matrix:
 Charge =  0 Multiplicity = 1

                         Standard orientation:
 ---------------------------------------------------------------------
 Center     Atomic      Atomic             Coordinates (Angstroms)
 Number     Number       Type             X           Y           Z
 ---------------------------------------------------------------------
      1         12           0       10.528371   -0.136542    0.595698
      2          6           0        9.116045    1.603072   -2.074251
      3          6           0        7.589301    0.257755    2.353816
      4          6           0       12.015503   -1.884856    2.940935
      5          6           0       13.070535   -1.372689   -1.704712
      6          7           0        8.541343    0.930646    0.138038
      7          6           0        8.171816    1.547815   -1.023933
      8          6           0        6.810712    2.135896   -0.904373
      9          6           0        6.306439    1.658769    0.515769
     10          6           0        7.551678    0.880384    1.094832
     11          6           0        5.695928    2.777945    1.396433
     12          6           0        5.854075    1.685161   -2.034911
     13          6           0        5.196243    2.892343   -2.701112
     14          1           0        3.641265    2.897182   -2.806119
     15          7           0        9.893172   -0.706401    2.423325
     16          6           0        8.664523   -0.423088    3.018035
     17          6           0        8.752925   -0.965221    4.367743
     18          6           0       10.072947   -1.578554    4.585663
     19          6           0       10.787853   -1.350537    3.290213
     20          6           0        7.616303   -1.030726    5.259730
     21          6           0       10.391173   -2.354578    5.795937
     22          8           0        9.635251   -2.496993    6.734143
     23          6           0       11.642736   -3.141588    5.972211
     24          7           0       12.204267   -1.422997    0.576509
     25          6           0       12.765432   -1.795604    1.771630
     26          6           0       14.029247   -2.593065    1.527808
     27          6           0       14.043186   -2.814343    0.061499
     28          6           0       13.030195   -1.893441   -0.408998
     29          6           0       15.345003   -1.976841    2.157786
     30          6           0       13.569813   -4.250428   -0.350792
     31          6           0       14.135166   -4.799164   -1.578416
     32          7           0       11.059113    0.067433   -1.475840
     33          6           0       12.125593   -0.421613   -2.241579
     34          6           0       12.166792    0.281416   -3.485334
     35          6           0       11.006686    1.046728   -3.498779
     36          6           0       10.323218    0.854579   -2.245342
     37          6           0       13.233291    0.104822   -4.502285
     38          6           0       10.222065    1.912532   -4.285766
     39          8           0       10.408057    2.330804   -5.406697
     40          6           0        9.027732    2.345122   -3.406311
     41          6           0        9.013647    3.813039   -3.303944
     42          8           0        9.647169    4.487125   -2.474330
     43          8           0        8.317776    4.341603   -4.366891
     44          6           0        8.072648    5.772568   -4.444489
     45          1           0        6.654273    0.474383    2.873572
     46          1           0       12.595149   -2.532436    3.603517
     47          1           0       13.866807   -1.748547   -2.350606
     48          1           0        6.993823    3.196537   -0.730001
     49          1           0        5.485804    0.943574    0.468741
     50          1           0        5.466939    3.550852    0.661759
     51          1           0        6.292211    3.112000    2.245588
     52          1           0        4.755403    2.436832    1.828360
     53          1           0        4.994841    1.111728   -1.687559
     54          1           0        6.459265    1.103289   -2.729852
     55          1           0        5.548104    2.740124   -3.721359
     56          1           0        5.628646    3.784684   -2.250909
     57          1           0        6.771364   -0.553100    4.763233
     58          1           0        7.708272   -0.474577    6.193132
     59          1           0        7.355934   -2.075045    5.435641
     60          1           0       12.364303   -2.389153    5.653910
     61          1           0       11.622426   -3.986600    5.283488
     62          1           0       11.788978   -3.424754    7.014804
     63          1           0       13.847026   -3.512752    2.082531
     64          1           0       14.934804   -2.517395   -0.490810
     65          1           0       15.097611   -1.157090    2.832512
     66          1           0       16.131429   -1.740090    1.440287
     67          1           0       15.820919   -2.634958    2.884227
     68          1           0       12.481544   -4.263933   -0.411947
     69          1           0       13.815122   -4.973453    0.426968
     70          1           0       15.076987   -5.293106   -1.337015
     71          1           0       14.260153   -4.040792   -2.352007
     72          1           0       13.551927   -5.664374   -1.895253
     73          1           0       14.210023   -0.011382   -4.032807
     74          1           0       13.265881    0.895775   -5.251744
     75          1           0       13.015936   -0.873528   -4.930978
     76          1           0        8.063785    2.168215   -3.883583
     77          1           0        8.900808    6.440369   -4.681973
     78          1           0        7.584809    6.107584   -3.529356
     79          1           0        7.412479    5.878020   -5.304594
     80         12           0      -10.538961   -0.825930    0.138505
     81          6           0       -9.140055    2.168137    1.279014
     82          6           0       -7.373621   -1.811542   -0.818534
     83          6           0      -11.912171   -3.418465   -1.606237
     84          6           0      -13.680315    0.572768    0.549022
     85          7           0       -8.548702    0.063381    0.325104
     86          6           0       -8.213110    1.166767    1.005716
     87          6           0       -6.708953    1.323069    1.273055
     88          6           0       -6.118080    0.129309    0.429128
     89          6           0       -7.446641   -0.704094   -0.013015
     90          6           0       -5.231152    0.490759   -0.781824
     91          6           0       -6.318251    1.300613    2.750950
     92          6           0       -5.014629    2.064088    3.047182
     93          1           0       -4.250112    2.722244    1.889925
     94          7           0       -9.776218   -2.458935   -0.952194
     95          6           0       -8.409521   -2.735584   -1.186662
     96          6           0       -8.316830   -3.984900   -1.915114
     97          6           0       -9.652237   -4.445859   -2.217642
     98          6           0      -10.517030   -3.464621   -1.564231
     99          6           0       -6.985760   -4.638337   -2.166405
    100          6           0      -10.149814   -5.788267   -2.919575
    101          8           0      -11.308002   -6.121856   -2.985989
    102          6           0       -9.077472   -6.657336   -3.539944
    103          7           0      -12.483807   -1.295320   -0.521430
    104          6           0      -12.826139   -2.433575   -1.190964
    105          6           0      -14.378955   -2.550138   -1.414279
    106          6           0      -14.880235   -1.317362   -0.663845
    107          6           0      -13.604254   -0.644598   -0.193873
    108          6           0      -14.993830   -2.754228   -2.857360
    109          6           0      -15.802585   -1.714175    0.512644
    110          6           0      -15.162194   -2.145743    1.850573
    111          7           0      -11.356979    0.938051    0.917641
    112          6           0      -12.651487    1.376320    1.024113
    113          6           0      -12.712385    2.666254    1.625521
    114          6           0      -11.303478    3.054900    1.752556
    115          6           0      -10.585815    2.016153    1.302171
    116          6           0      -13.846817    3.505487    2.017435
    117          6           0      -10.387326    4.141424    2.070540
    118          8           0      -10.610527    5.245487    2.578516
    119          6           0       -8.939846    3.638454    1.794084
    120          6           0       -8.248748    4.495528    0.836256
    121          8           0       -8.404605    4.491276   -0.380269
    122          8           0       -7.561424    5.468361    1.517797
    123          6           0       -7.128330    6.689436    0.811056
    124          1           0       -6.342727   -2.027837   -1.107226
    125          1           0      -12.363094   -4.332089   -1.999115
    126          1           0      -14.670547    0.976930    0.769184
    127          1           0       -6.304862    2.209699    0.785012
    128          1           0       -5.611486   -0.620361    1.035908
    129          1           0       -4.346942   -0.105949   -0.558447
    130          1           0       -4.994683    1.554533   -0.782496
    131          1           0       -5.731167    0.227474   -1.713980
    132          1           0       -6.234210    0.285439    3.136960
    133          1           0       -7.102777    1.759100    3.353551
    134          1           0       -4.423455    1.273729    3.510189
    135          1           0       -5.141512    2.788811    3.852677
    136          1           0       -6.240091   -3.895537   -1.882752
    137          1           0       -6.914514   -4.905046   -3.221082
    138          1           0       -6.847035   -5.558028   -1.596075
    139          1           0       -8.645899   -6.317832   -4.482091
    140          1           0       -9.483150   -7.664472   -3.635815
    141          1           0       -8.317852   -6.663095   -2.758329
    142          1           0      -14.589390   -3.476544   -0.880359
    143          1           0      -15.419763   -0.714079   -1.393062
    144          1           0      -15.818520   -2.084986   -3.099664
    145          1           0      -15.416834   -3.757218   -2.903961
    146          1           0      -14.174574   -2.701684   -3.575028
    147          1           0      -16.436035   -2.510219    0.123171
    148          1           0      -16.441381   -0.843852    0.665750
    149          1           0      -15.763764   -2.993424    2.177684
    150          1           0      -15.235945   -1.387058    2.629374
    151          1           0      -14.096103   -2.361673    1.789894
    152          1           0      -13.609392    3.949452    2.983564
    153          1           0      -14.809059    2.997442    2.082043
    154          1           0      -13.895621    4.385919    1.376431
    155          1           0       -8.469124    3.641872    2.777082
    156          1           0       -7.367104    6.656423   -0.252526
    157          1           0       -6.043752    6.755627    0.900576
    158          1           0       -7.690682    7.448886    1.353144
 ---------------------------------------------------------------------

 SCF Done:  E(RPBE1PBE) =  -4067.36428774     A.U. after   16 cycles

 Excitation energies and oscillator strengths:

 Excited State   1:      Singlet-A      1.7999 eV  688.84 nm  f=0.0000  <S**2>=0.000
     312 -> 313        0.70708
 This state for optimization and/or second-order correction.
 Total Energy, E(TD-HF/TD-DFT) =  -4067.29814300
 Copying the excited state density for this state as the 1-particle RhoCI density.

 Excited State   2:      Singlet-A      1.8373 eV  674.82 nm  f=0.3489  <S**2>=0.000
     309 -> 315       -0.18245
     311 -> 313        0.68985
     311 <- 313       -0.10420

 Excited State   3:      Singlet-A      1.8755 eV  661.07 nm  f=0.3923  <S**2>=0.000
     310 -> 316       -0.17485
     312 -> 314        0.69085
     312 <- 314       -0.10932

 Excited State   4:      Singlet-A      2.0001 eV  619.89 nm  f=0.0000  <S**2>=0.000
     311 -> 314        0.70709

 Excited State   5:      Singlet-A      2.1489 eV  576.96 nm  f=0.1473  <S**2>=0.000
     310 -> 314        0.66617
     312 -> 316        0.21054

 The electronic state is 1-A.
 Alpha  occ. eigenvalues --  -46.92403 -46.91715 -19.25582 -19.24619 -19.20112
 Alpha  occ. eigenvalues --  -19.19647 -19.19269 -19.19053 -19.18703 -19.17672
 Alpha  occ. eigenvalues --  -14.41917 -14.41748 -14.41531 -14.41526 -14.40004
 Alpha  occ. eigenvalues --  -14.39137 -14.38935 -14.37969 -10.36156 -10.35715
 Alpha  occ. eigenvalues --  -10.33309 -10.32338 -10.31428 -10.30886 -10.29414
 Alpha  occ. eigenvalues --  -10.29407 -10.29263 -10.28941 -10.28805 -10.28786
 Alpha  occ. eigenvalues --  -10.28659 -10.28643 -10.28498 -10.28494 -10.28460
 Alpha  occ. eigenvalues --  -10.28327 -10.28030 -10.27778 -10.27563 -10.26915
 Alpha  occ. eigenvalues --  -10.26647 -10.26596 -10.26483 -10.26482 -10.26300
 Alpha  occ. eigenvalues --  -10.26275 -10.26252 -10.26223 -10.26098 -10.26029
 Alpha  occ. eigenvalues --  -10.25922 -10.25838 -10.25835 -10.25760 -10.25670
 Alpha  occ. eigenvalues --  -10.25552 -10.25548 -10.25526 -10.25294 -10.25270
 Alpha  occ. eigenvalues --  -10.25210 -10.25129 -10.25013 -10.24891 -10.24861
 Alpha  occ. eigenvalues --  -10.24841 -10.24760 -10.24666 -10.24397 -10.24355
 Alpha  occ. eigenvalues --  -10.24188 -10.24176 -10.24047 -10.24021 -10.23763
 Alpha  occ. eigenvalues --  -10.23599 -10.23510 -10.23490 -10.23418 -10.23290
 Alpha  occ. eigenvalues --  -10.23056 -10.22912 -10.22610 -10.22592 -10.22551
 Alpha  occ. eigenvalues --  -10.22351  -3.14475  -3.13820  -1.87318  -1.86858
 Alpha  occ. eigenvalues --   -1.86688  -1.86661  -1.86190  -1.86049  -1.10269
 Alpha  occ. eigenvalues --   -1.09911  -1.06301  -1.04922  -1.04654  -1.03705
 Alpha  occ. eigenvalues --   -1.01562  -1.01521  -0.99672  -0.99089  -0.98553
 Alpha  occ. eigenvalues --   -0.98030  -0.97717  -0.97199  -0.96252  -0.95679
 Alpha  occ. eigenvalues --   -0.87103  -0.86524  -0.85187  -0.83953  -0.83493
 Alpha  occ. eigenvalues --   -0.83460  -0.83124  -0.82499  -0.82138  -0.81686
 Alpha  occ. eigenvalues --   -0.81451  -0.80763  -0.80641  -0.80459  -0.79611
 Alpha  occ. eigenvalues --   -0.78943  -0.78544  -0.77827  -0.77744  -0.76885
 Alpha  occ. eigenvalues --   -0.76648  -0.76132  -0.75812  -0.75377  -0.75240
 Alpha  occ. eigenvalues --   -0.74594  -0.73088  -0.72495  -0.72368  -0.71506
 Alpha  occ. eigenvalues --   -0.71464  -0.71207  -0.70695  -0.70272  -0.69827
 Alpha  occ. eigenvalues --   -0.69437  -0.67952  -0.66948  -0.66573  -0.65592
 Alpha  occ. eigenvalues --   -0.64203  -0.63883  -0.63552  -0.62913  -0.62440
 Alpha  occ. eigenvalues --   -0.62191  -0.61958  -0.61010  -0.60509  -0.60505
 Alpha  occ. eigenvalues --   -0.59897  -0.59356  -0.59309  -0.59176  -0.59000
 Alpha  occ. eigenvalues --   -0.58342  -0.56687  -0.56043  -0.55377  -0.54335
 Alpha  occ. eigenvalues --   -0.54159  -0.54101  -0.53721  -0.53718  -0.53658
 Alpha  occ. eigenvalues --   -0.52902  -0.52622  -0.52356  -0.52033  -0.51930
 Alpha  occ. eigenvalues --   -0.51075  -0.50467  -0.50457  -0.50116  -0.50041
 Alpha  occ. eigenvalues --   -0.49822  -0.49745  -0.49240  -0.49109  -0.48902
 Alpha  occ. eigenvalues --   -0.48308  -0.47988  -0.47881  -0.47540  -0.47527
 Alpha  occ. eigenvalues --   -0.47317  -0.47170  -0.46854  -0.46835  -0.46744
 Alpha  occ. eigenvalues --   -0.46570  -0.46452  -0.46424  -0.46358  -0.46312
 Alpha  occ. eigenvalues --   -0.46046  -0.45895  -0.45560  -0.45198  -0.45103
 Alpha  occ. eigenvalues --   -0.44816  -0.44735  -0.44285  -0.44255  -0.44184
 Alpha  occ. eigenvalues --   -0.44149  -0.43993  -0.43863  -0.43710  -0.43659
 Alpha  occ. eigenvalues --   -0.43565  -0.43300  -0.43234  -0.43176  -0.42967
 Alpha  occ. eigenvalues --   -0.42803  -0.42374  -0.42373  -0.41924  -0.41841
 Alpha  occ. eigenvalues --   -0.41808  -0.41583  -0.41479  -0.41363  -0.41105
 Alpha  occ. eigenvalues --   -0.41054  -0.40971  -0.40924  -0.40581  -0.40569
 Alpha  occ. eigenvalues --   -0.40436  -0.40165  -0.40049  -0.39834  -0.39828
 Alpha  occ. eigenvalues --   -0.39452  -0.39406  -0.39323  -0.39120  -0.38955
 Alpha  occ. eigenvalues --   -0.38684  -0.38598  -0.38502  -0.38298  -0.38288
 Alpha  occ. eigenvalues --   -0.38179  -0.38053  -0.37973  -0.37940  -0.37894
 Alpha  occ. eigenvalues --   -0.37695  -0.37511  -0.37511  -0.37299  -0.37042
 Alpha  occ. eigenvalues --   -0.36896  -0.36690  -0.36429  -0.36409  -0.36229
 Alpha  occ. eigenvalues --   -0.36145  -0.36004  -0.35789  -0.35676  -0.35587
 Alpha  occ. eigenvalues --   -0.35224  -0.35163  -0.34873  -0.34163  -0.33619
 Alpha  occ. eigenvalues --   -0.33552  -0.33379  -0.32881  -0.32767  -0.32742
 Alpha  occ. eigenvalues --   -0.32401  -0.32111  -0.31782  -0.31484  -0.31309
 Alpha  occ. eigenvalues --   -0.31248  -0.30667  -0.29615  -0.29605  -0.29018
 Alpha  occ. eigenvalues --   -0.29002  -0.28542  -0.28297  -0.27113  -0.26654
 Alpha  occ. eigenvalues --   -0.26378  -0.25781  -0.25772  -0.25563  -0.25234
 Alpha  occ. eigenvalues --   -0.25138  -0.24433  -0.24410  -0.21344  -0.20553
 Alpha  occ. eigenvalues --   -0.19305  -0.18935
 Alpha virt. eigenvalues --   -0.11697  -0.11329  -0.06050  -0.04919  -0.04029
 Alpha virt. eigenvalues --   -0.03677  -0.02128  -0.01970  -0.00279  -0.00218
 Alpha virt. eigenvalues --   -0.00128   0.00641   0.00658   0.00994   0.01133

 Mulliken charges:
               1
     1  Mg  12.000000
     2  C    6.000000
     3  C    6.000000
     4  C    6.000000
     5  C    6.000000
     6  N    7.000000
     7  C    6.000000
     8  C    6.000000
     9  C    6.000000
    10  C    6.000000
    11  C    6.000000
    12  C    6.000000
    13  C    6.000000
    14  H    1.000000
    15  N    7.000000
    16  C    6.000000
    17  C    6.000000
    18  C    6.000000
    19  C    6.000000
    20  C    6.000000
    21  C    6.000000
    22  O    8.000000
    23  C    6.000000
    24  N    7.000000
    25  C    6.000000
    26  C    6.000000
    27  C    6.000000
    28  C    6.000000
    29  C    6.000000
    30  C    6.000000
    31  C    6.000000
    32  N    7.000000
    33  C    6.000000
    34  C    6.000000
    35  C    6.000000
    36  C    6.000000
    37  C    6.000000
    38  C    6.000000
    39  O    8.000000
    40  C    6.000000
    41  C    6.000000
    42  O    8.000000
    43  O    8.000000
    44  C    6.000000
    45  H    1.000000
    46  H    1.000000
    47  H    1.000000
    48  H    1.000000
    49  H    1.000000
    50  H    1.000000
    51  H    1.000000
    52  H    1.000000
    53  H    1.000000
    54  H    1.000000
    55  H    1.000000
    56  H    1.000000
    57  H    1.000000
    58  H    1.000000
    59  H    1.000000
    60  H    1.000000
    61  H    1.000000
    62  H    1.000000
    63  H    1.000000
    64  H    1.000000
    65  H    1.000000
    66  H    1.000000
    67  H    1.000000
    68  H    1.000000
    69  H    1.000000
    70  H    1.000000
    71  H    1.000000
    72  H    1.000000
    73  H    1.000000
    74  H    1.000000
    75  H    1.000000
    76  H    1.000000
    77  H    1.000000
    78  H    1.000000
    79  H    1.000000
    80  Mg  12.000000
    81  C    6.000000
    82  C    6.000000
    83  C    6.000000
    84  C    6.000000
    85  N    7.000000
    86  C    6.000000
    87  C    6.000000
    88  C    6.000000
    89  C    6.000000
    90  C    6.000000
    91  C    6.000000
    92  C    6.000000
    93  H    1.000000
    94  N    7.000000
    95  C    6.000000
    96  C    6.000000
    97  C    6.000000
    98  C    6.000000
    99  C    6.000000
   100  C    6.000000
   101  O    8.000000
   102  C    6.000000
   103  N    7.000000
   104  C    6.000000
   105  C    6.000000
   106  C    6.000000
   107  C    6.000000
   108  C    6.000000
   109  C    6.000000
   110  C    6.000000
   111  N    7.000000
   112  C    6.000000
   113  C    6.000000
   114  C    6.000000
   115  C    6.000000
   116  C    6.000000
   117  C    6.000000
   118  O    8.000000
   119  C    6.000000
   120  C    6.000000
   121  O    8.000000
   122  O    8.000000
   123  C    6.000000
   124  H    1.000000
   125  H    1.000000
   126  H    1.000000
   127  H    1.000000
   128  H    1.000000
   129  H    1.000000
   130  H    1.000000
   131  H    1.000000
   132  H    1.000000
   133  H    1.000000
   134  H    1.000000
   135  H    1.000000
   136  H    1.000000
   137  H    1.000000
   138  H    1.000000
   139  H    1.000000
   140  H    1.000000
   141  H    1.000000
   142  H    1.000000
   143  H    1.000000
   144  H    1.000000
   145  H    1.000000
   146  H    1.000000
   147  H    1.000000
   148  H    1.000000
   149  H    1.000000
   150  H    1.000000
   151  H    1.000000
   152  H    1.000000
   153  H    1.000000
   154  H    1.000000
   155  H    1.000000
   156  H    1.000000
   157  H    1.000000
   158  H    1.000000
 Sum of Mulliken charges = 624.00000

 Dipole moment (field-independent basis, Debye):
    X=             -0.0000    Y=              0.0000    Z=             -0.0000  Tot=              0.0000
 Quadrupole moment (field-independent basis, Debye-Ang):
   XX=              0.0000   YY=             -0.0000   ZZ=             -0.0000
   XY=             -0.0000   XZ=             -0.0000   YZ=             -0.0000

 Normal termination of Gaussian 16 at Thu Oct 14 20:05:52 2021.
