 Gaussian 16, Revision A.03,
 Gaussian 16:  ES64L-G16RevA.03 25-Dec-2016

 --------------------------------------------------------
 #p PBE1PBE/Def2SVP td=(nstates=5) density=(transition=1)
 --------------------------------------------------------

 --------------------------------
 TDDFT excited states in gaussian
 --------------------------------
 Symbolic Z-matrix:
 Charge =  0 Multiplicity = 1

                         Standard orientation:
 ---------------------------------------------------------------------
 Center     Atomic      Atomic             Coordinates (Angstroms)
 Number     Number       Type             X           Y           Z
 ---------------------------------------------------------------------
      1         12           0       20.018025   -0.671474    0.447909
      2          6           0       19.236062    2.003340   -1.723216
      3          6           0       21.081541    1.457693    2.730457
      4          6           0       21.526719   -3.307596    2.012368
      5          6           0       19.794939   -2.839387   -2.539662
      6          7           0       20.178742    1.499752    0.429671
      7          6           0       19.594517    2.365764   -0.423553
      8          6           0       19.575253    3.768385    0.215084
      9          6           0       20.120644    3.591833    1.595924
     10          6           0       20.538628    2.090267    1.611629
     11          6           0       21.201801    4.684122    1.977086
     12          6           0       18.244315    4.591138    0.169884
     13          6           0       17.795833    5.552772    1.352311
     14          1           0       17.251605    6.944368    0.997778
     15          7           0       20.932980   -0.900483    2.267652
     16          6           0       21.287733    0.144674    3.090367
     17          6           0       21.859243   -0.414302    4.282431
     18          6           0       22.057404   -1.840426    4.116952
     19          6           0       21.549547   -2.060410    2.744799
     20          6           0       22.281988    0.512140    5.349548
     21          6           0       22.582982   -2.910805    5.105129
     22          8           0       22.710394   -4.037128    4.753473
     23          6           0       22.695741   -2.602741    6.562709
     24          7           0       20.621377   -2.766546   -0.232782
     25          6           0       21.098174   -3.613636    0.706855
     26          6           0       21.297885   -5.058519    0.147472
     27          6           0       20.714041   -4.942309   -1.293752
     28          6           0       20.358161   -3.439317   -1.408508
     29          6           0       22.714668   -5.567985    0.149162
     30          6           0       19.482064   -5.838634   -1.667686
     31          6           0       18.124692   -5.446890   -1.190028
     32          7           0       19.602850   -0.582094   -1.698411
     33          6           0       19.505757   -1.515923   -2.689882
     34          6           0       19.009122   -0.888024   -3.889948
     35          6           0       18.878591    0.495487   -3.599157
     36          6           0       19.299393    0.631871   -2.260671
     37          6           0       18.848381   -1.497020   -5.238080
     38          6           0       18.543047    1.790286   -4.119069
     39          8           0       18.122498    2.179426   -5.202572
     40          6           0       18.710625    2.822700   -2.915574
     41          6           0       19.529927    4.045567   -3.292215
     42          8           0       20.697036    4.007463   -3.585379
     43          8           0       18.733268    5.175360   -3.195418
     44          6           0       19.427666    6.406222   -3.575084
     45          1           0       21.265176    2.074981    3.612763
     46          1           0       21.977873   -4.110807    2.598226
     47          1           0       19.625944   -3.494753   -3.396517
     48          1           0       20.256375    4.262354   -0.477873
     49          1           0       19.307084    3.786890    2.295160
     50          1           0       21.238116    5.444309    1.196938
     51          1           0       22.129041    4.161066    2.210889
     52          1           0       20.883964    5.270912    2.839120
     53          1           0       17.437284    3.867273    0.054019
     54          1           0       18.177324    5.205720   -0.728218
     55          1           0       18.687771    5.649431    1.971669
     56          1           0       17.043898    5.044099    1.955710
     57          1           0       23.189146    0.078033    5.769323
     58          1           0       21.512787    0.481559    6.120323
     59          1           0       22.477005    1.566943    5.155294
     60          1           0       23.724565   -2.254639    6.644806
     61          1           0       22.406398   -3.484168    7.135771
     62          1           0       22.100954   -1.755142    6.903871
     63          1           0       20.642492   -5.778112    0.638543
     64          1           0       21.375368   -5.048295   -2.153131
     65          1           0       23.371686   -4.917961    0.728458
     66          1           0       23.144562   -5.595195   -0.852463
     67          1           0       22.666575   -6.559922    0.597752
     68          1           0       19.650843   -6.856890   -1.317135
     69          1           0       19.507092   -5.997679   -2.745968
     70          1           0       18.214245   -4.808342   -0.310988
     71          1           0       17.413174   -6.194515   -0.838750
     72          1           0       17.648248   -4.982527   -2.054017
     73          1           0       19.763562   -1.900068   -5.670822
     74          1           0       18.715179   -0.655181   -5.917999
     75          1           0       18.032287   -2.219714   -5.261953
     76          1           0       17.698060    3.116291   -2.638046
     77          1           0       19.390809    6.749578   -2.541696
     78          1           0       18.713099    6.902824   -4.231073
     79          1           0       20.417368    6.229254   -3.996675
     80         12           0      -20.630474   -0.507557   -0.394922
     81          6           0      -18.461907    2.188270    0.107049
     82          6           0      -23.186197    1.464255    0.824493
     83          6           0      -22.621653   -3.272852   -0.196398
     84          6           0      -17.872349   -2.523834   -0.960917
     85          7           0      -20.761203    1.573876    0.266420
     86          6           0      -19.812799    2.515100    0.177299
     87          6           0      -20.317295    3.953778    0.361900
     88          6           0      -21.816612    3.705327    0.782290
     89          6           0      -22.011950    2.107694    0.528245
     90          6           0      -22.227771    4.119272    2.211727
     91          6           0      -20.149867    4.850576   -0.864903
     92          6           0      -20.038598    6.345629   -0.514881
     93          1           0      -20.127540    6.781679    0.954421
     94          7           0      -22.644228   -0.861476    0.112664
     95          6           0      -23.576814    0.112044    0.539176
     96          6           0      -24.861275   -0.535229    0.715877
     97          6           0      -24.702794   -1.952250    0.482955
     98          6           0      -23.303072   -2.086139    0.082337
     99          6           0      -26.100806    0.267564    1.000410
    100          6           0      -25.783357   -3.124476    0.458073
    101          8           0      -25.540826   -4.254023    0.108221
    102          6           0      -27.176846   -2.761365    0.923255
    103          7           0      -20.283287   -2.584452   -0.459969
    104          6           0      -21.255329   -3.539511   -0.396023
    105          6           0      -20.683378   -4.988409   -0.615702
    106          6           0      -19.216267   -4.686087   -0.916296
    107          6           0      -19.125552   -3.179494   -0.762800
    108          6           0      -20.929266   -6.142939    0.437298
    109          6           0      -18.827123   -5.156081   -2.337559
    110          6           0      -19.158311   -4.246475   -3.541443
    111          7           0      -18.557675   -0.274785   -0.587678
    112          6           0      -17.553839   -1.179032   -0.819665
    113          6           0      -16.281565   -0.539483   -0.860011
    114          6           0      -16.579587    0.846395   -0.482219
    115          6           0      -17.908489    0.913317   -0.319664
    116          6           0      -14.941400   -1.054502   -1.149074
    117          6           0      -16.007730    2.135058   -0.117104
    118          8           0      -14.840428    2.534292   -0.186606
    119          6           0      -17.180464    3.080608    0.276899
    120          6           0      -17.016594    3.602135    1.629963
    121          8           0      -17.251241    2.996859    2.670551
    122          8           0      -16.343206    4.796540    1.572860
    123          6           0      -15.687307    5.325193    2.784635
    124          1           0      -23.924046    2.152555    1.242455
    125          1           0      -23.283334   -4.133306   -0.315524
    126          1           0      -17.011389   -3.137320   -1.234343
    127          1           0      -19.876696    4.423606    1.240947
    128          1           0      -22.537548    4.104880    0.069946
    129          1           0      -23.091524    4.745926    1.990319
    130          1           0      -21.436796    4.698223    2.687864
    131          1           0      -22.449920    3.239305    2.815512
    132          1           0      -20.953326    4.710801   -1.587094
    133          1           0      -19.243547    4.579514   -1.407054
    134          1           0      -20.869526    6.746989   -1.095396
    135          1           0      -19.163599    6.807222   -0.974721
    136          1           0      -25.749141    1.275746    1.219803
    137          1           0      -26.623765   -0.175102    1.848416
    138          1           0      -26.802855    0.279631    0.165344
    139          1           0      -27.326384   -2.638478    1.996427
    140          1           0      -27.864758   -3.501527    0.514565
    141          1           0      -27.341857   -1.814473    0.409305
    142          1           0      -21.236844   -5.289862   -1.504737
    143          1           0      -18.634610   -5.213102   -0.160830
    144          1           0      -20.036603   -6.700513    0.718323
    145          1           0      -21.593244   -6.877283   -0.017633
    146          1           0      -21.447373   -5.705287    1.291120
    147          1           0      -19.302873   -6.128706   -2.457129
    148          1           0      -17.752180   -5.330907   -2.283728
    149          1           0      -19.513702   -4.932787   -4.309638
    150          1           0      -18.286052   -3.737951   -3.951493
    151          1           0      -19.855347   -3.439790   -3.317255
    152          1           0      -14.434729   -0.320551   -1.774760
    153          1           0      -14.905705   -2.028608   -1.636963
    154          1           0      -14.332366   -1.031398   -0.245209
    155          1           0      -17.152200    3.862994   -0.481355
    156          1           0      -15.869322    4.698395    3.658309
    157          1           0      -16.116302    6.306040    2.991053
    158          1           0      -14.644929    5.326654    2.467919
 ---------------------------------------------------------------------

 SCF Done:  E(RPBE1PBE) =  -4067.37715302     A.U. after   16 cycles

 Excitation energies and oscillator strengths:

 Excited State   1:      Singlet-A      1.8611 eV  666.20 nm  f=0.3754  <S**2>=0.000
     309 -> 315        0.17924
     312 -> 314        0.69101
     312 <- 314       -0.10761
 This state for optimization and/or second-order correction.
 Total Energy, E(TD-HF/TD-DFT) =  -4067.30876050
 Copying the excited state density for this state as the 1-particle RhoCI density.

 Excited State   2:      Singlet-A      1.8755 eV  661.09 nm  f=0.3893  <S**2>=0.000
     310 -> 316       -0.17464
     311 -> 313        0.69062
     311 <- 313       -0.10928

 Excited State   3:      Singlet-A      1.9200 eV  645.76 nm  f=0.0000  <S**2>=0.000
     312 -> 313        0.70710

 Excited State   4:      Singlet-A      2.0418 eV  607.24 nm  f=0.0000  <S**2>=0.000
     311 -> 314        0.70711

 Excited State   5:      Singlet-A      2.1488 eV  577.00 nm  f=0.1386  <S**2>=0.000
     310 -> 313        0.66653
     311 -> 316        0.21046

 The electronic state is 1-A.
 Alpha  occ. eigenvalues --  -46.93371 -46.91672 -19.25437 -19.24566 -19.20241
 Alpha  occ. eigenvalues --  -19.20077 -19.19673 -19.19218 -19.19011 -19.18890
 Alpha  occ. eigenvalues --  -14.41733 -14.41708 -14.41479 -14.41227 -14.39114
 Alpha  occ. eigenvalues --  -14.39095 -14.38494 -14.37927 -10.36120 -10.35665
 Alpha  occ. eigenvalues --  -10.33274 -10.32753 -10.32295 -10.31956 -10.29265
 Alpha  occ. eigenvalues --  -10.28858 -10.28607 -10.28605 -10.28529 -10.28501
 Alpha  occ. eigenvalues --  -10.28455 -10.28447 -10.28406 -10.28383 -10.28175
 Alpha  occ. eigenvalues --  -10.27987 -10.27523 -10.27127 -10.27008 -10.26772
 Alpha  occ. eigenvalues --  -10.26606 -10.26387 -10.26337 -10.26242 -10.26234
 Alpha  occ. eigenvalues --  -10.26049 -10.25985 -10.25880 -10.25799 -10.25787
 Alpha  occ. eigenvalues --  -10.25600 -10.25568 -10.25507 -10.25480 -10.25475
 Alpha  occ. eigenvalues --  -10.25431 -10.25275 -10.25254 -10.25238 -10.25216
 Alpha  occ. eigenvalues --  -10.25060 -10.24812 -10.24729 -10.24593 -10.24389
 Alpha  occ. eigenvalues --  -10.24382 -10.24352 -10.24316 -10.24148 -10.23992
 Alpha  occ. eigenvalues --  -10.23985 -10.23957 -10.23813 -10.23768 -10.23756
 Alpha  occ. eigenvalues --  -10.23566 -10.23470 -10.23463 -10.23330 -10.23256
 Alpha  occ. eigenvalues --  -10.22885 -10.22833 -10.22658 -10.22569 -10.22546
 Alpha  occ. eigenvalues --  -10.22352  -3.15265  -3.13777  -1.88075  -1.87646
 Alpha  occ. eigenvalues --   -1.87477  -1.86619  -1.86148  -1.86007  -1.11062
 Alpha  occ. eigenvalues --   -1.09859  -1.07567  -1.06267  -1.03978  -1.03663
 Alpha  occ. eigenvalues --   -1.03380  -1.01469  -0.99050  -0.98807  -0.97983
 Alpha  occ. eigenvalues --   -0.97763  -0.97154  -0.97107  -0.96458  -0.95638
 Alpha  occ. eigenvalues --   -0.86479  -0.85964  -0.83534  -0.83460  -0.83129
 Alpha  occ. eigenvalues --   -0.83053  -0.82529  -0.82455  -0.81673  -0.81405
 Alpha  occ. eigenvalues --   -0.81400  -0.80722  -0.80432  -0.80419  -0.78490
 Alpha  occ. eigenvalues --   -0.78248  -0.77934  -0.77698  -0.76644  -0.76596
 Alpha  occ. eigenvalues --   -0.76218  -0.76096  -0.75333  -0.75144  -0.74744
 Alpha  occ. eigenvalues --   -0.74548  -0.72564  -0.72454  -0.71427  -0.71421
 Alpha  occ. eigenvalues --   -0.71380  -0.71144  -0.70221  -0.70181  -0.69393
 Alpha  occ. eigenvalues --   -0.69004  -0.66905  -0.66782  -0.65854  -0.65546
 Alpha  occ. eigenvalues --   -0.64170  -0.64080  -0.63621  -0.62858  -0.62682
 Alpha  occ. eigenvalues --   -0.62128  -0.61306  -0.60462  -0.59467  -0.59264
 Alpha  occ. eigenvalues --   -0.59129  -0.58952  -0.58757  -0.58622  -0.58492
 Alpha  occ. eigenvalues --   -0.58296  -0.56252  -0.55995  -0.54512  -0.54295
 Alpha  occ. eigenvalues --   -0.54072  -0.53675  -0.53610  -0.53366  -0.52917
 Alpha  occ. eigenvalues --   -0.52856  -0.52535  -0.52313  -0.51987  -0.51923
 Alpha  occ. eigenvalues --   -0.50592  -0.50416  -0.50401  -0.49997  -0.49894
 Alpha  occ. eigenvalues --   -0.49699  -0.49588  -0.49201  -0.49152  -0.48611
 Alpha  occ. eigenvalues --   -0.48261  -0.48141  -0.47826  -0.47728  -0.47464
 Alpha  occ. eigenvalues --   -0.47396  -0.47268  -0.46937  -0.46788  -0.46700
 Alpha  occ. eigenvalues --   -0.46411  -0.46357  -0.46263  -0.45707  -0.45519
 Alpha  occ. eigenvalues --   -0.45476  -0.45351  -0.45153  -0.45152  -0.44828
 Alpha  occ. eigenvalues --   -0.44772  -0.44632  -0.44214  -0.44119  -0.44104
 Alpha  occ. eigenvalues --   -0.43948  -0.43849  -0.43671  -0.43616  -0.43612
 Alpha  occ. eigenvalues --   -0.43366  -0.43215  -0.43175  -0.42909  -0.42907
 Alpha  occ. eigenvalues --   -0.42771  -0.42327  -0.42300  -0.41887  -0.41826
 Alpha  occ. eigenvalues --   -0.41791  -0.41452  -0.41435  -0.41004  -0.40878
 Alpha  occ. eigenvalues --   -0.40753  -0.40530  -0.40481  -0.40394  -0.40264
 Alpha  occ. eigenvalues --   -0.40160  -0.40007  -0.39789  -0.39409  -0.39342
 Alpha  occ. eigenvalues --   -0.39304  -0.39068  -0.39031  -0.38847  -0.38646
 Alpha  occ. eigenvalues --   -0.38487  -0.38457  -0.38372  -0.38244  -0.38086
 Alpha  occ. eigenvalues --   -0.38008  -0.37890  -0.37799  -0.37677  -0.37647
 Alpha  occ. eigenvalues --   -0.37469  -0.37462  -0.37254  -0.37185  -0.36884
 Alpha  occ. eigenvalues --   -0.36853  -0.36707  -0.36404  -0.36346  -0.35945
 Alpha  occ. eigenvalues --   -0.35740  -0.35738  -0.35552  -0.35472  -0.35107
 Alpha  occ. eigenvalues --   -0.34984  -0.34830  -0.34067  -0.33882  -0.33490
 Alpha  occ. eigenvalues --   -0.33332  -0.33038  -0.32824  -0.32809  -0.32695
 Alpha  occ. eigenvalues --   -0.32363  -0.31953  -0.31737  -0.31204  -0.30861
 Alpha  occ. eigenvalues --   -0.30763  -0.30614  -0.29556  -0.29519  -0.28975
 Alpha  occ. eigenvalues --   -0.28791  -0.28656  -0.28491  -0.26612  -0.26516
 Alpha  occ. eigenvalues --   -0.26433  -0.26343  -0.25739  -0.25577  -0.25373
 Alpha  occ. eigenvalues --   -0.25192  -0.25003  -0.24392  -0.20742  -0.20510
 Alpha  occ. eigenvalues --   -0.18893  -0.18668
 Alpha virt. eigenvalues --   -0.11287  -0.11066  -0.05071  -0.04878  -0.03758
 Alpha virt. eigenvalues --   -0.03633  -0.01933  -0.01929  -0.01636  -0.00176
 Alpha virt. eigenvalues --    0.00343   0.00691   0.00985   0.01086   0.01701

 Mulliken charges:
               1
     1  Mg  11.999237
     2  C    5.975582
     3  C    6.007078
     4  C    6.016655
     5  C    5.999215
     6  N    6.985657
     7  C    6.033793
     8  C    5.994206
     9  C    6.011228
    10  C    5.969188
    11  C    5.999848
    12  C    5.998337
    13  C    6.002588
    14  H    0.997593
    15  N    7.006710
    16  C    5.964681
    17  C    5.980133
    18  C    5.983116
    19  C    5.972770
    20  C    6.005946
    21  C    5.986741
    22  O    7.975255
    23  C    6.004207
    24  N    7.001660
    25  C    5.972962
    26  C    6.011031
    27  C    5.996811
    28  C    6.025264
    29  C    6.000409
    30  C    5.995099
    31  C    5.993138
    32  N    6.998547
    33  C    6.028875
    34  C    6.037124
    35  C    5.998641
    36  C    6.031910
    37  C    5.997769
    38  C    6.014908
    39  O    8.027706
    40  C    6.002782
    41  C    6.003737
    42  O    8.003595
    43  O    8.001465
    44  C    5.998952
    45  H    0.990838
    46  H    0.995159
    47  H    1.011204
    48  H    0.997453
    49  H    0.995496
    50  H    0.988962
    51  H    1.003275
    52  H    0.997567
    53  H    0.997831
    54  H    0.995843
    55  H    1.006451
    56  H    1.001834
    57  H    0.983305
    58  H    0.980365
    59  H    0.981579
    60  H    0.991640
    61  H    0.987017
    62  H    0.996451
    63  H    0.998903
    64  H    0.998932
    65  H    1.007149
    66  H    0.991820
    67  H    0.999078
    68  H    1.010781
    69  H    0.998667
    70  H    1.009228
    71  H    1.007372
    72  H    0.993773
    73  H    1.021650
    74  H    1.012740
    75  H    1.019663
    76  H    1.006133
    77  H    1.005811
    78  H    1.001828
    79  H    1.002055
    80  Mg  11.999975
    81  C    6.000395
    82  C    5.999684
    83  C    5.999450
    84  C    5.999981
    85  N    7.000063
    86  C    5.999230
    87  C    6.000365
    88  C    5.999923
    89  C    6.000785
    90  C    5.999946
    91  C    6.000089
    92  C    6.000026
    93  H    0.999916
    94  N    6.999984
    95  C    6.001026
    96  C    6.000527
    97  C    6.000532
    98  C    6.000746
    99  C    5.999883
   100  C    6.000403
   101  O    8.000743
   102  C    5.999885
   103  N    6.999869
   104  C    6.000928
   105  C    5.999769
   106  C    6.000259
   107  C    5.999109
   108  C    6.000020
   109  C    6.000115
   110  C    6.000159
   111  N    6.999890
   112  C    5.999355
   113  C    5.998874
   114  C    6.000013
   115  C    5.999502
   116  C    6.000123
   117  C    5.999564
   118  O    7.999301
   119  C    5.999961
   120  C    5.999887
   121  O    7.999812
   122  O    7.999992
   123  C    6.000071
   124  H    1.000259
   125  H    1.000240
   126  H    0.999730
   127  H    0.999963
   128  H    0.999951
   129  H    1.000045
   130  H    1.000334
   131  H    0.999932
   132  H    0.999775
   133  H    1.000164
   134  H    0.999893
   135  H    1.000041
   136  H    1.000438
   137  H    1.000539
   138  H    1.000568
   139  H    1.000291
   140  H    1.000403
   141  H    1.000042
   142  H    0.999963
   143  H    0.999950
   144  H    1.000277
   145  H    0.999998
   146  H    0.999919
   147  H    0.999718
   148  H    1.000061
   149  H    0.999759
   150  H    1.000085
   151  H    0.999825
   152  H    0.999404
   153  H    0.999451
   154  H    0.999354
   155  H    0.999760
   156  H    0.999934
   157  H    0.999849
   158  H    0.999956
 Sum of Mulliken charges = 624.00000

 Dipole moment (field-independent basis, Debye):
    X=             -3.8426    Y=              0.1101    Z=             -9.5706  Tot=             10.3138
 Quadrupole moment (field-independent basis, Debye-Ang):
   XX=           -133.0028   YY=              1.8847   ZZ=             -4.1601
   XY=              6.7731   XZ=           -198.9484   YZ=              6.4169

 Normal termination of Gaussian 16 at Thu Oct 14 09:30:44 2021.
