 Gaussian 16, Revision A.03,
 Gaussian 16:  ES64L-G16RevA.03 25-Dec-2016

 --------------------------------------------------------
 #p PBE1PBE/Def2SVP td=(nstates=5) density=(transition=1)
 --------------------------------------------------------

 --------------------------------
 TDDFT excited states in gaussian
 --------------------------------
 Symbolic Z-matrix:
 Charge =  0 Multiplicity = 1

                         Standard orientation:
 ---------------------------------------------------------------------
 Center     Atomic      Atomic             Coordinates (Angstroms)
 Number     Number       Type             X           Y           Z
 ---------------------------------------------------------------------
      1         12           0      -21.509944    0.011885   -0.443831
      2          6           0      -18.184603   -0.185888    0.484906
      3          6           0      -21.956107   -3.299369    0.751726
      4          6           0      -24.905008    0.319843   -0.791485
      5          6           0      -21.173407    3.374714   -1.155962
      6          7           0      -20.158538   -1.566394    0.380222
      7          6           0      -18.849304   -1.365462    0.764019
      8          6           0      -18.239972   -2.551892    1.601121
      9          6           0      -19.326362   -3.696319    1.328712
     10          6           0      -20.592705   -2.862154    0.734383
     11          6           0      -18.944978   -4.918254    0.409026
     12          6           0      -18.058315   -2.277916    3.052619
     13          6           0      -16.680224   -2.321868    3.684377
     14          1           0      -16.632211   -2.705135    5.172180
     15          7           0      -23.201444   -1.354513   -0.155939
     16          6           0      -23.103828   -2.683961    0.296189
     17          6           0      -24.392924   -3.298124    0.260446
     18          6           0      -25.325427   -2.182470   -0.048545
     19          6           0      -24.502135   -0.969381   -0.344825
     20          6           0      -24.680538   -4.722270    0.747080
     21          6           0      -26.849534   -2.393441   -0.056818
     22          8           0      -27.458319   -3.427952    0.200657
     23          6           0      -27.699693   -1.172595   -0.065254
     24          7           0      -22.938911    1.730057   -0.753285
     25          6           0      -24.231725    1.510374   -1.028990
     26          6           0      -24.907279    2.880507   -1.062236
     27          6           0      -23.724394    3.936239   -1.275838
     28          6           0      -22.481370    2.958679   -1.077931
     29          6           0      -25.877747    2.959917   -2.293599
     30          6           0      -23.629975    5.213285   -0.343757
     31          6           0      -23.821914    6.607832   -0.920830
     32          7           0      -19.949932    1.362452   -0.437747
     33          6           0      -19.941414    2.715571   -0.790550
     34          6           0      -18.637899    3.266520   -0.578356
     35          6           0      -17.874880    2.172851   -0.064297
     36          6           0      -18.760300    1.025391   -0.059420
     37          6           0      -18.169559    4.669061   -0.806974
     38          6           0      -16.613814    1.727204    0.365024
     39          8           0      -15.584939    2.366837    0.453836
     40          6           0      -16.767623    0.222467    0.814038
     41          6           0      -15.640100   -0.547782    0.266252
     42          8           0      -14.690408   -0.924646    0.943515
     43          8           0      -15.812103   -0.744033   -1.095879
     44          6           0      -14.688233   -1.476360   -1.721682
     45          1           0      -22.205942   -4.320048    1.047338
     46          1           0      -25.984168    0.304439   -0.960121
     47          1           0      -21.096974    4.447371   -1.345091
     48          1           0      -17.285190   -2.847113    1.167384
     49          1           0      -19.658319   -4.044063    2.307624
     50          1           0      -17.863034   -4.894130    0.279348
     51          1           0      -19.439519   -4.927663   -0.562374
     52          1           0      -19.282351   -5.817621    0.922863
     53          1           0      -18.610844   -3.055704    3.581893
     54          1           0      -18.427706   -1.281200    3.291483
     55          1           0      -16.271865   -1.312082    3.655629
     56          1           0      -16.010522   -3.039181    3.210518
     57          1           0      -23.902712   -5.334106    1.203419
     58          1           0      -25.115708   -5.178860   -0.141540
     59          1           0      -25.570152   -4.596325    1.363364
     60          1           0      -28.010661   -0.738356   -1.014462
     61          1           0      -27.308456   -0.393182    0.588793
     62          1           0      -28.654957   -1.472809    0.366982
     63          1           0      -25.461342    3.101993   -0.149778
     64          1           0      -23.665228    4.226186   -2.324316
     65          1           0      -26.833430    3.323369   -1.915905
     66          1           0      -26.023447    2.026325   -2.838459
     67          1           0      -25.530229    3.639893   -3.071734
     68          1           0      -22.639306    5.135272    0.103571
     69          1           0      -24.441282    5.096376    0.376063
     70          1           0      -23.299915    7.271940   -0.231473
     71          1           0      -24.881554    6.861602   -0.884123
     72          1           0      -23.435378    6.846783   -1.911022
     73          1           0      -17.115022    4.679335   -0.530151
     74          1           0      -18.799304    5.321291   -0.202656
     75          1           0      -18.223119    5.014582   -1.839530
     76          1           0      -16.636004    0.265602    1.895730
     77          1           0      -13.929921   -0.773955   -2.067486
     78          1           0      -15.135825   -2.106304   -2.490372
     79          1           0      -14.229729   -2.182908   -1.030410
     80         12           0       20.949815    0.756660   -0.360859
     81          6           0       20.553351   -2.712669   -0.756807
     82          6           0       17.598349    0.982173    0.373285
     83          6           0       21.560068    3.823750    0.719002
     84          6           0       24.439887    0.345335   -0.878594
     85          7           0       19.355720   -0.720992    0.032975
     86          6           0       19.402423   -2.120438   -0.196103
     87          6           0       18.064983   -2.734638   -0.259645
     88          6           0       17.111520   -1.492181    0.012408
     89          6           0       18.067556   -0.314177    0.114294
     90          6           0       15.967961   -1.382271   -1.024999
     91          6           0       17.790674   -3.750043    0.807423
     92          6           0       18.372895   -3.464275    2.199729
     93          1           0       17.596733   -3.865842    3.514075
     94          7           0       19.747455    2.261746    0.417899
     95          6           0       18.406719    2.176252    0.511586
     96          6           0       17.894579    3.465952    0.901903
     97          6           0       19.008769    4.340091    0.940780
     98          6           0       20.189579    3.508373    0.657967
     99          6           0       16.460726    3.784227    1.230587
    100          6           0       18.955607    5.839449    1.232505
    101          8           0       17.901025    6.394829    1.470991
    102          6           0       20.113957    6.780675    1.382342
    103          7           0       22.749006    1.836920    0.130056
    104          6           0       22.735295    3.148290    0.524362
    105          6           0       24.153781    3.796675    0.406088
    106          6           0       25.063938    2.549758    0.190575
    107          6           0       24.038820    1.518806   -0.228323
    108          6           0       24.328286    4.809692   -0.751089
    109          6           0       25.738343    1.935077    1.506536
    110          6           0       27.184373    1.603000    1.426736
    111          7           0       22.224297   -0.743432   -0.825684
    112          6           0       23.517504   -0.706859   -1.174246
    113          6           0       23.888424   -1.965767   -1.924210
    114          6           0       22.693097   -2.743890   -1.805206
    115          6           0       21.767644   -2.015467   -1.005450
    116          6           0       25.192113   -2.368041   -2.598627
    117          6           0       22.170757   -4.058301   -2.044357
    118          8           0       22.686175   -5.036678   -2.561724
    119          6           0       20.731019   -4.070081   -1.388842
    120          6           0       20.782714   -5.043635   -0.229688
    121          8           0       21.377619   -4.926343    0.790273
    122          8           0       19.911718   -6.076216   -0.505126
    123          6           0       19.641269   -6.942200    0.646938
    124          1           0       16.511143    1.075879    0.409042
    125          1           0       21.760347    4.880875    0.901366
    126          1           0       25.496297    0.332606   -1.154757
    127          1           0       17.963988   -3.203499   -1.238449
    128          1           0       16.668868   -1.437368    1.006918
    129          1           0       15.114576   -1.242055   -0.361304
    130          1           0       15.951789   -2.320411   -1.579852
    131          1           0       16.050847   -0.499871   -1.659820
    132          1           0       17.965202   -4.779534    0.493586
    133          1           0       16.736126   -3.883432    1.049749
    134          1           0       18.572351   -2.392146    2.202170
    135          1           0       19.343773   -3.956794    2.142877
    136          1           0       16.389801    4.367971    2.148962
    137          1           0       15.875874    2.865040    1.262146
    138          1           0       16.128276    4.394947    0.390841
    139          1           0       20.759610    6.596548    2.240419
    140          1           0       19.597374    7.703880    1.645329
    141          1           0       20.598924    7.019311    0.435187
    142          1           0       24.356126    4.321327    1.339754
    143          1           0       25.811277    2.688510   -0.591092
    144          1           0       25.009425    4.381140   -1.486051
    145          1           0       24.511409    5.818657   -0.381915
    146          1           0       23.373165    4.914008   -1.264588
    147          1           0       25.188328    1.061945    1.856811
    148          1           0       25.595778    2.713502    2.256284
    149          1           0       27.778236    2.096482    2.195809
    150          1           0       27.626645    1.813831    0.452786
    151          1           0       27.365302    0.542047    1.597072
    152          1           0       25.514335   -3.291253   -2.116983
    153          1           0       25.853149   -1.500567   -2.586738
    154          1           0       24.916050   -2.656213   -3.612867
    155          1           0       19.952627   -4.334331   -2.104299
    156          1           0       19.709660   -6.417741    1.599921
    157          1           0       20.416755   -7.704953    0.576025
    158          1           0       18.710854   -7.459471    0.414292
 ---------------------------------------------------------------------

 SCF Done:  E(RPBE1PBE) =  -4067.35365914     A.U. after   16 cycles

 Excitation energies and oscillator strengths:

 Excited State   1:      Singlet-A      1.6883 eV  734.36 nm  f=0.0000  <S**2>=0.000
     312 -> 313        0.70710
 This state for optimization and/or second-order correction.
 Total Energy, E(TD-HF/TD-DFT) =  -4067.29161435
 Copying the excited state density for this state as the 1-particle RhoCI density.

 Excited State   2:      Singlet-A      1.8294 eV  677.74 nm  f=0.3607  <S**2>=0.000
     310 -> 316        0.16654
     312 -> 314        0.69529
     312 <- 314       -0.11480

 Excited State   3:      Singlet-A      1.8585 eV  667.12 nm  f=0.3617  <S**2>=0.000
     309 -> 315       -0.17022
     311 -> 313        0.69175
     311 <- 313       -0.10671

 Excited State   4:      Singlet-A      2.1844 eV  567.59 nm  f=0.1541  <S**2>=0.000
     309 -> 313        0.65882
     311 -> 315        0.23361

 Excited State   5:      Singlet-A      2.2466 eV  551.86 nm  f=0.0000  <S**2>=0.000
     311 -> 314        0.70711

 The electronic state is 1-A.
 Alpha  occ. eigenvalues --  -46.93871 -46.91936 -19.25836 -19.25232 -19.20564
 Alpha  occ. eigenvalues --  -19.20154 -19.19333 -19.19170 -19.18803 -19.18395
 Alpha  occ. eigenvalues --  -14.42965 -14.41856 -14.41558 -14.41384 -14.39642
 Alpha  occ. eigenvalues --  -14.39639 -14.39222 -14.39092 -10.36212 -10.36212
 Alpha  occ. eigenvalues --  -10.32253 -10.32111 -10.31697 -10.31546 -10.30688
 Alpha  occ. eigenvalues --  -10.29556 -10.29519 -10.29255 -10.28970 -10.28786
 Alpha  occ. eigenvalues --  -10.28778 -10.28638 -10.28589 -10.28462 -10.28411
 Alpha  occ. eigenvalues --  -10.28325 -10.28217 -10.28039 -10.27820 -10.27558
 Alpha  occ. eigenvalues --  -10.27243 -10.27198 -10.27046 -10.27017 -10.26521
 Alpha  occ. eigenvalues --  -10.26499 -10.26462 -10.26304 -10.26300 -10.26290
 Alpha  occ. eigenvalues --  -10.26226 -10.26119 -10.26107 -10.26091 -10.25909
 Alpha  occ. eigenvalues --  -10.25905 -10.25783 -10.25766 -10.25686 -10.25629
 Alpha  occ. eigenvalues --  -10.25611 -10.25323 -10.25146 -10.25129 -10.25034
 Alpha  occ. eigenvalues --  -10.24751 -10.24693 -10.24417 -10.24393 -10.24136
 Alpha  occ. eigenvalues --  -10.24095 -10.24056 -10.24030 -10.24017 -10.23936
 Alpha  occ. eigenvalues --  -10.23841 -10.23701 -10.23675 -10.23567 -10.23399
 Alpha  occ. eigenvalues --  -10.22969 -10.22881 -10.22870 -10.22774 -10.22751
 Alpha  occ. eigenvalues --  -10.22640  -3.15673  -3.14157  -1.88540  -1.88021
 Alpha  occ. eigenvalues --   -1.87896  -1.86959  -1.86537  -1.86398  -1.11967
 Alpha  occ. eigenvalues --   -1.10356  -1.05088  -1.04767  -1.04677  -1.04641
 Alpha  occ. eigenvalues --   -1.03753  -1.02387  -0.99683  -0.99184  -0.98778
 Alpha  occ. eigenvalues --   -0.98654  -0.97884  -0.97232  -0.97064  -0.96269
 Alpha  occ. eigenvalues --   -0.87510  -0.87055  -0.84114  -0.83784  -0.83712
 Alpha  occ. eigenvalues --   -0.83644  -0.82672  -0.82499  -0.82027  -0.81814
 Alpha  occ. eigenvalues --   -0.81722  -0.80607  -0.80080  -0.79959  -0.78979
 Alpha  occ. eigenvalues --   -0.78731  -0.78435  -0.78225  -0.77161  -0.76967
 Alpha  occ. eigenvalues --   -0.76383  -0.75863  -0.75275  -0.75128  -0.75127
 Alpha  occ. eigenvalues --   -0.74777  -0.72266  -0.72265  -0.71768  -0.71491
 Alpha  occ. eigenvalues --   -0.71195  -0.71101  -0.70529  -0.70328  -0.69874
 Alpha  occ. eigenvalues --   -0.69477  -0.68034  -0.67141  -0.66745  -0.66061
 Alpha  occ. eigenvalues --   -0.63908  -0.63786  -0.63565  -0.63261  -0.63004
 Alpha  occ. eigenvalues --   -0.62428  -0.61545  -0.61494  -0.60266  -0.60083
 Alpha  occ. eigenvalues --   -0.59906  -0.59777  -0.59592  -0.59330  -0.59031
 Alpha  occ. eigenvalues --   -0.58872  -0.57614  -0.56628  -0.54826  -0.54488
 Alpha  occ. eigenvalues --   -0.54399  -0.54047  -0.54032  -0.53695  -0.53492
 Alpha  occ. eigenvalues --   -0.53377  -0.52661  -0.52462  -0.51979  -0.51513
 Alpha  occ. eigenvalues --   -0.51156  -0.51082  -0.50520  -0.50504  -0.50030
 Alpha  occ. eigenvalues --   -0.49937  -0.49639  -0.49361  -0.49167  -0.48658
 Alpha  occ. eigenvalues --   -0.48518  -0.48302  -0.47835  -0.47584  -0.47538
 Alpha  occ. eigenvalues --   -0.47404  -0.47345  -0.47042  -0.46858  -0.46742
 Alpha  occ. eigenvalues --   -0.46715  -0.46592  -0.46231  -0.46149  -0.45964
 Alpha  occ. eigenvalues --   -0.45915  -0.45746  -0.45696  -0.45504  -0.44983
 Alpha  occ. eigenvalues --   -0.44822  -0.44588  -0.44325  -0.44198  -0.44190
 Alpha  occ. eigenvalues --   -0.43968  -0.43909  -0.43656  -0.43551  -0.43493
 Alpha  occ. eigenvalues --   -0.43394  -0.43363  -0.43167  -0.43042  -0.42977
 Alpha  occ. eigenvalues --   -0.42686  -0.42355  -0.42196  -0.41942  -0.41858
 Alpha  occ. eigenvalues --   -0.41777  -0.41777  -0.41573  -0.41466  -0.41425
 Alpha  occ. eigenvalues --   -0.41351  -0.41072  -0.40819  -0.40771  -0.40664
 Alpha  occ. eigenvalues --   -0.40570  -0.40523  -0.40376  -0.40220  -0.40177
 Alpha  occ. eigenvalues --   -0.39985  -0.39944  -0.39459  -0.39450  -0.39328
 Alpha  occ. eigenvalues --   -0.39137  -0.39040  -0.38814  -0.38690  -0.38669
 Alpha  occ. eigenvalues --   -0.38505  -0.38387  -0.38003  -0.37794  -0.37627
 Alpha  occ. eigenvalues --   -0.37553  -0.37346  -0.37297  -0.37140  -0.37051
 Alpha  occ. eigenvalues --   -0.37011  -0.36974  -0.36689  -0.36439  -0.36405
 Alpha  occ. eigenvalues --   -0.36049  -0.36038  -0.35627  -0.35325  -0.35240
 Alpha  occ. eigenvalues --   -0.34967  -0.34764  -0.34679  -0.34421  -0.34007
 Alpha  occ. eigenvalues --   -0.33392  -0.33386  -0.32887  -0.32807  -0.32468
 Alpha  occ. eigenvalues --   -0.32222  -0.32221  -0.32061  -0.31797  -0.31426
 Alpha  occ. eigenvalues --   -0.30947  -0.30714  -0.29879  -0.29793  -0.29380
 Alpha  occ. eigenvalues --   -0.29372  -0.28780  -0.28638  -0.27450  -0.26970
 Alpha  occ. eigenvalues --   -0.26120  -0.26059  -0.25828  -0.25573  -0.25474
 Alpha  occ. eigenvalues --   -0.25221  -0.25100  -0.25040  -0.21592  -0.21196
 Alpha  occ. eigenvalues --   -0.19778  -0.18674
 Alpha virt. eigenvalues --   -0.12158  -0.11208  -0.05877  -0.05288  -0.04154
 Alpha virt. eigenvalues --   -0.03972  -0.02244  -0.01876  -0.01295  -0.00411
 Alpha virt. eigenvalues --    0.00354   0.00606   0.00914   0.01044   0.01437

 Mulliken charges:
               1
     1  Mg  12.000000
     2  C    6.000000
     3  C    6.000000
     4  C    6.000000
     5  C    6.000000
     6  N    7.000000
     7  C    6.000000
     8  C    6.000000
     9  C    6.000000
    10  C    6.000000
    11  C    6.000000
    12  C    6.000000
    13  C    6.000000
    14  H    1.000000
    15  N    7.000000
    16  C    6.000000
    17  C    6.000000
    18  C    6.000000
    19  C    6.000000
    20  C    6.000000
    21  C    6.000000
    22  O    8.000000
    23  C    6.000000
    24  N    7.000000
    25  C    6.000000
    26  C    6.000000
    27  C    6.000000
    28  C    6.000000
    29  C    6.000000
    30  C    6.000000
    31  C    6.000000
    32  N    7.000000
    33  C    6.000000
    34  C    6.000000
    35  C    6.000000
    36  C    6.000000
    37  C    6.000000
    38  C    6.000000
    39  O    8.000000
    40  C    6.000000
    41  C    6.000000
    42  O    8.000000
    43  O    8.000000
    44  C    6.000000
    45  H    1.000000
    46  H    1.000000
    47  H    1.000000
    48  H    1.000000
    49  H    1.000000
    50  H    1.000000
    51  H    1.000000
    52  H    1.000000
    53  H    1.000000
    54  H    1.000000
    55  H    1.000000
    56  H    1.000000
    57  H    1.000000
    58  H    1.000000
    59  H    1.000000
    60  H    1.000000
    61  H    1.000000
    62  H    1.000000
    63  H    1.000000
    64  H    1.000000
    65  H    1.000000
    66  H    1.000000
    67  H    1.000000
    68  H    1.000000
    69  H    1.000000
    70  H    1.000000
    71  H    1.000000
    72  H    1.000000
    73  H    1.000000
    74  H    1.000000
    75  H    1.000000
    76  H    1.000000
    77  H    1.000000
    78  H    1.000000
    79  H    1.000000
    80  Mg  12.000000
    81  C    6.000000
    82  C    6.000000
    83  C    6.000000
    84  C    6.000000
    85  N    7.000000
    86  C    6.000000
    87  C    6.000000
    88  C    6.000000
    89  C    6.000000
    90  C    6.000000
    91  C    6.000000
    92  C    6.000000
    93  H    1.000000
    94  N    7.000000
    95  C    6.000000
    96  C    6.000000
    97  C    6.000000
    98  C    6.000000
    99  C    6.000000
   100  C    6.000000
   101  O    8.000000
   102  C    6.000000
   103  N    7.000000
   104  C    6.000000
   105  C    6.000000
   106  C    6.000000
   107  C    6.000000
   108  C    6.000000
   109  C    6.000000
   110  C    6.000000
   111  N    7.000000
   112  C    6.000000
   113  C    6.000000
   114  C    6.000000
   115  C    6.000000
   116  C    6.000000
   117  C    6.000000
   118  O    8.000000
   119  C    6.000000
   120  C    6.000000
   121  O    8.000000
   122  O    8.000000
   123  C    6.000000
   124  H    1.000000
   125  H    1.000000
   126  H    1.000000
   127  H    1.000000
   128  H    1.000000
   129  H    1.000000
   130  H    1.000000
   131  H    1.000000
   132  H    1.000000
   133  H    1.000000
   134  H    1.000000
   135  H    1.000000
   136  H    1.000000
   137  H    1.000000
   138  H    1.000000
   139  H    1.000000
   140  H    1.000000
   141  H    1.000000
   142  H    1.000000
   143  H    1.000000
   144  H    1.000000
   145  H    1.000000
   146  H    1.000000
   147  H    1.000000
   148  H    1.000000
   149  H    1.000000
   150  H    1.000000
   151  H    1.000000
   152  H    1.000000
   153  H    1.000000
   154  H    1.000000
   155  H    1.000000
   156  H    1.000000
   157  H    1.000000
   158  H    1.000000
 Sum of Mulliken charges = 624.00000

 Dipole moment (field-independent basis, Debye):
    X=              0.0000    Y=              0.0000    Z=              0.0000  Tot=              0.0000
 Quadrupole moment (field-independent basis, Debye-Ang):
   XX=             -0.0000   YY=             -0.0000   ZZ=              0.0000
   XY=             -0.0000   XZ=             -0.0000   YZ=              0.0000

 Normal termination of Gaussian 16 at Fri Oct 15 06:47:00 2021.
