 Gaussian 16, Revision A.03,
 Gaussian 16:  ES64L-G16RevA.03 25-Dec-2016

 --------------------------------------------------------
 #p PBE1PBE/Def2SVP td=(nstates=5) density=(transition=1)
 --------------------------------------------------------

 --------------------------------
 TDDFT excited states in gaussian
 --------------------------------
 Symbolic Z-matrix:
 Charge =  0 Multiplicity = 1

                         Standard orientation:
 ---------------------------------------------------------------------
 Center     Atomic      Atomic             Coordinates (Angstroms)
 Number     Number       Type             X           Y           Z
 ---------------------------------------------------------------------
      1         12           0       19.557818    0.053110   -0.584779
      2          6           0       17.073901    1.253381    1.611508
      3          6           0       20.533557   -2.159294    1.857478
      4          6           0       21.999322   -1.092224   -2.586726
      5          6           0       18.910753    2.687520   -2.794841
      6          7           0       18.745899   -0.415651    1.390654
      7          6           0       17.776852    0.113039    2.132425
      8          6           0       17.540189   -0.527286    3.516095
      9          6           0       18.893925   -1.388292    3.563823
     10          6           0       19.465394   -1.278406    2.171343
     11          6           0       19.874432   -0.920824    4.611876
     12          6           0       16.202404   -1.450034    3.607931
     13          6           0       15.634838   -1.545640    5.027148
     14          1           0       14.195032   -0.989312    5.173191
     15          7           0       20.991189   -1.555594   -0.477781
     16          6           0       21.247739   -2.322066    0.685960
     17          6           0       22.113812   -3.407946    0.285321
     18          6           0       22.541627   -3.141141   -1.012133
     19          6           0       21.835082   -1.895717   -1.447459
     20          6           0       22.624064   -4.476590    1.233520
     21          6           0       23.459976   -3.900708   -1.941892
     22          8           0       23.622386   -3.514516   -3.062519
     23          6           0       24.125992   -5.176874   -1.534014
     24          7           0       20.486187    0.796936   -2.319695
     25          6           0       21.434848    0.102624   -3.012295
     26          6           0       21.681775    0.893488   -4.326950
     27          6           0       20.399023    1.655297   -4.608231
     28          6           0       19.865309    1.772633   -3.161112
     29          6           0       22.822809    1.886928   -4.112568
     30          6           0       19.472704    0.984647   -5.553838
     31          6           0       19.170393   -0.481823   -5.369019
     32          7           0       18.254724    1.646641   -0.657841
     33          6           0       18.091046    2.650026   -1.594275
     34          6           0       16.997160    3.531520   -1.157817
     35          6           0       16.571202    2.994554    0.069499
     36          6           0       17.339324    1.889914    0.317975
     37          6           0       16.518123    4.734300   -1.849040
     38          6           0       15.564901    3.052703    1.095595
     39          8           0       14.573436    3.826598    1.240688
     40          6           0       15.869053    1.865296    2.126423
     41          6           0       16.136666    2.517343    3.458167
     42          8           0       16.875958    3.447423    3.588936
     43          8           0       15.496129    1.915550    4.575075
     44          6           0       16.009382    2.348319    5.910405
     45          1           0       20.891944   -2.833027    2.637821
     46          1           0       22.846077   -1.368540   -3.219051
     47          1           0       18.540548    3.422875   -3.512606
     48          1           0       17.417960    0.250249    4.271182
     49          1           0       18.551057   -2.397640    3.794660
     50          1           0       19.728135   -1.571772    5.473679
     51          1           0       19.793688    0.145873    4.822083
     52          1           0       20.842789   -1.225720    4.215243
     53          1           0       16.429688   -2.464402    3.278595
     54          1           0       15.440106   -1.090390    2.916507
     55          1           0       16.387426   -1.000172    5.596886
     56          1           0       15.685538   -2.560031    5.422340
     57          1           0       21.926608   -4.445722    2.069743
     58          1           0       23.571739   -4.061004    1.574826
     59          1           0       22.626496   -5.468540    0.781254
     60          1           0       23.257495   -5.835731   -1.530060
     61          1           0       24.562583   -5.162882   -0.535734
     62          1           0       24.871318   -5.469173   -2.274505
     63          1           0       21.990955    0.291501   -5.180719
     64          1           0       20.529561    2.636763   -5.062856
     65          1           0       22.599195    2.941425   -3.950582
     66          1           0       23.479898    1.816402   -4.979317
     67          1           0       23.410717    1.542502   -3.261020
     68          1           0       19.772662    1.133369   -6.591416
     69          1           0       18.536208    1.527797   -5.428470
     70          1           0       18.124423   -0.529374   -5.064697
     71          1           0       19.704493   -1.126329   -4.670213
     72          1           0       19.221902   -0.961925   -6.346106
     73          1           0       17.286937    5.502179   -1.763748
     74          1           0       15.580797    4.965862   -1.343300
     75          1           0       16.390535    4.556907   -2.917760
     76          1           0       14.987711    1.226010    2.071717
     77          1           0       15.610831    3.329365    6.168682
     78          1           0       17.098514    2.386711    5.960368
     79          1           0       15.686042    1.750923    6.762374
     80         12           0      -19.426715    0.396033    0.153450
     81          6           0      -18.218173   -2.798210    0.075361
     82          6           0      -16.089847    1.479693    0.748108
     83          6           0      -20.506916    3.577790   -0.155590
     84          6           0      -22.380370   -0.717619   -1.320604
     85          7           0      -17.251319   -0.593363    0.013542
     86          6           0      -17.097776   -1.932222    0.215037
     87          6           0      -15.636929   -2.263836    0.345054
     88          6           0      -14.926870   -0.853441    0.535178
     89          6           0      -16.135727    0.131132    0.448743
     90          6           0      -13.845602   -0.788483    1.551133
     91          6           0      -14.940063   -3.229228   -0.726291
     92          6           0      -15.451081   -3.209151   -2.136407
     93          1           0      -14.415438   -3.091397   -3.245852
     94          7           0      -18.480898    2.238437    0.514606
     95          6           0      -17.164944    2.478301    0.762568
     96          6           0      -16.888991    3.877348    0.904481
     97          6           0      -18.226823    4.515504    0.755257
     98          6           0      -19.152067    3.431048    0.360137
     99          6           0      -15.619392    4.529936    1.180570
    100          6           0      -18.615093    5.974308    0.948878
    101          8           0      -17.787005    6.799479    1.107199
    102          6           0      -20.001925    6.549085    0.864332
    103          7           0      -21.106669    1.284834   -0.732941
    104          6           0      -21.378261    2.586333   -0.552145
    105          6           0      -22.720052    3.006736   -1.352050
    106          6           0      -23.445681    1.573964   -1.361250
    107          6           0      -22.238675    0.684218   -1.182167
    108          6           0      -23.560875    4.113332   -0.709284
    109          6           0      -24.329249    1.360158   -2.603518
    110          6           0      -25.759208    0.824245   -2.466220
    111          7           0      -20.131135   -1.379137   -0.602113
    112          6           0      -21.362854   -1.729282   -1.141131
    113          6           0      -21.479226   -3.125896   -1.306998
    114          6           0      -20.297080   -3.639585   -0.799834
    115          6           0      -19.483150   -2.531778   -0.371356
    116          6           0      -22.652937   -3.894523   -1.830542
    117          6           0      -19.527874   -4.764131   -0.462789
    118          8           0      -19.819814   -5.944866   -0.641438
    119          6           0      -18.101898   -4.298486   -0.052149
    120          6           0      -17.865161   -5.030529    1.260626
    121          8           0      -16.858085   -5.729311    1.502024
    122          8           0      -18.865191   -4.656989    2.127226
    123          6           0      -18.817153   -4.983736    3.573396
    124          1           0      -15.034037    1.752828    0.802814
    125          1           0      -20.777734    4.595533   -0.443810
    126          1           0      -23.336612   -1.064634   -1.716733
    127          1           0      -15.502435   -2.876338    1.237351
    128          1           0      -14.425560   -0.643913   -0.409308
    129          1           0      -13.940743    0.056798    2.232608
    130          1           0      -12.854398   -0.866616    1.104442
    131          1           0      -13.925902   -1.648660    2.215841
    132          1           0      -14.997724   -4.289708   -0.480744
    133          1           0      -13.904992   -2.918718   -0.872202
    134          1           0      -16.310962   -2.560824   -2.301537
    135          1           0      -15.806078   -4.216734   -2.355361
    136          1           0      -15.005815    3.859931    1.782020
    137          1           0      -15.712252    5.483760    1.698527
    138          1           0      -15.139673    4.698955    0.215840
    139          1           0      -20.498221    5.655801    1.244338
    140          1           0      -20.311387    6.763560   -0.158097
    141          1           0      -20.211270    7.435855    1.462818
    142          1           0      -22.397245    3.229560   -2.369482
    143          1           0      -24.079558    1.303977   -0.516977
    144          1           0      -24.439218    3.631934   -0.278454
    145          1           0      -23.697277    4.939503   -1.406486
    146          1           0      -23.059463    4.602333    0.125390
    147          1           0      -23.784024    0.678461   -3.256842
    148          1           0      -24.328902    2.288500   -3.174925
    149          1           0      -26.565305    1.349784   -2.978418
    150          1           0      -26.044199    0.632297   -1.430965
    151          1           0      -25.645056   -0.201568   -2.815158
    152          1           0      -22.800395   -4.871706   -1.370051
    153          1           0      -22.522737   -4.031847   -2.904240
    154          1           0      -23.607096   -3.395048   -1.657575
    155          1           0      -17.486462   -4.660965   -0.874624
    156          1           0      -19.190992   -4.173154    4.198695
    157          1           0      -17.780254   -5.190587    3.838757
    158          1           0      -19.347689   -5.850337    3.965915
 ---------------------------------------------------------------------

 SCF Done:  E(RPBE1PBE) =  -4067.32039296     A.U. after   16 cycles

 Excitation energies and oscillator strengths:

 Excited State   1:      Singlet-A      1.7904 eV  692.50 nm  f=0.0000  <S**2>=0.000
     312 -> 313        0.70711
 This state for optimization and/or second-order correction.
 Total Energy, E(TD-HF/TD-DFT) =  -4067.25459734
 Copying the excited state density for this state as the 1-particle RhoCI density.

 Excited State   2:      Singlet-A      1.7943 eV  690.98 nm  f=0.3635  <S**2>=0.000
     309 -> 315        0.16554
     311 -> 313        0.69575
     311 <- 313       -0.11767

 Excited State   3:      Singlet-A      1.8249 eV  679.40 nm  f=0.3648  <S**2>=0.000
     310 -> 316       -0.17184
     312 -> 314        0.69433
     312 <- 314       -0.10916

 Excited State   4:      Singlet-A      2.0573 eV  602.65 nm  f=0.0000  <S**2>=0.000
     311 -> 314        0.70710

 Excited State   5:      Singlet-A      2.1559 eV  575.09 nm  f=0.1300  <S**2>=0.000
     308 -> 313        0.10080
     309 -> 313        0.65382
     311 -> 315       -0.23201

 The electronic state is 1-A.
 Alpha  occ. eigenvalues --  -46.93327 -46.92024 -19.26747 -19.25172 -19.20482
 Alpha  occ. eigenvalues --  -19.20248 -19.19036 -19.18723 -19.18492 -19.17589
 Alpha  occ. eigenvalues --  -14.42710 -14.42091 -14.41482 -14.41061 -14.39805
 Alpha  occ. eigenvalues --  -14.39236 -14.39198 -14.38884 -10.37415 -10.36456
 Alpha  occ. eigenvalues --  -10.32109 -10.32056 -10.31230 -10.30885 -10.29921
 Alpha  occ. eigenvalues --  -10.29631 -10.29337 -10.29177 -10.29025 -10.28938
 Alpha  occ. eigenvalues --  -10.28867 -10.28816 -10.28757 -10.28629 -10.28505
 Alpha  occ. eigenvalues --  -10.28261 -10.28211 -10.28153 -10.27942 -10.27490
 Alpha  occ. eigenvalues --  -10.26837 -10.26747 -10.26716 -10.26673 -10.26375
 Alpha  occ. eigenvalues --  -10.26316 -10.26214 -10.26208 -10.26114 -10.26097
 Alpha  occ. eigenvalues --  -10.25955 -10.25935 -10.25872 -10.25821 -10.25783
 Alpha  occ. eigenvalues --  -10.25752 -10.25569 -10.25396 -10.25372 -10.25241
 Alpha  occ. eigenvalues --  -10.25224 -10.25118 -10.24985 -10.24906 -10.24894
 Alpha  occ. eigenvalues --  -10.24870 -10.24723 -10.24575 -10.24517 -10.24377
 Alpha  occ. eigenvalues --  -10.24282 -10.24026 -10.23811 -10.23777 -10.23662
 Alpha  occ. eigenvalues --  -10.23625 -10.23528 -10.23346 -10.23067 -10.22955
 Alpha  occ. eigenvalues --  -10.22807 -10.22674 -10.22595 -10.22571 -10.22403
 Alpha  occ. eigenvalues --  -10.21899  -3.15379  -3.14101  -1.88175  -1.87789
 Alpha  occ. eigenvalues --   -1.87576  -1.86965  -1.86452  -1.86341  -1.10362
 Alpha  occ. eigenvalues --   -1.10305  -1.06627  -1.06355  -1.03886  -1.02234
 Alpha  occ. eigenvalues --   -1.01960  -1.01562  -0.99825  -0.99729  -0.98915
 Alpha  occ. eigenvalues --   -0.97968  -0.97833  -0.97607  -0.96887  -0.96409
 Alpha  occ. eigenvalues --   -0.87913  -0.87411  -0.84256  -0.84088  -0.83713
 Alpha  occ. eigenvalues --   -0.82986  -0.82980  -0.82717  -0.82157  -0.81988
 Alpha  occ. eigenvalues --   -0.81554  -0.81291  -0.80792  -0.80332  -0.78887
 Alpha  occ. eigenvalues --   -0.78845  -0.78206  -0.77896  -0.77358  -0.76819
 Alpha  occ. eigenvalues --   -0.76558  -0.76402  -0.75494  -0.75291  -0.74851
 Alpha  occ. eigenvalues --   -0.74221  -0.72979  -0.72774  -0.72095  -0.71668
 Alpha  occ. eigenvalues --   -0.71498  -0.71361  -0.70935  -0.70573  -0.69849
 Alpha  occ. eigenvalues --   -0.69330  -0.68043  -0.67002  -0.66191  -0.65748
 Alpha  occ. eigenvalues --   -0.64352  -0.64048  -0.63806  -0.63289  -0.62697
 Alpha  occ. eigenvalues --   -0.62298  -0.61395  -0.61147  -0.60640  -0.60197
 Alpha  occ. eigenvalues --   -0.60072  -0.59436  -0.59214  -0.58827  -0.58814
 Alpha  occ. eigenvalues --   -0.58089  -0.57889  -0.56386  -0.54820  -0.54763
 Alpha  occ. eigenvalues --   -0.54452  -0.53983  -0.53752  -0.53611  -0.53498
 Alpha  occ. eigenvalues --   -0.53065  -0.52602  -0.52281  -0.51963  -0.51818
 Alpha  occ. eigenvalues --   -0.51118  -0.50910  -0.50346  -0.50323  -0.49849
 Alpha  occ. eigenvalues --   -0.49628  -0.49237  -0.49062  -0.48956  -0.48645
 Alpha  occ. eigenvalues --   -0.48491  -0.48482  -0.48103  -0.47935  -0.47929
 Alpha  occ. eigenvalues --   -0.47708  -0.47692  -0.47116  -0.47048  -0.46514
 Alpha  occ. eigenvalues --   -0.46467  -0.46370  -0.46353  -0.46036  -0.45979
 Alpha  occ. eigenvalues --   -0.45943  -0.45639  -0.45470  -0.45352  -0.45350
 Alpha  occ. eigenvalues --   -0.45154  -0.44730  -0.44608  -0.44600  -0.44295
 Alpha  occ. eigenvalues --   -0.44294  -0.44117  -0.43957  -0.43837  -0.43819
 Alpha  occ. eigenvalues --   -0.43714  -0.43614  -0.43017  -0.42930  -0.42826
 Alpha  occ. eigenvalues --   -0.42462  -0.42386  -0.42293  -0.42181  -0.41982
 Alpha  occ. eigenvalues --   -0.41921  -0.41907  -0.41812  -0.41648  -0.41437
 Alpha  occ. eigenvalues --   -0.41161  -0.41055  -0.40905  -0.40753  -0.40419
 Alpha  occ. eigenvalues --   -0.40268  -0.40138  -0.40123  -0.40118  -0.40001
 Alpha  occ. eigenvalues --   -0.39733  -0.39603  -0.39541  -0.39118  -0.38954
 Alpha  occ. eigenvalues --   -0.38862  -0.38775  -0.38564  -0.38387  -0.38303
 Alpha  occ. eigenvalues --   -0.38014  -0.37929  -0.37831  -0.37639  -0.37486
 Alpha  occ. eigenvalues --   -0.37444  -0.37316  -0.37278  -0.37080  -0.36871
 Alpha  occ. eigenvalues --   -0.36744  -0.36681  -0.36521  -0.36397  -0.36389
 Alpha  occ. eigenvalues --   -0.36180  -0.35877  -0.35822  -0.35453  -0.35261
 Alpha  occ. eigenvalues --   -0.35194  -0.35102  -0.34701  -0.34443  -0.33916
 Alpha  occ. eigenvalues --   -0.33655  -0.33283  -0.33026  -0.32694  -0.32336
 Alpha  occ. eigenvalues --   -0.32304  -0.32101  -0.31810  -0.31443  -0.31211
 Alpha  occ. eigenvalues --   -0.31122  -0.30642  -0.29806  -0.29787  -0.29527
 Alpha  occ. eigenvalues --   -0.28956  -0.28804  -0.28561  -0.27133  -0.27119
 Alpha  occ. eigenvalues --   -0.26306  -0.25977  -0.25576  -0.25290  -0.25250
 Alpha  occ. eigenvalues --   -0.25248  -0.24916  -0.23716  -0.21387  -0.21022
 Alpha  occ. eigenvalues --   -0.19331  -0.18952
 Alpha virt. eigenvalues --   -0.12029  -0.11428  -0.05458  -0.05242  -0.03863
 Alpha virt. eigenvalues --   -0.03809  -0.02225  -0.01867  -0.01765  -0.00026
 Alpha virt. eigenvalues --    0.00046   0.00639   0.00743   0.00944   0.01356

 Mulliken charges:
               1
     1  Mg  12.000000
     2  C    6.000000
     3  C    6.000000
     4  C    6.000000
     5  C    6.000000
     6  N    7.000000
     7  C    6.000000
     8  C    6.000000
     9  C    6.000000
    10  C    6.000000
    11  C    6.000000
    12  C    6.000000
    13  C    6.000000
    14  H    1.000000
    15  N    7.000000
    16  C    6.000000
    17  C    6.000000
    18  C    6.000000
    19  C    6.000000
    20  C    6.000000
    21  C    6.000000
    22  O    8.000000
    23  C    6.000000
    24  N    7.000000
    25  C    6.000000
    26  C    6.000000
    27  C    6.000000
    28  C    6.000000
    29  C    6.000000
    30  C    6.000000
    31  C    6.000000
    32  N    7.000000
    33  C    6.000000
    34  C    6.000000
    35  C    6.000000
    36  C    6.000000
    37  C    6.000000
    38  C    6.000000
    39  O    8.000000
    40  C    6.000000
    41  C    6.000000
    42  O    8.000000
    43  O    8.000000
    44  C    6.000000
    45  H    1.000000
    46  H    1.000000
    47  H    1.000000
    48  H    1.000000
    49  H    1.000000
    50  H    1.000000
    51  H    1.000000
    52  H    1.000000
    53  H    1.000000
    54  H    1.000000
    55  H    1.000000
    56  H    1.000000
    57  H    1.000000
    58  H    1.000000
    59  H    1.000000
    60  H    1.000000
    61  H    1.000000
    62  H    1.000000
    63  H    1.000000
    64  H    1.000000
    65  H    1.000000
    66  H    1.000000
    67  H    1.000000
    68  H    1.000000
    69  H    1.000000
    70  H    1.000000
    71  H    1.000000
    72  H    1.000000
    73  H    1.000000
    74  H    1.000000
    75  H    1.000000
    76  H    1.000000
    77  H    1.000000
    78  H    1.000000
    79  H    1.000000
    80  Mg  12.000000
    81  C    6.000000
    82  C    6.000000
    83  C    6.000000
    84  C    6.000000
    85  N    7.000000
    86  C    6.000000
    87  C    6.000000
    88  C    6.000000
    89  C    6.000000
    90  C    6.000000
    91  C    6.000000
    92  C    6.000000
    93  H    1.000000
    94  N    7.000000
    95  C    6.000000
    96  C    6.000000
    97  C    6.000000
    98  C    6.000000
    99  C    6.000000
   100  C    6.000000
   101  O    8.000000
   102  C    6.000000
   103  N    7.000000
   104  C    6.000000
   105  C    6.000000
   106  C    6.000000
   107  C    6.000000
   108  C    6.000000
   109  C    6.000000
   110  C    6.000000
   111  N    7.000000
   112  C    6.000000
   113  C    6.000000
   114  C    6.000000
   115  C    6.000000
   116  C    6.000000
   117  C    6.000000
   118  O    8.000000
   119  C    6.000000
   120  C    6.000000
   121  O    8.000000
   122  O    8.000000
   123  C    6.000000
   124  H    1.000000
   125  H    1.000000
   126  H    1.000000
   127  H    1.000000
   128  H    1.000000
   129  H    1.000000
   130  H    1.000000
   131  H    1.000000
   132  H    1.000000
   133  H    1.000000
   134  H    1.000000
   135  H    1.000000
   136  H    1.000000
   137  H    1.000000
   138  H    1.000000
   139  H    1.000000
   140  H    1.000000
   141  H    1.000000
   142  H    1.000000
   143  H    1.000000
   144  H    1.000000
   145  H    1.000000
   146  H    1.000000
   147  H    1.000000
   148  H    1.000000
   149  H    1.000000
   150  H    1.000000
   151  H    1.000000
   152  H    1.000000
   153  H    1.000000
   154  H    1.000000
   155  H    1.000000
   156  H    1.000000
   157  H    1.000000
   158  H    1.000000
 Sum of Mulliken charges = 624.00000

 Dipole moment (field-independent basis, Debye):
    X=             -0.0000    Y=             -0.0000    Z=             -0.0000  Tot=              0.0000
 Quadrupole moment (field-independent basis, Debye-Ang):
   XX=              0.0000   YY=             -0.0000   ZZ=              0.0000
   XY=              0.0000   XZ=              0.0000   YZ=             -0.0000

 Normal termination of Gaussian 16 at Wed Oct 13 20:51:46 2021.
