 Gaussian 16, Revision A.03,
 Gaussian 16:  ES64L-G16RevA.03 25-Dec-2016

 ---------------------------------------------------
 #p PBE1PBE/Def2SVP td=(nstates=5) density=(current)
 ---------------------------------------------------

 --------------------------------
 TDDFT excited states in gaussian
 --------------------------------
 Symbolic Z-matrix:
 Charge =  0 Multiplicity = 1

                         Standard orientation:
 ---------------------------------------------------------------------
 Center     Atomic      Atomic             Coordinates (Angstroms)
 Number     Number       Type             X           Y           Z
 ---------------------------------------------------------------------
      1         12           0       -0.727490    0.018221    0.432687
      2          6           0        2.784361    0.290181    0.162843
      3          6           0       -0.540799   -3.234828   -0.074527
      4          6           0       -4.088400    0.055333   -0.180290
      5          6           0       -0.804469    3.680724   -0.072618
      6          7           0        0.971313   -1.282022    0.027937
      7          6           0        2.280998   -1.011339    0.203275
      8          6           0        3.066259   -2.336056    0.267008
      9          6           0        2.036910   -3.419346    0.219432
     10          6           0        0.712435   -2.626497    0.003072
     11          6           0        2.403785   -4.575402   -0.798516
     12          6           0        4.119642   -2.525379    1.409330
     13          6           0        4.382975   -3.930707    2.101947
     14          1           0        5.835485   -4.368653    2.340352
     15          7           0       -2.135969   -1.450104    0.185175
     16          6           0       -1.838883   -2.781113   -0.002487
     17          6           0       -3.080360   -3.495855   -0.091770
     18          6           0       -4.186560   -2.562628   -0.168520
     19          6           0       -3.489027   -1.259201   -0.108158
     20          6           0       -3.027337   -4.961312   -0.251047
     21          6           0       -5.714974   -2.806630   -0.221942
     22          8           0       -6.462743   -1.890973   -0.326400
     23          6           0       -6.277190   -4.151329    0.106468
     24          7           0       -2.206709    1.670259   -0.114471
     25          6           0       -3.517286    1.341882   -0.163173
     26          6           0       -4.428997    2.594109   -0.366131
     27          6           0       -3.404908    3.767858   -0.294983
     28          6           0       -2.043880    3.039470   -0.169058
     29          6           0       -5.232999    2.615498   -1.638907
     30          6           0       -3.576951    4.832095    0.844664
     31          6           0       -3.139018    4.493518    2.229459
     32          7           0        0.603732    1.726407    0.121245
     33          6           0        0.413426    3.073065   -0.000308
     34          6           0        1.693274    3.738633    0.008162
     35          6           0        2.679750    2.719246    0.066588
     36          6           0        1.957738    1.508662    0.086736
     37          6           0        1.970250    5.184934   -0.205547
     38          6           0        4.084720    2.426906    0.066649
     39          8           0        5.090492    3.127398    0.068417
     40          6           0        4.221065    0.842246    0.179009
     41          6           0        5.169274    0.253436   -0.851874
     42          8           0        4.968668    0.276068   -2.038796
     43          8           0        6.242787   -0.333379   -0.200963
     44          6           0        7.233924   -0.900009   -1.116351
     45          1           0       -0.569326   -4.326029   -0.033339
     46          1           0       -5.168240   -0.017111   -0.323867
     47          1           0       -0.824009    4.771635   -0.115019
     48          1           0        3.639542   -2.219518   -0.652714
     49          1           0        2.047604   -3.921914    1.186990
     50          1           0        3.416471   -4.421273   -1.170733
     51          1           0        1.602149   -4.631436   -1.534902
     52          1           0        2.501946   -5.534207   -0.289102
     53          1           0        3.828973   -1.848458    2.213067
     54          1           0        5.107789   -2.172624    1.112821
     55          1           0        3.880686   -4.647672    1.452203
     56          1           0        3.865476   -3.954568    3.061046
     57          1           0       -3.851420   -5.211478   -0.918804
     58          1           0       -3.247375   -5.395246    0.723625
     59          1           0       -2.135952   -5.470890   -0.617298
     60          1           0       -6.330652   -4.623366   -0.873693
     61          1           0       -7.205589   -4.022074    0.663605
     62          1           0       -5.615721   -4.802267    0.678593
     63          1           0       -5.082087    2.763805    0.490129
     64          1           0       -3.216556    4.373008   -1.181231
     65          1           0       -5.206301    1.649055   -2.143946
     66          1           0       -4.841209    3.330869   -2.362472
     67          1           0       -6.250796    2.860054   -1.335977
     68          1           0       -4.624175    5.126312    0.915202
     69          1           0       -3.136376    5.764882    0.491940
     70          1           0       -3.122514    3.410793    2.355585
     71          1           0       -3.724306    4.800188    3.096632
     72          1           0       -2.174512    4.988779    2.345885
     73          1           0        1.623017    5.581912   -1.159019
     74          1           0        3.042143    5.245691   -0.395487
     75          1           0        1.634028    5.790962    0.636207
     76          1           0        4.590826    0.650526    1.186494
     77          1           0        6.967779   -1.904251   -0.788010
     78          1           0        8.179932   -0.539774   -0.712815
     79          1           0        7.040466   -0.659983   -2.162069
 ---------------------------------------------------------------------

 SCF Done:  E(RPBE1PBE) =  -2033.67427611     A.U. after   16 cycles

 Excitation energies and oscillator strengths:

 Excited State   1:      Singlet-A      1.8611 eV  666.20 nm  f=0.3714  <S**2>=0.000
     155 ->158         0.17932
     156 ->157         0.69127
     156 <-157        -0.10765
 This state for optimization and/or second-order correction.
 Total Energy, E(TD-HF/TD-DFT) =  -2033.60588331
 Copying the excited state density for this state as the 1-particle RhoCI density.

 Excited State   2:      Singlet-A      2.1921 eV  565.60 nm  f=0.1044  <S**2>=0.000
     155 ->157         0.65383
     156 ->158        -0.25422

 Excited State   3:      Singlet-A      2.9857 eV  415.25 nm  f=0.0008  <S**2>=0.000
     152 ->157         0.30331
     154 ->157         0.62068

 Excited State   4:      Singlet-A      3.0573 eV  405.54 nm  f=0.0003  <S**2>=0.000
     152 ->157         0.50976
     152 ->159         0.11530
     153 ->157         0.35538
     154 ->157        -0.28729

 Excited State   5:      Singlet-A      3.1387 eV  395.02 nm  f=0.0013  <S**2>=0.000
     152 ->157        -0.32360
     153 ->157         0.57262
     154 ->157         0.13613
     156 ->158         0.18327

 The electronic state is 1-A.
 Alpha  occ. eigenvalues --  -46.93396 -19.25461 -19.20265 -19.19696 -19.18914
 Alpha  occ. eigenvalues --  -14.41757 -14.41251 -14.39138 -14.38518 -10.36143
 Alpha  occ. eigenvalues --  -10.32776 -10.31980 -10.29289 -10.28882 -10.28553
 Alpha  occ. eigenvalues --  -10.28525 -10.28407 -10.28199 -10.27154 -10.27031
 Alpha  occ. eigenvalues --  -10.26795 -10.26361 -10.26266 -10.26073 -10.25824
 Alpha  occ. eigenvalues --  -10.25592 -10.25499 -10.25455 -10.25299 -10.25239
 Alpha  occ. eigenvalues --  -10.25082 -10.24415 -10.24405 -10.24340 -10.24009
 Alpha  occ. eigenvalues --  -10.23981 -10.23837 -10.23791 -10.23779 -10.22856
 Alpha  occ. eigenvalues --  -10.22682 -10.22567 -10.22377  -3.15289  -1.88099
 Alpha  occ. eigenvalues --   -1.87670  -1.87501  -1.11086  -1.07590  -1.04003
 Alpha  occ. eigenvalues --   -1.03404  -0.98831  -0.97787  -0.97131  -0.96482
 Alpha  occ. eigenvalues --   -0.85988  -0.83558  -0.83153  -0.82553  -0.81697
 Alpha  occ. eigenvalues --   -0.81424  -0.80455  -0.78272  -0.77958  -0.76667
 Alpha  occ. eigenvalues --   -0.76242  -0.75168  -0.74768  -0.72588  -0.71444
 Alpha  occ. eigenvalues --   -0.71404  -0.70205  -0.69028  -0.66805  -0.65878
 Alpha  occ. eigenvalues --   -0.64104  -0.63645  -0.62707  -0.61330  -0.59491
 Alpha  occ. eigenvalues --   -0.58780  -0.58646  -0.58516  -0.56276  -0.54535
 Alpha  occ. eigenvalues --   -0.54097  -0.53390  -0.52941  -0.52559  -0.51947
 Alpha  occ. eigenvalues --   -0.50616  -0.50424  -0.49918  -0.49612  -0.49176
 Alpha  occ. eigenvalues --   -0.48635  -0.48165  -0.47751  -0.47419  -0.46960
 Alpha  occ. eigenvalues --   -0.46381  -0.45731  -0.45500  -0.45374  -0.45177
 Alpha  occ. eigenvalues --   -0.44852  -0.44656  -0.44143  -0.43872  -0.43636
 Alpha  occ. eigenvalues --   -0.43389  -0.43239  -0.42933  -0.42323  -0.41910
 Alpha  occ. eigenvalues --   -0.41850  -0.41476  -0.40777  -0.40505  -0.40287
 Alpha  occ. eigenvalues --   -0.40183  -0.39366  -0.39328  -0.39055  -0.38871
 Alpha  occ. eigenvalues --   -0.38510  -0.38396  -0.38110  -0.37823  -0.37700
 Alpha  occ. eigenvalues --   -0.37486  -0.37209  -0.36908  -0.36731  -0.36430
 Alpha  occ. eigenvalues --   -0.35762  -0.35496  -0.35008  -0.34092  -0.33905
 Alpha  occ. eigenvalues --   -0.33063  -0.32849  -0.32387  -0.31977  -0.30885
 Alpha  occ. eigenvalues --   -0.30787  -0.29543  -0.28814  -0.28680  -0.26539
 Alpha  occ. eigenvalues --   -0.26457  -0.25601  -0.25397  -0.25027  -0.20766
 Alpha  occ. eigenvalues --   -0.18691
 Alpha virt. eigenvalues --   -0.11090  -0.05095  -0.03782  -0.01956  -0.01659
 Alpha virt. eigenvalues --    0.00317   0.00961   0.01713   0.03338   0.04622
 Alpha virt. eigenvalues --    0.04992   0.05396   0.06169   0.06469   0.06999

 Mulliken charges:
               1
     1  Mg   0.943519
     2  C   -0.027673
     3  C   -0.057482
     4  C   -0.060325
     5  C   -0.088831
     6  N   -0.415408
     7  C    0.025127
     8  C   -0.054302
     9  C   -0.171586
    10  C    0.123728
    11  C    0.012700
    12  C   -0.045413
    13  C   -0.147301
    14  H    0.060914
    15  N   -0.537386
    16  C    0.155447
    17  C   -0.158232
    18  C   -0.087448
    19  C    0.128289
    20  C    0.024348
    21  C    0.053470
    22  O   -0.209713
    23  C   -0.025789
    24  N   -0.352687
    25  C    0.092222
    26  C   -0.095996
    27  C   -0.074171
    28  C    0.035461
    29  C    0.027490
    30  C   -0.061013
    31  C   -0.050876
    32  N   -0.429833
    33  C    0.175147
    34  C   -0.186295
    35  C   -0.033384
    36  C    0.127969
    37  C    0.053959
    38  C    0.140943
    39  O   -0.224890
    40  C   -0.096737
    41  C    0.274308
    42  O   -0.234098
    43  O   -0.381907
    44  C    0.103144
    45  H   -0.007658
    46  H    0.030519
    47  H   -0.000355
    48  H    0.067853
    49  H    0.060909
    50  H    0.049146
    51  H    0.057081
    52  H    0.038410
    53  H    0.040452
    54  H    0.061493
    55  H    0.047192
    56  H    0.061940
    57  H    0.043687
    58  H    0.059435
    59  H    0.058500
    60  H    0.066755
    61  H    0.072305
    62  H    0.041375
    63  H    0.053982
    64  H    0.050269
    65  H    0.053606
    66  H    0.041046
    67  H    0.047601
    68  H    0.034199
    69  H    0.031504
    70  H    0.047332
    71  H    0.038931
    72  H    0.045318
    73  H    0.049275
    74  H    0.056523
    75  H    0.056424
    76  H    0.078946
    77  H    0.055087
    78  H    0.072175
    79  H    0.089335
 Sum of Mulliken charges =  -0.00000

 Dipole moment (field-independent basis, Debye):
    X=             -2.1693    Y=             -3.6669    Z=              2.5457  Tot=              4.9631
 Quadrupole moment (field-independent basis, Debye-Ang):
   XX=           -271.1463   YY=           -223.9026   ZZ=           -258.3904
   XY=            -27.7922   XZ=             -0.4813   YZ=             -0.3767

 Normal termination of Gaussian 16 at Wed Oct 13 16:30:11 2021.
