 Gaussian 16, Revision A.03,
 Gaussian 16:  ES64L-G16RevA.03 25-Dec-2016

 --------------------------------------------------------
 #p PBE1PBE/Def2SVP td=(nstates=5) density=(transition=1)
 --------------------------------------------------------

 --------------------------------
 TDDFT excited states in gaussian
 --------------------------------
 Symbolic Z-matrix:
 Charge =  0 Multiplicity = 1

                         Standard orientation:
 ---------------------------------------------------------------------
 Center     Atomic      Atomic             Coordinates (Angstroms)
 Number     Number       Type             X           Y           Z
 ---------------------------------------------------------------------
      1         12           0      -22.948081    0.578863    0.303258
      2          6           0      -22.097627   -2.464598   -1.131471
      3          6           0      -21.646839    2.209607   -2.346565
      4          6           0      -23.656777    3.451548    1.868606
      5          6           0      -24.126812   -1.198337    3.080691
      6          7           0      -22.009702   -0.138116   -1.538173
      7          6           0      -21.847327   -1.368186   -1.963394
      8          6           0      -21.201660   -1.291415   -3.423082
      9          6           0      -20.477343    0.028911   -3.266366
     10          6           0      -21.462696    0.806769   -2.337203
     11          6           0      -19.055418   -0.202951   -2.711317
     12          6           0      -22.312401   -1.504212   -4.539429
     13          6           0      -21.768244   -1.921827   -5.909050
     14          1           0      -20.269734   -1.863073   -6.150297
     15          7           0      -22.854008    2.525482   -0.240225
     16          6           0      -22.338159    2.995705   -1.445599
     17          6           0      -22.660703    4.451428   -1.535021
     18          6           0      -23.208414    4.859020   -0.244904
     19          6           0      -23.167838    3.581910    0.515867
     20          6           0      -22.365345    5.281100   -2.762065
     21          6           0      -23.771698    6.264354    0.266972
     22          8           0      -24.279212    6.435204    1.380581
     23          6           0      -23.676934    7.422912   -0.703787
     24          7           0      -23.647183    1.053622    2.192098
     25          6           0      -23.845575    2.297627    2.619688
     26          6           0      -24.288398    2.360031    4.114119
     27          6           0      -24.648499    0.885944    4.348495
     28          6           0      -24.173336    0.177808    3.118840
     29          6           0      -23.214778    2.923448    5.086535
     30          6           0      -26.123060    0.534043    4.839073
     31          6           0      -27.069925   -0.024477    3.828262
     32          7           0      -22.918767   -1.393485    0.994700
     33          6           0      -23.477660   -1.973225    2.083484
     34          6           0      -23.293667   -3.380143    2.124284
     35          6           0      -22.736998   -3.645959    0.833717
     36          6           0      -22.563070   -2.412150    0.249434
     37          6           0      -23.565357   -4.444035    3.156047
     38          6           0      -22.277614   -4.636747   -0.093489
     39          8           0      -22.208362   -5.844769   -0.021566
     40          6           0      -21.984670   -3.957794   -1.469378
     41          6           0      -20.659032   -4.364435   -1.945244
     42          8           0      -19.635783   -4.113799   -1.326761
     43          8           0      -20.692885   -5.220561   -3.075589
     44          6           0      -19.395649   -5.752710   -3.521471
     45          1           0      -21.156992    2.700506   -3.188761
     46          1           0      -23.836016    4.405305    2.367751
     47          1           0      -24.458706   -1.714223    3.983726
     48          1           0      -20.525961   -2.132708   -3.571212
     49          1           0      -20.426514    0.624791   -4.177309
     50          1           0      -18.430791    0.089753   -3.555948
     51          1           0      -18.868337   -1.242663   -2.439589
     52          1           0      -18.917967    0.539551   -1.925562
     53          1           0      -22.875974   -0.582572   -4.687295
     54          1           0      -22.911710   -2.341098   -4.180130
     55          1           0      -22.272513   -1.297460   -6.645959
     56          1           0      -22.112199   -2.940714   -6.085302
     57          1           0      -22.470765    4.693883   -3.675010
     58          1           0      -21.397562    5.779814   -2.803650
     59          1           0      -23.128535    6.054887   -2.843740
     60          1           0      -22.629604    7.414819   -1.004746
     61          1           0      -23.864162    8.401584   -0.262869
     62          1           0      -24.391736    7.284292   -1.515090
     63          1           0      -25.164037    2.996101    4.242708
     64          1           0      -23.918666    0.523964    5.071737
     65          1           0      -23.252402    2.268678    5.957484
     66          1           0      -23.319438    3.964260    5.388953
     67          1           0      -22.254625    2.897210    4.571181
     68          1           0      -26.530586    1.405095    5.352322
     69          1           0      -26.068071   -0.278615    5.563052
     70          1           0      -27.264172   -1.061321    4.103733
     71          1           0      -26.668315   -0.179127    2.826057
     72          1           0      -28.039760    0.471908    3.793033
     73          1           0      -23.914584   -4.027141    4.101343
     74          1           0      -22.687695   -5.085350    3.241878
     75          1           0      -24.401258   -5.114419    2.955001
     76          1           0      -22.720977   -4.235932   -2.222964
     77          1           0      -19.412805   -6.262299   -4.484548
     78          1           0      -19.129525   -6.447955   -2.724820
     79          1           0      -18.709067   -4.907995   -3.479278
     80         12           0       22.970667    0.494730   -0.249705
     81          6           0       21.441034   -2.507213    0.314588
     82          6           0       19.735351    1.860423   -0.824366
     83          6           0       24.395678    3.548453   -0.423013
     84          6           0       25.877164   -0.744662    1.217713
     85          7           0       20.716445   -0.218265    0.125726
     86          6           0       20.411121   -1.546176    0.113539
     87          6           0       18.918311   -1.725797    0.099254
     88          6           0       18.349627   -0.280814   -0.244500
     89          6           0       19.658087    0.564876   -0.349044
     90          6           0       17.220065   -0.225951   -1.207103
     91          6           0       18.192024   -2.461394    1.322686
     92          6           0       18.789016   -2.317921    2.691257
     93          1           0       17.842430   -1.943339    3.823050
     94          7           0       22.202650    2.369886   -0.809522
     95          6           0       20.906247    2.721992   -1.024265
     96          6           0       20.770237    4.113299   -1.339530
     97          6           0       22.174289    4.611236   -1.341543
     98          6           0       23.003479    3.489603   -0.848975
     99          6           0       19.561375    4.863281   -1.639789
    100          6           0       22.700599    5.980297   -1.747773
    101          8           0       21.955374    6.865938   -1.975767
    102          6           0       24.142617    6.401986   -1.807630
    103          7           0       24.786408    1.295898    0.427876
    104          6           0       25.181213    2.524687    0.061056
    105          6           0       26.606818    2.891135    0.732142
    106          6           0       27.177360    1.399133    0.899083
    107          6           0       25.874920    0.634782    0.899096
    108          6           0       27.517444    3.804738   -0.092950
    109          6           0       28.109161    1.248821    2.115138
    110          6           0       29.463718    0.542762    1.982891
    111          7           0       23.530662   -1.236478    0.702993
    112          6           0       24.749992   -1.650446    1.224663
    113          6           0       24.729354   -3.018383    1.570939
    114          6           0       23.470624   -3.457080    1.194504
    115          6           0       22.752292   -2.329203    0.660459
    116          6           0       25.846264   -3.840189    2.136300
    117          6           0       22.568274   -4.522169    1.048789
    118          8           0       22.745329   -5.695434    1.370315
    119          6           0       21.176231   -3.956127    0.647952
    120          6           0       20.782868   -4.819414   -0.541716
    121          8           0       19.695016   -5.426015   -0.638601
    122          8           0       21.760724   -4.674726   -1.497462
    123          6           0       21.588859   -5.176932   -2.882644
    124          1           0       18.712657    2.240944   -0.864738
    125          1           0       24.789122    4.557927   -0.287446
    126          1           0       26.814515   -1.142992    1.610705
    127          1           0       18.665109   -2.428787   -0.695187
    128          1           0       17.932756    0.103101    0.686142
    129          1           0       17.360762    0.508818   -1.999743
    130          1           0       16.255836   -0.134444   -0.707090
    131          1           0       17.168233   -1.167867   -1.753269
    132          1           0       18.122781   -3.544340    1.219394
    133          1           0       17.206308   -2.020620    1.474866
    134          1           0       19.720737   -1.754318    2.726470
    135          1           0       19.049321   -3.322467    3.026393
    136          1           0       18.844717    4.194689   -2.115724
    137          1           0       19.721357    5.726248   -2.285059
    138          1           0       19.162944    5.207456   -0.684698
    139          1           0       24.517909    5.417339   -2.087444
    140          1           0       24.535835    6.709854   -0.839269
    141          1           0       24.406177    7.175481   -2.529165
    142          1           0       26.373048    3.277495    1.724663
    143          1           0       27.725701    0.953640    0.069415
    144          1           0       28.311965    3.176580   -0.496682
    145          1           0       27.782815    4.693013    0.479587
    146          1           0       27.019151    4.235677   -0.960828
    147          1           0       27.537140    0.722105    2.879452
    148          1           0       28.241695    2.236963    2.555975
    149          1           0       30.350760    1.035954    2.380696
    150          1           0       29.662083    0.188778    0.970388
    151          1           0       29.264543   -0.410449    2.471563
    152          1           0       25.861517   -4.878718    1.804775
    153          1           0       25.769396   -3.823085    3.223699
    154          1           0       26.834927   -3.477231    1.852367
    155          1           0       20.578515   -4.138711    1.540149
    156          1           0       22.006030   -4.500399   -3.628345
    157          1           0       20.521504   -5.298533   -3.067924
    158          1           0       22.000156   -6.140732   -3.180066
 ---------------------------------------------------------------------

 SCF Done:  E(RPBE1PBE) =  -4067.33566431     A.U. after   16 cycles

 Excitation energies and oscillator strengths:

 Excited State   1:      Singlet-A      1.7944 eV  690.97 nm  f=0.3667  <S**2>=0.000
     309 -> 315        0.16552
     311 -> 313        0.69590
     311 <- 313       -0.11768
 This state for optimization and/or second-order correction.
 Total Energy, E(TD-HF/TD-DFT) =  -4067.26972301
 Copying the excited state density for this state as the 1-particle RhoCI density.

 Excited State   2:      Singlet-A      1.8017 eV  688.16 nm  f=0.0000  <S**2>=0.000
     312 -> 313        0.70711

 Excited State   3:      Singlet-A      1.8723 eV  662.20 nm  f=0.3812  <S**2>=0.000
     310 -> 316        0.17564
     312 -> 314        0.69312
     312 <- 314       -0.10657

 Excited State   4:      Singlet-A      2.1173 eV  585.56 nm  f=0.0000  <S**2>=0.000
     311 -> 314        0.70711

 Excited State   5:      Singlet-A      2.1559 eV  575.10 nm  f=0.1302  <S**2>=0.000
     308 -> 313        0.10034
     309 -> 313        0.65391
     311 -> 315       -0.23180

 The electronic state is 1-A.
 Alpha  occ. eigenvalues --  -46.93352 -46.91173 -19.26766 -19.24618 -19.20501
 Alpha  occ. eigenvalues --  -19.20483 -19.19720 -19.18514 -19.18335 -19.17619
 Alpha  occ. eigenvalues --  -14.42115 -14.41507 -14.41379 -14.41092 -14.39831
 Alpha  occ. eigenvalues --  -14.39633 -14.39223 -14.38424 -10.37434 -10.35914
 Alpha  occ. eigenvalues --  -10.34187 -10.31425 -10.31252 -10.30915 -10.29939
 Alpha  occ. eigenvalues --  -10.29656 -10.29202 -10.28892 -10.28873 -10.28782
 Alpha  occ. eigenvalues --  -10.28654 -10.28532 -10.28395 -10.28326 -10.28311
 Alpha  occ. eigenvalues --  -10.28236 -10.28178 -10.28149 -10.27809 -10.27648
 Alpha  occ. eigenvalues --  -10.26861 -10.26845 -10.26771 -10.26474 -10.26238
 Alpha  occ. eigenvalues --  -10.26233 -10.26142 -10.26120 -10.26032 -10.25957
 Alpha  occ. eigenvalues --  -10.25913 -10.25897 -10.25809 -10.25779 -10.25753
 Alpha  occ. eigenvalues --  -10.25395 -10.25376 -10.25366 -10.25317 -10.25250
 Alpha  occ. eigenvalues --  -10.25245 -10.25142 -10.25038 -10.25010 -10.24772
 Alpha  occ. eigenvalues --  -10.24750 -10.24692 -10.24629 -10.24398 -10.24306
 Alpha  occ. eigenvalues --  -10.24273 -10.24046 -10.24026 -10.23835 -10.23750
 Alpha  occ. eigenvalues --  -10.23645 -10.23557 -10.23426 -10.23273 -10.23217
 Alpha  occ. eigenvalues --  -10.23074 -10.22978 -10.22707 -10.22624 -10.22185
 Alpha  occ. eigenvalues --  -10.22007  -3.15403  -3.13512  -1.88199  -1.87814
 Alpha  occ. eigenvalues --   -1.87601  -1.86366  -1.85851  -1.85784  -1.10324
 Alpha  occ. eigenvalues --   -1.09257  -1.06385  -1.05009  -1.04516  -1.03908
 Alpha  occ. eigenvalues --   -1.01980  -1.01603  -1.00370  -0.99753  -0.99431
 Alpha  occ. eigenvalues --   -0.98940  -0.98786  -0.97709  -0.97632  -0.96913
 Alpha  occ. eigenvalues --   -0.87936  -0.86597  -0.84112  -0.83543  -0.83006
 Alpha  occ. eigenvalues --   -0.82804  -0.82742  -0.82512  -0.82180  -0.81579
 Alpha  occ. eigenvalues --   -0.81575  -0.81275  -0.80745  -0.80360  -0.78871
 Alpha  occ. eigenvalues --   -0.78516  -0.78228  -0.78017  -0.77382  -0.77010
 Alpha  occ. eigenvalues --   -0.76581  -0.76427  -0.75331  -0.75315  -0.74876
 Alpha  occ. eigenvalues --   -0.74443  -0.72797  -0.72741  -0.72119  -0.71602
 Alpha  occ. eigenvalues --   -0.71388  -0.71014  -0.70958  -0.70132  -0.69875
 Alpha  occ. eigenvalues --   -0.69424  -0.68068  -0.67336  -0.66216  -0.65619
 Alpha  occ. eigenvalues --   -0.64374  -0.63831  -0.63689  -0.63144  -0.62721
 Alpha  occ. eigenvalues --   -0.62359  -0.61173  -0.60880  -0.60664  -0.60095
 Alpha  occ. eigenvalues --   -0.59582  -0.59239  -0.59163  -0.58838  -0.58769
 Alpha  occ. eigenvalues --   -0.58409  -0.58112  -0.55890  -0.55053  -0.54844
 Alpha  occ. eigenvalues --   -0.54207  -0.54008  -0.53739  -0.53523  -0.52692
 Alpha  occ. eigenvalues --   -0.52626  -0.52544  -0.52096  -0.51986  -0.51843
 Alpha  occ. eigenvalues --   -0.51144  -0.50392  -0.50369  -0.50231  -0.50005
 Alpha  occ. eigenvalues --   -0.49874  -0.49654  -0.49321  -0.48979  -0.48504
 Alpha  occ. eigenvalues --   -0.48421  -0.48208  -0.47958  -0.47731  -0.47723
 Alpha  occ. eigenvalues --   -0.47454  -0.47130  -0.47071  -0.46919  -0.46631
 Alpha  occ. eigenvalues --   -0.46490  -0.46437  -0.46394  -0.46382  -0.46004
 Alpha  occ. eigenvalues --   -0.45838  -0.45661  -0.45375  -0.45189  -0.45179
 Alpha  occ. eigenvalues --   -0.45087  -0.45036  -0.44635  -0.44384  -0.44319
 Alpha  occ. eigenvalues --   -0.44142  -0.44088  -0.43869  -0.43843  -0.43639
 Alpha  occ. eigenvalues --   -0.43594  -0.43475  -0.43221  -0.43092  -0.42954
 Alpha  occ. eigenvalues --   -0.42486  -0.42332  -0.42321  -0.42008  -0.41997
 Alpha  occ. eigenvalues --   -0.41931  -0.41837  -0.41675  -0.41661  -0.41252
 Alpha  occ. eigenvalues --   -0.41185  -0.41129  -0.40931  -0.40747  -0.40509
 Alpha  occ. eigenvalues --   -0.40473  -0.40292  -0.40148  -0.40140  -0.39758
 Alpha  occ. eigenvalues --   -0.39667  -0.39564  -0.39431  -0.39130  -0.38977
 Alpha  occ. eigenvalues --   -0.38822  -0.38799  -0.38537  -0.38335  -0.38330
 Alpha  occ. eigenvalues --   -0.38067  -0.37956  -0.37929  -0.37773  -0.37511
 Alpha  occ. eigenvalues --   -0.37468  -0.37400  -0.37102  -0.36971  -0.36900
 Alpha  occ. eigenvalues --   -0.36766  -0.36662  -0.36544  -0.36413  -0.36258
 Alpha  occ. eigenvalues --   -0.36203  -0.35906  -0.35809  -0.35499  -0.35477
 Alpha  occ. eigenvalues --   -0.35128  -0.34976  -0.34868  -0.34105  -0.33940
 Alpha  occ. eigenvalues --   -0.33679  -0.33165  -0.33052  -0.33042  -0.32550
 Alpha  occ. eigenvalues --   -0.32327  -0.31831  -0.31694  -0.31216  -0.31145
 Alpha  occ. eigenvalues --   -0.30666  -0.30558  -0.29810  -0.29687  -0.29022
 Alpha  occ. eigenvalues --   -0.28980  -0.28585  -0.28567  -0.27157  -0.26841
 Alpha  occ. eigenvalues --   -0.26615  -0.26330  -0.25991  -0.25461  -0.25270
 Alpha  occ. eigenvalues --   -0.25243  -0.24944  -0.23745  -0.21412  -0.20829
 Alpha  occ. eigenvalues --   -0.19357  -0.18964
 Alpha virt. eigenvalues --   -0.12054  -0.11285  -0.05482  -0.04794  -0.04188
 Alpha virt. eigenvalues --   -0.03887  -0.02020  -0.01888  -0.01791  -0.00046
 Alpha virt. eigenvalues --    0.00136   0.00614   0.00882   0.01415   0.01822

 Mulliken charges:
               1
     1  Mg  12.000002
     2  C    5.999924
     3  C    6.000009
     4  C    6.000053
     5  C    6.000051
     6  N    6.999950
     7  C    6.000125
     8  C    5.999986
     9  C    6.000016
    10  C    5.999918
    11  C    5.999997
    12  C    5.999982
    13  C    6.000012
    14  H    0.999986
    15  N    7.000004
    16  C    5.999832
    17  C    5.999883
    18  C    5.999890
    19  C    5.999881
    20  C    6.000059
    21  C    5.999930
    22  O    7.999870
    23  C    6.000047
    24  N    7.000030
    25  C    5.999902
    26  C    6.000044
    27  C    5.999933
    28  C    6.000082
    29  C    6.000002
    30  C    6.000004
    31  C    5.999976
    32  N    7.000036
    33  C    6.000114
    34  C    6.000153
    35  C    6.000026
    36  C    6.000091
    37  C    5.999949
    38  C    6.000104
    39  O    8.000167
    40  C    5.999977
    41  C    6.000029
    42  O    8.000014
    43  O    8.000012
    44  C    5.999988
    45  H    0.999916
    46  H    0.999979
    47  H    1.000069
    48  H    0.999994
    49  H    0.999988
    50  H    0.999953
    51  H    0.999954
    52  H    0.999992
    53  H    1.000048
    54  H    0.999986
    55  H    1.000006
    56  H    1.000012
    57  H    0.999928
    58  H    0.999856
    59  H    0.999927
    60  H    0.999947
    61  H    0.999913
    62  H    0.999965
    63  H    1.000011
    64  H    1.000021
    65  H    0.999974
    66  H    0.999997
    67  H    0.999990
    68  H    1.000044
    69  H    1.000019
    70  H    1.000015
    71  H    0.999987
    72  H    1.000045
    73  H    1.000085
    74  H    1.000098
    75  H    1.000124
    76  H    1.000047
    77  H    1.000037
    78  H    1.000028
    79  H    1.000004
    80  Mg  12.002489
    81  C    6.000908
    82  C    5.985804
    83  C    5.982841
    84  C    6.012800
    85  N    6.995159
    86  C    5.974935
    87  C    6.009432
    88  C    5.986714
    89  C    6.035116
    90  C    5.998724
    91  C    6.000506
    92  C    6.002712
    93  H    0.989859
    94  N    6.996163
    95  C    6.042135
    96  C    6.023145
    97  C    6.006560
    98  C    6.040097
    99  C    5.996304
   100  C    6.010390
   101  O    8.019000
   102  C    6.000919
   103  N    7.002556
   104  C    6.029124
   105  C    5.990468
   106  C    6.011044
   107  C    5.964985
   108  C    5.999624
   109  C    6.002086
   110  C    5.998692
   111  N    7.000563
   112  C    5.968203
   113  C    5.975926
   114  C    5.993301
   115  C    5.976007
   116  C    6.002173
   117  C    5.983068
   118  O    7.965961
   119  C    6.001849
   120  C    5.994087
   121  O    7.989010
   122  O    8.004996
   123  C    6.004780
   124  H    1.008932
   125  H    1.006520
   126  H    0.991933
   127  H    1.001987
   128  H    1.005628
   129  H    0.994845
   130  H    1.003960
   131  H    1.008899
   132  H    1.003120
   133  H    0.991134
   134  H    1.004016
   135  H    1.003878
   136  H    1.017694
   137  H    1.014775
   138  H    1.021042
   139  H    1.004497
   140  H    1.011358
   141  H    1.012189
   142  H    1.003764
   143  H    0.996894
   144  H    1.007450
   145  H    1.000919
   146  H    0.993555
   147  H    1.002803
   148  H    0.990617
   149  H    0.995496
   150  H    0.999047
   151  H    1.004777
   152  H    0.987311
   153  H    0.982633
   154  H    0.982866
   155  H    0.991927
   156  H    0.993019
   157  H    0.993344
   158  H    0.995955
 Sum of Mulliken charges = 624.00000

 Dipole moment (field-independent basis, Debye):
    X=             -2.9847    Y=              9.4281    Z=             -3.1603  Tot=             10.3820
 Quadrupole moment (field-independent basis, Debye-Ang):
   XX=           -135.7172   YY=              8.0625   ZZ=             -1.0970
   XY=            213.3101   XZ=            -73.4200   YZ=             -3.3388

 Normal termination of Gaussian 16 at Fri Oct 15 17:56:53 2021.
