 Gaussian 16, Revision A.03,
 Gaussian 16:  ES64L-G16RevA.03 25-Dec-2016

 --------------------------------------------------------
 #p PBE1PBE/Def2SVP td=(nstates=5) density=(transition=1)
 --------------------------------------------------------

 --------------------------------
 TDDFT excited states in gaussian
 --------------------------------
 Symbolic Z-matrix:
 Charge =  0 Multiplicity = 1

                         Standard orientation:
 ---------------------------------------------------------------------
 Center     Atomic      Atomic             Coordinates (Angstroms)
 Number     Number       Type             X           Y           Z
 ---------------------------------------------------------------------
      1         12           0       16.349382    0.861011   -0.136298
      2          6           0       15.986499   -2.172643    1.646864
      3          6           0       13.615033    1.900370    1.352413
      4          6           0       16.192101    3.117984   -2.547388
      5          6           0       18.823579   -0.840119   -2.037055
      6          7           0       15.086968   -0.071832    1.496978
      7          6           0       15.141716   -1.196563    2.112020
      8          6           0       14.195130   -1.204276    3.329972
      9          6           0       13.097224   -0.088385    2.941488
     10          6           0       13.934313    0.612129    1.791819
     11          6           0       11.692967   -0.619408    2.449285
     12          6           0       14.979004   -0.746333    4.668149
     13          6           0       14.582748   -1.336399    6.060245
     14          1           0       13.080071   -1.770547    6.228562
     15          7           0       15.197374    2.442268   -0.428591
     16          6           0       14.108257    2.730206    0.380152
     17          6           0       13.478522    4.005201   -0.113886
     18          6           0       14.289358    4.377828   -1.266085
     19          6           0       15.296414    3.345951   -1.527833
     20          6           0       12.239483    4.578511    0.547562
     21          6           0       14.156156    5.629405   -2.105466
     22          8           0       14.843098    5.883398   -3.104666
     23          6           0       13.170171    6.649915   -1.703127
     24          7           0       17.476852    1.168221   -2.040656
     25          6           0       17.143130    2.166924   -2.837907
     26          6           0       18.264327    2.375472   -3.950508
     27          6           0       19.112852    1.004734   -3.755135
     28          6           0       18.454878    0.420719   -2.507872
     29          6           0       17.694286    2.623337   -5.386197
     30          6           0       20.663840    1.118152   -3.588939
     31          6           0       21.513370    0.588984   -4.715755
     32          7           0       17.425851   -1.039314   -0.097278
     33          6           0       18.389499   -1.533938   -0.953501
     34          6           0       18.678526   -2.869167   -0.632883
     35          6           0       17.724771   -3.169938    0.357913
     36          6           0       16.952305   -2.071120    0.651176
     37          6           0       19.653029   -3.746519   -1.240996
     38          6           0       17.358651   -4.220267    1.226786
     39          8           0       17.798162   -5.372814    1.488790
     40          6           0       16.020615   -3.694778    1.917109
     41          6           0       16.007665   -4.055890    3.357170
     42          8           0       16.781269   -3.682295    4.236423
     43          8           0       14.837840   -4.848416    3.580772
     44          6           0       14.612114   -5.338077    4.946664
     45          1           0       12.787911    2.255840    1.971134
     46          1           0       16.166125    3.905944   -3.302113
     47          1           0       19.639881   -1.326567   -2.576317
     48          1           0       13.625213   -2.131877    3.283325
     49          1           0       12.844453    0.467458    3.843747
     50          1           0       11.717119   -1.685045    2.222411
     51          1           0       11.389563   -0.146617    1.515364
     52          1           0       11.000026   -0.421703    3.267040
     53          1           0       14.989521    0.339902    4.759406
     54          1           0       16.039963   -0.948358    4.519669
     55          1           0       14.775218   -0.660667    6.894197
     56          1           0       15.065750   -2.311711    6.131804
     57          1           0       12.316636    5.655429    0.701476
     58          1           0       12.009007    4.111405    1.505081
     59          1           0       11.357583    4.269968   -0.013283
     60          1           0       12.163617    6.232182   -1.667847
     61          1           0       13.195967    7.484640   -2.403669
     62          1           0       13.348889    7.123663   -0.737866
     63          1           0       18.951179    3.186276   -3.708020
     64          1           0       18.849212    0.249514   -4.497031
     65          1           0       16.610255    2.508048   -5.389211
     66          1           0       18.294914    1.920780   -5.964272
     67          1           0       18.047345    3.605681   -5.697284
     68          1           0       20.935277    0.550133   -2.698845
     69          1           0       20.931986    2.156768   -3.394325
     70          1           0       20.785627    0.381401   -5.499110
     71          1           0       21.940153   -0.360615   -4.390853
     72          1           0       22.228838    1.316064   -5.097894
     73          1           0       20.602547   -3.211964   -1.233501
     74          1           0       19.558856   -3.892857   -2.317054
     75          1           0       19.740457   -4.660404   -0.653104
     76          1           0       15.174021   -4.156741    1.408196
     77          1           0       13.746312   -5.999875    4.981239
     78          1           0       14.287132   -4.500186    5.563730
     79          1           0       15.479434   -5.913901    5.267864
     80         12           0      -16.214556    0.312552    0.625234
     81          6           0      -16.183686   -2.512631   -1.394774
     82          6           0      -12.687524    0.477226    0.322768
     83          6           0      -16.281258    3.528517    1.529264
     84          6           0      -19.719200    0.386743    0.250225
     85          7           0      -14.614746   -0.733071   -0.752944
     86          6           0      -14.873395   -1.988480   -1.248305
     87          6           0      -13.630969   -2.639424   -1.770055
     88          6           0      -12.494727   -1.821074   -1.000875
     89          6           0      -13.269343   -0.574448   -0.444392
     90          6           0      -11.714069   -2.619885    0.160655
     91          6           0      -13.619613   -2.632569   -3.384758
     92          6           0      -12.838334   -3.686388   -3.989145
     93          1           0      -11.762310   -3.173937   -4.969794
     94          7           0      -14.722142    1.745787    1.066184
     95          6           0      -13.317080    1.617194    0.881021
     96          6           0      -12.698952    2.840784    1.363141
     97          6           0      -13.714719    3.750311    1.745714
     98          6           0      -14.989462    2.985541    1.533878
     99          6           0      -11.238276    3.077418    1.260476
    100          6           0      -13.448116    5.238752    2.224047
    101          8           0      -12.274670    5.603591    2.277956
    102          6           0      -14.531173    6.080415    2.890128
    103          7           0      -17.782792    1.725909    0.742209
    104          6           0      -17.521920    2.950090    1.266791
    105          6           0      -18.854565    3.926888    1.303594
    106          6           0      -20.001263    2.825887    1.092697
    107          6           0      -19.185911    1.555024    0.694853
    108          6           0      -19.086794    4.721994    2.643931
    109          6           0      -21.009110    3.207832    0.006977
    110          6           0      -22.517198    3.329969    0.331918
    111          7           0      -17.668557   -0.957371   -0.107578
    112          6           0      -19.024393   -0.808886   -0.152909
    113          6           0      -19.613548   -2.020894   -0.651685
    114          6           0      -18.469485   -2.703222   -1.213318
    115          6           0      -17.326569   -1.960235   -0.871784
    116          6           0      -21.079391   -2.297945   -0.821382
    117          6           0      -18.086283   -3.827866   -2.041060
    118          8           0      -18.726335   -4.768433   -2.401692
    119          6           0      -16.513848   -3.821662   -2.177754
    120          6           0      -15.802529   -5.018003   -1.507959
    121          8           0      -15.999719   -5.387994   -0.370511
    122          8           0      -14.975411   -5.663692   -2.450041
    123          6           0      -14.374964   -6.897868   -2.042317
    124          1           0      -11.599419    0.432319    0.252763
    125          1           0      -16.361049    4.615858    1.587885
    126          1           0      -20.806665    0.443367    0.174905
    127          1           0      -13.469409   -3.629322   -1.342068
    128          1           0      -11.765533   -1.484472   -1.738694
    129          1           0      -10.668017   -2.614805   -0.145430
    130          1           0      -12.081380   -3.636572    0.296944
    131          1           0      -11.837633   -2.030878    1.069908
    132          1           0      -13.163141   -1.672916   -3.626666
    133          1           0      -14.688058   -2.590555   -3.598045
    134          1           0      -13.548736   -4.322350   -4.515971
    135          1           0      -12.297096   -4.238332   -3.220742
    136          1           0      -10.696943    2.159051    1.033878
    137          1           0      -10.842888    3.386315    2.228451
    138          1           0      -11.007218    3.791220    0.469431
    139          1           0      -15.355040    6.342531    2.225575
    140          1           0      -14.051649    6.978770    3.280250
    141          1           0      -14.896861    5.515189    3.747462
    142          1           0      -18.739925    4.534720    0.406517
    143          1           0      -20.505100    2.506630    2.005275
    144          1           0      -18.960026    5.789227    2.464497
    145          1           0      -18.356548    4.400635    3.387575
    146          1           0      -20.105783    4.501157    2.963539
    147          1           0      -20.900374    2.583453   -0.879540
    148          1           0      -20.793718    4.145821   -0.504516
    149          1           0      -23.185347    2.576956   -0.086877
    150          1           0      -22.825032    4.270863   -0.124852
    151          1           0      -22.690898    3.332569    1.408659
    152          1           0      -21.188929   -3.378330   -0.918770
    153          1           0      -21.482811   -2.065294   -1.806388
    154          1           0      -21.725785   -1.836313   -0.075409
    155          1           0      -16.365438   -3.891559   -3.255703
    156          1           0      -13.483525   -6.893120   -2.670384
    157          1           0      -14.939552   -7.762227   -2.391484
    158          1           0      -14.240860   -6.927470   -0.961744
 ---------------------------------------------------------------------

 SCF Done:  E(RPBE1PBE) =  -4067.31511416     A.U. after   16 cycles

 Excitation energies and oscillator strengths:

 Excited State   1:      Singlet-A      1.8322 eV  676.69 nm  f=0.3791  <S**2>=0.000
     309 -> 316        0.16916
     312 -> 313        0.69532
     312 <- 313       -0.11107
 This state for optimization and/or second-order correction.
 Total Energy, E(TD-HF/TD-DFT) =  -4067.24778173
 Copying the excited state density for this state as the 1-particle RhoCI density.

 Excited State   2:      Singlet-A      1.9488 eV  636.20 nm  f=0.3539  <S**2>=0.000
     310 -> 315        0.20422
     311 -> 314        0.68086

 Excited State   3:      Singlet-A      1.9739 eV  628.11 nm  f=0.0000  <S**2>=0.000
     312 -> 314        0.70710

 Excited State   4:      Singlet-A      2.0649 eV  600.45 nm  f=0.0000  <S**2>=0.000
     311 -> 313        0.70710

 Excited State   5:      Singlet-A      2.2125 eV  560.37 nm  f=0.0835  <S**2>=0.000
     310 -> 314        0.64638
     311 -> 315       -0.26597

 The electronic state is 1-A.
 Alpha  occ. eigenvalues --  -46.93230 -46.92796 -19.25858 -19.24628 -19.21007
 Alpha  occ. eigenvalues --  -19.20414 -19.19786 -19.19183 -19.18771 -19.18670
 Alpha  occ. eigenvalues --  -14.41749 -14.41693 -14.41662 -14.41156 -14.39788
 Alpha  occ. eigenvalues --  -14.39669 -14.38873 -14.38306 -10.37185 -10.36304
 Alpha  occ. eigenvalues --  -10.33447 -10.32207 -10.31673 -10.31343 -10.29437
 Alpha  occ. eigenvalues --  -10.29251 -10.29225 -10.28737 -10.28670 -10.28585
 Alpha  occ. eigenvalues --  -10.28506 -10.28457 -10.28448 -10.28408 -10.28404
 Alpha  occ. eigenvalues --  -10.28351 -10.28316 -10.28077 -10.27933 -10.27702
 Alpha  occ. eigenvalues --  -10.27137 -10.26847 -10.26593 -10.26520 -10.26495
 Alpha  occ. eigenvalues --  -10.26300 -10.26298 -10.26278 -10.26164 -10.26080
 Alpha  occ. eigenvalues --  -10.26076 -10.26076 -10.26010 -10.25910 -10.25725
 Alpha  occ. eigenvalues --  -10.25675 -10.25638 -10.25531 -10.25494 -10.25493
 Alpha  occ. eigenvalues --  -10.25429 -10.25416 -10.25385 -10.25133 -10.25110
 Alpha  occ. eigenvalues --  -10.24630 -10.24338 -10.24278 -10.24250 -10.24177
 Alpha  occ. eigenvalues --  -10.24171 -10.24165 -10.23973 -10.23951 -10.23895
 Alpha  occ. eigenvalues --  -10.23869 -10.23634 -10.23378 -10.23374 -10.23361
 Alpha  occ. eigenvalues --  -10.23306 -10.23068 -10.22855 -10.22753 -10.22657
 Alpha  occ. eigenvalues --  -10.22397  -3.15230  -3.14832  -1.88017  -1.87675
 Alpha  occ. eigenvalues --   -1.87659  -1.87418  -1.87215  -1.87042  -1.10899
 Alpha  occ. eigenvalues --   -1.08689  -1.05755  -1.04912  -1.04101  -1.03631
 Alpha  occ. eigenvalues --   -1.02045  -1.01548  -1.00443  -0.99865  -0.99857
 Alpha  occ. eigenvalues --   -0.98235  -0.97442  -0.96984  -0.96218  -0.96091
 Alpha  occ. eigenvalues --   -0.87376  -0.86729  -0.83840  -0.83563  -0.82945
 Alpha  occ. eigenvalues --   -0.82648  -0.82466  -0.82200  -0.81913  -0.81650
 Alpha  occ. eigenvalues --   -0.81224  -0.81122  -0.80846  -0.80126  -0.78599
 Alpha  occ. eigenvalues --   -0.78353  -0.78274  -0.77711  -0.77007  -0.76950
 Alpha  occ. eigenvalues --   -0.76409  -0.76235  -0.75794  -0.75528  -0.75027
 Alpha  occ. eigenvalues --   -0.74670  -0.73282  -0.72261  -0.72057  -0.71622
 Alpha  occ. eigenvalues --   -0.71281  -0.71067  -0.70528  -0.70231  -0.69587
 Alpha  occ. eigenvalues --   -0.69316  -0.67712  -0.67193  -0.66752  -0.65823
 Alpha  occ. eigenvalues --   -0.63652  -0.63415  -0.62975  -0.62955  -0.62319
 Alpha  occ. eigenvalues --   -0.61901  -0.61628  -0.60879  -0.60439  -0.60355
 Alpha  occ. eigenvalues --   -0.60098  -0.60034  -0.59384  -0.59167  -0.58921
 Alpha  occ. eigenvalues --   -0.58742  -0.57462  -0.55837  -0.55083  -0.54736
 Alpha  occ. eigenvalues --   -0.54270  -0.54116  -0.53916  -0.53591  -0.53108
 Alpha  occ. eigenvalues --   -0.53041  -0.52670  -0.52324  -0.52082  -0.51885
 Alpha  occ. eigenvalues --   -0.51498  -0.50886  -0.50348  -0.50011  -0.49998
 Alpha  occ. eigenvalues --   -0.49609  -0.49300  -0.48842  -0.48650  -0.48558
 Alpha  occ. eigenvalues --   -0.48102  -0.47900  -0.47746  -0.47547  -0.47382
 Alpha  occ. eigenvalues --   -0.47178  -0.47082  -0.47030  -0.46996  -0.46662
 Alpha  occ. eigenvalues --   -0.46633  -0.46345  -0.46236  -0.46101  -0.45736
 Alpha  occ. eigenvalues --   -0.45695  -0.45510  -0.45508  -0.45068  -0.44991
 Alpha  occ. eigenvalues --   -0.44811  -0.44538  -0.44486  -0.44323  -0.44244
 Alpha  occ. eigenvalues --   -0.44226  -0.43938  -0.43876  -0.43780  -0.43463
 Alpha  occ. eigenvalues --   -0.43434  -0.43268  -0.43172  -0.43046  -0.42731
 Alpha  occ. eigenvalues --   -0.42658  -0.42570  -0.42477  -0.42312  -0.42100
 Alpha  occ. eigenvalues --   -0.42023  -0.41722  -0.41668  -0.41609  -0.41537
 Alpha  occ. eigenvalues --   -0.41184  -0.41076  -0.40916  -0.40900  -0.40663
 Alpha  occ. eigenvalues --   -0.40446  -0.40313  -0.40155  -0.40006  -0.39784
 Alpha  occ. eigenvalues --   -0.39741  -0.39600  -0.39381  -0.39000  -0.38875
 Alpha  occ. eigenvalues --   -0.38795  -0.38742  -0.38721  -0.38489  -0.38410
 Alpha  occ. eigenvalues --   -0.38268  -0.38145  -0.37965  -0.37793  -0.37603
 Alpha  occ. eigenvalues --   -0.37510  -0.37497  -0.37356  -0.37095  -0.36777
 Alpha  occ. eigenvalues --   -0.36481  -0.36420  -0.36378  -0.36007  -0.35977
 Alpha  occ. eigenvalues --   -0.35926  -0.35873  -0.35655  -0.35525  -0.35384
 Alpha  occ. eigenvalues --   -0.35278  -0.35018  -0.34821  -0.33978  -0.33653
 Alpha  occ. eigenvalues --   -0.33502  -0.33193  -0.32883  -0.32795  -0.32446
 Alpha  occ. eigenvalues --   -0.32122  -0.31679  -0.31566  -0.31295  -0.31049
 Alpha  occ. eigenvalues --   -0.30731  -0.30683  -0.29817  -0.29797  -0.29452
 Alpha  occ. eigenvalues --   -0.28960  -0.28924  -0.28798  -0.27426  -0.26937
 Alpha  occ. eigenvalues --   -0.26242  -0.26051  -0.25951  -0.25637  -0.25300
 Alpha  occ. eigenvalues --   -0.25140  -0.25021  -0.25007  -0.21246  -0.21117
 Alpha  occ. eigenvalues --   -0.19318  -0.18842
 Alpha virt. eigenvalues --   -0.11317  -0.11179  -0.06073  -0.05200  -0.04429
 Alpha virt. eigenvalues --   -0.03815  -0.02363  -0.02151  -0.01489  -0.00548
 Alpha virt. eigenvalues --   -0.00164  -0.00039   0.00339   0.01148   0.01406

 Mulliken charges:
               1
     1  Mg  11.999961
     2  C    6.000129
     3  C    5.999998
     4  C    5.999732
     5  C    5.999851
     6  N    7.000076
     7  C    5.999790
     8  C    6.000058
     9  C    5.999833
    10  C    6.000221
    11  C    5.999974
    12  C    6.000015
    13  C    5.999973
    14  H    1.000101
    15  N    6.999886
    16  C    6.000369
    17  C    6.000417
    18  C    6.000037
    19  C    6.000432
    20  C    5.999907
    21  C    6.000090
    22  O    8.000230
    23  C    5.999891
    24  N    6.999987
    25  C    6.000244
    26  C    5.999911
    27  C    6.000107
    28  C    5.999702
    29  C    5.999970
    30  C    6.000087
    31  C    5.999996
    32  N    7.000023
    33  C    5.999717
    34  C    5.999646
    35  C    6.000003
    36  C    5.999714
    37  C    6.000038
    38  C    5.999846
    39  O    7.999553
    40  C    6.000019
    41  C    5.999969
    42  O    7.999968
    43  O    7.999932
    44  C    6.000043
    45  H    1.000259
    46  H    1.000025
    47  H    0.999785
    48  H    1.000029
    49  H    1.000166
    50  H    1.000078
    51  H    1.000052
    52  H    1.000241
    53  H    0.999932
    54  H    1.000000
    55  H    0.999987
    56  H    0.999958
    57  H    1.000263
    58  H    1.000279
    59  H    1.000400
    60  H    1.000220
    61  H    1.000167
    62  H    1.000119
    63  H    0.999992
    64  H    0.999960
    65  H    1.000002
    66  H    1.000000
    67  H    0.999967
    68  H    1.000018
    69  H    0.999863
    70  H    0.999932
    71  H    0.999981
    72  H    0.999878
    73  H    0.999746
    74  H    0.999669
    75  H    0.999792
    76  H    0.999927
    77  H    0.999941
    78  H    1.000017
    79  H    0.999905
    80  Mg  12.000291
    81  C    5.992686
    82  C    6.019390
    83  C    6.007805
    84  C    5.977529
    85  N    7.007253
    86  C    6.027852
    87  C    5.986636
    88  C    6.010495
    89  C    5.963190
    90  C    6.001268
    91  C    5.998709
    92  C    5.995655
    93  H    1.011393
    94  N    7.004862
    95  C    5.953279
    96  C    5.987741
    97  C    5.981197
    98  C    5.971286
    99  C    6.005618
   100  C    5.986497
   101  O    7.979122
   102  C    6.003342
   103  N    6.986272
   104  C    5.976447
   105  C    6.007793
   106  C    5.992739
   107  C    6.035787
   108  C    6.001526
   109  C    5.997739
   110  C    5.999213
   111  N    7.000519
   112  C    6.041322
   113  C    6.021122
   114  C    6.009322
   115  C    6.023471
   116  C    5.998867
   117  C    6.017547
   118  O    8.029084
   119  C    6.001466
   120  C    6.005287
   121  O    8.005531
   122  O    8.003090
   123  C    5.997341
   124  H    0.991302
   125  H    0.992269
   126  H    1.006658
   127  H    1.002649
   128  H    0.997155
   129  H    0.997499
   130  H    0.987267
   131  H    1.004592
   132  H    1.011286
   133  H    0.992033
   134  H    0.997199
   135  H    1.003892
   136  H    0.982427
   137  H    0.985055
   138  H    0.982690
   139  H    0.988493
   140  H    0.987626
   141  H    0.991906
   142  H    0.998289
   143  H    1.000606
   144  H    1.000377
   145  H    1.003700
   146  H    0.990210
   147  H    0.995184
   148  H    1.008115
   149  H    0.996596
   150  H    1.003833
   151  H    1.003066
   152  H    1.012093
   153  H    1.020874
   154  H    1.016939
   155  H    1.009532
   156  H    1.005992
   157  H    1.003091
   158  H    1.004925
 Sum of Mulliken charges = 624.00000

 Dipole moment (field-independent basis, Debye):
    X=             -6.5959    Y=             -7.2901    Z=             -3.5333  Tot=             10.4469
 Quadrupole moment (field-independent basis, Debye-Ang):
   XX=            206.8234   YY=             -4.4687   ZZ=             -0.2725
   XY=            116.4097   XZ=             54.3006   YZ=             -2.1689

 Normal termination of Gaussian 16 at Thu Oct 14 06:40:46 2021.
