 Gaussian 16, Revision A.03,
 Gaussian 16:  ES64L-G16RevA.03 25-Dec-2016

 --------------------------------------------------------
 #p PBE1PBE/Def2SVP td=(nstates=5) density=(transition=1)
 --------------------------------------------------------

 --------------------------------
 TDDFT excited states in gaussian
 --------------------------------
 Symbolic Z-matrix:
 Charge =  0 Multiplicity = 1

                         Standard orientation:
 ---------------------------------------------------------------------
 Center     Atomic      Atomic             Coordinates (Angstroms)
 Number     Number       Type             X           Y           Z
 ---------------------------------------------------------------------
      1         12           0       24.523741   -0.938194    0.154058
      2          6           0       24.429338    2.446303   -1.250816
      3          6           0       23.812948    0.553078    3.243850
      4          6           0       24.938913   -3.858768    1.541667
      5          6           0       25.032101   -2.193690   -2.996692
      6          7           0       24.372739    1.232543    0.934254
      7          6           0       24.233730    2.468947    0.174725
      8          6           0       24.001049    3.716842    1.053266
      9          6           0       24.023035    3.007562    2.528712
     10          6           0       24.087458    1.489828    2.268145
     11          6           0       25.137741    3.503404    3.429201
     12          6           0       22.693456    4.451311    0.628671
     13          6           0       22.203300    5.495360    1.586373
     14          1           0       21.718906    6.828384    1.060941
     15          7           0       24.421521   -1.603872    2.148477
     16          6           0       24.108005   -0.850845    3.285686
     17          6           0       24.082087   -1.720701    4.460150
     18          6           0       24.409747   -3.054743    3.980666
     19          6           0       24.614121   -2.918810    2.491083
     20          6           0       23.674279   -1.266731    5.909664
     21          6           0       24.593256   -4.341584    4.701326
     22          8           0       24.841421   -5.415024    4.168513
     23          6           0       24.360946   -4.412807    6.153679
     24          7           0       24.825830   -2.728875   -0.597756
     25          6           0       25.091494   -3.789505    0.166957
     26          6           0       25.378705   -5.065020   -0.659415
     27          6           0       24.968062   -4.610845   -2.044745
     28          6           0       24.998797   -3.038954   -1.911171
     29          6           0       26.832961   -5.515776   -0.585320
     30          6           0       23.688688   -5.053972   -2.706005
     31          6           0       22.431152   -4.609551   -1.990033
     32          7           0       24.798713   -0.095268   -1.730516
     33          6           0       24.898921   -0.777553   -2.956444
     34          6           0       24.988287    0.189770   -4.022351
     35          6           0       24.730005    1.412149   -3.350308
     36          6           0       24.634519    1.206413   -1.960776
     37          6           0       25.097166   -0.050701   -5.499803
     38          6           0       24.508297    2.861376   -3.646440
     39          8           0       24.394036    3.466393   -4.733841
     40          6           0       24.345873    3.539886   -2.288070
     41          6           0       25.371312    4.665766   -2.139125
     42          8           0       26.636091    4.619425   -2.093681
     43          8           0       24.669461    5.810618   -1.902313
     44          6           0       25.482271    7.020471   -1.642595
     45          1           0       23.395869    0.988920    4.153021
     46          1           0       25.144881   -4.832344    1.991206
     47          1           0       25.217223   -2.519050   -4.022634
     48          1           0       24.821454    4.391282    0.808153
     49          1           0       23.043487    3.129331    2.991095
     50          1           0       24.692490    3.914615    4.335610
     51          1           0       25.640157    4.300596    2.882480
     52          1           0       26.003000    2.854852    3.564630
     53          1           0       21.982980    3.660881    0.384237
     54          1           0       22.870004    4.944446   -0.327310
     55          1           0       22.912104    5.855085    2.331870
     56          1           0       21.309284    5.127016    2.088699
     57          1           0       22.780571   -1.848022    6.138408
     58          1           0       23.429021   -0.207125    5.980046
     59          1           0       24.514301   -1.525200    6.554505
     60          1           0       24.790045   -3.579483    6.710429
     61          1           0       24.854877   -5.339350    6.444224
     62          1           0       23.284054   -4.277239    6.249086
     63          1           0       24.753134   -5.857214   -0.247934
     64          1           0       25.689027   -4.912391   -2.805121
     65          1           0       26.853340   -6.602526   -0.512323
     66          1           0       27.330939   -5.101010    0.290437
     67          1           0       27.336929   -5.318905   -1.532238
     68          1           0       23.746138   -6.132617   -2.854607
     69          1           0       23.556881   -4.561975   -3.669536
     70          1           0       21.709129   -5.419354   -1.891762
     71          1           0       21.887034   -3.837201   -2.534104
     72          1           0       22.596539   -4.241902   -0.977244
     73          1           0       24.315084    0.503148   -6.018551
     74          1           0       25.052742   -1.061716   -5.904666
     75          1           0       26.065265    0.341798   -5.811681
     76          1           0       23.374381    4.034705   -2.271612
     77          1           0       25.522641    7.213339   -0.570754
     78          1           0       24.923874    7.728183   -2.255340
     79          1           0       26.468444    6.967525   -2.105635
     80         12           0      -24.940649   -0.508779   -0.278936
     81          6           0      -22.717526    2.222269   -0.424939
     82          6           0      -26.766417    1.322035    2.014384
     83          6           0      -27.112683   -3.121085    0.056795
     84          6           0      -22.896004   -2.300494   -2.248315
     85          7           0      -24.775293    1.580160    0.668614
     86          6           0      -23.865494    2.586190    0.366342
     87          6           0      -24.312240    3.902527    0.970032
     88          6           0      -25.397340    3.475211    2.024123
     89          6           0      -25.664224    2.070836    1.530929
     90          6           0      -24.968526    3.600278    3.538629
     91          6           0      -24.933862    4.859968   -0.057611
     92          6           0      -24.623200    6.345417    0.155225
     93          1           0      -25.251702    7.065931    1.380344
     94          7           0      -26.733830   -0.828295    0.794401
     95          6           0      -27.237532    0.055785    1.686130
     96          6           0      -28.363935   -0.538996    2.329053
     97          6           0      -28.633268   -1.807354    1.707955
     98          6           0      -27.462007   -1.979584    0.866788
     99          6           0      -29.118371    0.157571    3.427328
    100          6           0      -29.732983   -2.843832    1.939383
    101          8           0      -29.889445   -3.819235    1.172142
    102          6           0      -30.655073   -2.805409    3.152784
    103          7           0      -25.038602   -2.378647   -1.058045
    104          6           0      -25.988289   -3.344753   -0.739712
    105          6           0      -25.627402   -4.624640   -1.421234
    106          6           0      -24.307052   -4.421084   -2.247976
    107          6           0      -24.052739   -2.946658   -1.895014
    108          6           0      -25.652190   -5.882045   -0.501001
    109          6           0      -24.433291   -4.642830   -3.770817
    110          6           0      -24.006470   -6.052266   -4.224436
    111          7           0      -23.181529   -0.198558   -1.127587
    112          6           0      -22.428464   -0.989708   -1.994013
    113          6           0      -21.199845   -0.279862   -2.510148
    114          6           0      -21.314485    0.958821   -1.858489
    115          6           0      -22.525101    0.988194   -1.094298
    116          6           0      -20.164540   -0.832876   -3.472496
    117          6           0      -20.629786    2.235919   -1.725911
    118          8           0      -19.563750    2.633989   -2.197245
    119          6           0      -21.614736    3.139065   -0.868819
    120          6           0      -20.750181    3.709523    0.272631
    121          8           0      -19.896213    3.114837    0.897345
    122          8           0      -20.987167    5.079622    0.365898
    123          6           0      -20.205899    5.723741    1.421916
    124          1           0      -27.361526    1.957041    2.673692
    125          1           0      -27.742743   -4.012355    0.082574
    126          1           0      -22.231856   -2.986885   -2.777027
    127          1           0      -23.531973    4.446076    1.502230
    128          1           0      -26.316743    4.059954    1.993355
    129          1           0      -24.001776    4.072278    3.716227
    130          1           0      -24.874221    2.669426    4.097333
    131          1           0      -25.663703    4.238424    4.084182
    132          1           0      -26.018215    4.756667   -0.090457
    133          1           0      -24.549601    4.654964   -1.057019
    134          1           0      -24.834957    6.936922   -0.735386
    135          1           0      -23.550834    6.514932    0.249919
    136          1           0      -28.308781    0.471129    4.086547
    137          1           0      -29.793284   -0.441433    4.038538
    138          1           0      -29.665162    1.046734    3.114299
    139          1           0      -30.081448   -2.693923    4.073055
    140          1           0      -31.160241   -3.768492    3.080920
    141          1           0      -31.339043   -1.958374    3.099847
    142          1           0      -26.478400   -4.891482   -2.048627
    143          1           0      -23.443131   -4.980684   -1.887071
    144          1           0      -25.876121   -5.546218    0.511742
    145          1           0      -24.662286   -6.337536   -0.502751
    146          1           0      -26.454676   -6.493695   -0.914668
    147          1           0      -23.918278   -3.817005   -4.261108
    148          1           0      -25.478775   -4.627142   -4.079516
    149          1           0      -24.097322   -6.750680   -3.392300
    150          1           0      -22.965113   -6.175118   -4.522647
    151          1           0      -24.701768   -6.379805   -4.997909
    152          1           0      -20.628847   -0.867835   -4.458197
    153          1           0      -19.817722   -1.844316   -3.261747
    154          1           0      -19.339701   -0.120671   -3.456585
    155          1           0      -22.082980    3.965477   -1.403175
    156          1           0      -20.690446    5.750133    2.398404
    157          1           0      -20.023352    6.725257    1.032626
    158          1           0      -19.234113    5.310468    1.691939
 ---------------------------------------------------------------------

 SCF Done:  E(RPBE1PBE) =  -4067.41810185     A.U. after   17 cycles

 Excitation energies and oscillator strengths:

 Excited State   1:      Singlet-A      1.8175 eV  682.19 nm  f=0.3848  <S**2>=0.000
     309 -> 316       -0.16217
     311 -> 313        0.69596
     311 <- 313       -0.11404
 This state for optimization and/or second-order correction.
 Total Energy, E(TD-HF/TD-DFT) =  -4067.35131176
 Copying the excited state density for this state as the 1-particle RhoCI density.

 Excited State   2:      Singlet-A      1.8380 eV  674.55 nm  f=0.0000  <S**2>=0.000
     312 -> 313        0.70711

 Excited State   3:      Singlet-A      1.8492 eV  670.48 nm  f=0.3679  <S**2>=0.000
     310 -> 315        0.18105
     312 -> 314        0.69137
     312 <- 314       -0.10447

 Excited State   4:      Singlet-A      2.1111 eV  587.30 nm  f=0.0000  <S**2>=0.000
     311 -> 314        0.70711

 Excited State   5:      Singlet-A      2.1798 eV  568.77 nm  f=0.1278  <S**2>=0.000
     309 -> 313        0.66143
     311 -> 316        0.23370

 The electronic state is 1-A.
 Alpha  occ. eigenvalues --  -46.91159 -46.91089 -19.26509 -19.26424 -19.20633
 Alpha  occ. eigenvalues --  -19.20005 -19.19383 -19.19349 -19.18897 -19.18770
 Alpha  occ. eigenvalues --  -14.42083 -14.42048 -14.41654 -14.40980 -14.39610
 Alpha  occ. eigenvalues --  -14.39516 -14.39083 -14.38669 -10.37090 -10.36724
 Alpha  occ. eigenvalues --  -10.32911 -10.32292 -10.31983 -10.31608 -10.29909
 Alpha  occ. eigenvalues --  -10.29315 -10.29203 -10.29043 -10.28791 -10.28726
 Alpha  occ. eigenvalues --  -10.28645 -10.28570 -10.28475 -10.28383 -10.28240
 Alpha  occ. eigenvalues --  -10.28210 -10.28177 -10.28139 -10.27851 -10.27310
 Alpha  occ. eigenvalues --  -10.27093 -10.27089 -10.26830 -10.26798 -10.26642
 Alpha  occ. eigenvalues --  -10.26616 -10.26566 -10.26552 -10.26476 -10.26454
 Alpha  occ. eigenvalues --  -10.26413 -10.26321 -10.26194 -10.26170 -10.26150
 Alpha  occ. eigenvalues --  -10.25814 -10.25775 -10.25704 -10.25472 -10.25130
 Alpha  occ. eigenvalues --  -10.25121 -10.25090 -10.25054 -10.24993 -10.24839
 Alpha  occ. eigenvalues --  -10.24701 -10.24518 -10.24463 -10.24329 -10.24063
 Alpha  occ. eigenvalues --  -10.24037 -10.23951 -10.23798 -10.23755 -10.23688
 Alpha  occ. eigenvalues --  -10.23623 -10.23543 -10.23521 -10.23330 -10.23255
 Alpha  occ. eigenvalues --  -10.23183 -10.23058 -10.23047 -10.22918 -10.22719
 Alpha  occ. eigenvalues --  -10.21971  -3.13476  -3.13445  -1.86323  -1.86286
 Alpha  occ. eigenvalues --   -1.85863  -1.85796  -1.85713  -1.85701  -1.11065
 Alpha  occ. eigenvalues --   -1.10867  -1.04894  -1.04019  -1.03556  -1.03014
 Alpha  occ. eigenvalues --   -1.02692  -1.00651  -0.99656  -0.99273  -0.98256
 Alpha  occ. eigenvalues --   -0.97826  -0.97700  -0.96723  -0.96113  -0.95150
 Alpha  occ. eigenvalues --   -0.86953  -0.86762  -0.83989  -0.83693  -0.83333
 Alpha  occ. eigenvalues --   -0.83123  -0.82946  -0.82601  -0.81837  -0.81615
 Alpha  occ. eigenvalues --   -0.81235  -0.81076  -0.80515  -0.80334  -0.79012
 Alpha  occ. eigenvalues --   -0.78658  -0.78402  -0.77909  -0.77217  -0.76595
 Alpha  occ. eigenvalues --   -0.76303  -0.75859  -0.75807  -0.75272  -0.74406
 Alpha  occ. eigenvalues --   -0.74400  -0.72714  -0.72657  -0.71808  -0.71616
 Alpha  occ. eigenvalues --   -0.71582  -0.71199  -0.70478  -0.70322  -0.69804
 Alpha  occ. eigenvalues --   -0.69425  -0.67290  -0.67174  -0.66326  -0.66091
 Alpha  occ. eigenvalues --   -0.64582  -0.63812  -0.63725  -0.63276  -0.62660
 Alpha  occ. eigenvalues --   -0.62051  -0.61688  -0.61623  -0.60195  -0.59941
 Alpha  occ. eigenvalues --   -0.59579  -0.59226  -0.59022  -0.58789  -0.58749
 Alpha  occ. eigenvalues --   -0.58374  -0.57166  -0.56578  -0.54913  -0.54664
 Alpha  occ. eigenvalues --   -0.54641  -0.53790  -0.53705  -0.53529  -0.53177
 Alpha  occ. eigenvalues --   -0.52910  -0.52297  -0.52281  -0.52051  -0.51944
 Alpha  occ. eigenvalues --   -0.50811  -0.50640  -0.50446  -0.50028  -0.49984
 Alpha  occ. eigenvalues --   -0.49781  -0.49745  -0.49347  -0.49076  -0.48940
 Alpha  occ. eigenvalues --   -0.48397  -0.48106  -0.47854  -0.47712  -0.47503
 Alpha  occ. eigenvalues --   -0.47489  -0.47342  -0.47169  -0.47074  -0.46803
 Alpha  occ. eigenvalues --   -0.46710  -0.46440  -0.46219  -0.45824  -0.45818
 Alpha  occ. eigenvalues --   -0.45412  -0.45163  -0.45147  -0.44997  -0.44805
 Alpha  occ. eigenvalues --   -0.44646  -0.44589  -0.44490  -0.44416  -0.44016
 Alpha  occ. eigenvalues --   -0.43937  -0.43709  -0.43531  -0.43507  -0.43472
 Alpha  occ. eigenvalues --   -0.43214  -0.43164  -0.42935  -0.42811  -0.42747
 Alpha  occ. eigenvalues --   -0.42728  -0.42417  -0.42209  -0.42154  -0.42122
 Alpha  occ. eigenvalues --   -0.41728  -0.41512  -0.41478  -0.41398  -0.41323
 Alpha  occ. eigenvalues --   -0.41261  -0.41003  -0.40898  -0.40700  -0.40649
 Alpha  occ. eigenvalues --   -0.40491  -0.40268  -0.40196  -0.39748  -0.39689
 Alpha  occ. eigenvalues --   -0.39424  -0.39313  -0.39247  -0.39206  -0.39142
 Alpha  occ. eigenvalues --   -0.39082  -0.39042  -0.38839  -0.38417  -0.38354
 Alpha  occ. eigenvalues --   -0.38320  -0.37979  -0.37944  -0.37906  -0.37492
 Alpha  occ. eigenvalues --   -0.37474  -0.37347  -0.37179  -0.37042  -0.36777
 Alpha  occ. eigenvalues --   -0.36685  -0.36574  -0.36478  -0.36425  -0.36088
 Alpha  occ. eigenvalues --   -0.36078  -0.35905  -0.35731  -0.35467  -0.35350
 Alpha  occ. eigenvalues --   -0.35195  -0.34841  -0.34680  -0.34196  -0.33996
 Alpha  occ. eigenvalues --   -0.33842  -0.33716  -0.33344  -0.32952  -0.32329
 Alpha  occ. eigenvalues --   -0.32244  -0.32171  -0.31877  -0.31811  -0.31689
 Alpha  occ. eigenvalues --   -0.31579  -0.31180  -0.30367  -0.29877  -0.29529
 Alpha  occ. eigenvalues --   -0.29127  -0.28613  -0.28456  -0.27076  -0.26719
 Alpha  occ. eigenvalues --   -0.26336  -0.26077  -0.25850  -0.25809  -0.25781
 Alpha  occ. eigenvalues --   -0.25547  -0.25380  -0.25009  -0.21157  -0.20874
 Alpha  occ. eigenvalues --   -0.19102  -0.18715
 Alpha virt. eigenvalues --   -0.11692  -0.11078  -0.05263  -0.05231  -0.04245
 Alpha virt. eigenvalues --   -0.03868  -0.02650  -0.02199  -0.00321   0.00099
 Alpha virt. eigenvalues --    0.00285   0.00501   0.01320   0.01476   0.01636

 Mulliken charges:
               1
     1  Mg  11.997757
     2  C    6.015969
     3  C    5.993874
     4  C    5.985460
     5  C    6.009582
     6  N    7.005777
     7  C    5.968728
     8  C    6.010526
     9  C    5.992320
    10  C    6.024170
    11  C    5.993316
    12  C    6.003014
    13  C    5.999614
    14  H    0.999477
    15  N    6.995497
    16  C    6.035618
    17  C    6.021991
    18  C    6.015104
    19  C    6.029388
    20  C    6.001441
    21  C    6.011956
    22  O    8.030145
    23  C    5.996818
    24  N    7.001573
    25  C    6.033076
    26  C    5.992515
    27  C    6.001684
    28  C    5.967591
    29  C    5.998344
    30  C    6.006992
    31  C    6.005023
    32  N    7.001305
    33  C    5.960599
    34  C    5.978523
    35  C    5.993973
    36  C    5.967573
    37  C    6.002716
    38  C    5.980757
    39  O    7.969351
    40  C    6.001986
    41  C    5.997519
    42  O    7.994037
    43  O    7.998327
    44  C    6.001052
    45  H    1.010737
    46  H    1.006278
    47  H    0.990703
    48  H    1.000001
    49  H    0.999948
    50  H    1.001291
    51  H    1.012758
    52  H    0.997979
    53  H    0.997559
    54  H    1.005748
    55  H    0.995372
    56  H    0.994899
    57  H    1.015293
    58  H    1.016866
    59  H    1.014873
    60  H    1.006876
    61  H    1.013803
    62  H    1.007857
    63  H    0.998507
    64  H    0.999647
    65  H    1.002418
    66  H    0.994760
    67  H    1.012508
    68  H    0.989929
    69  H    1.004399
    70  H    0.994269
    71  H    1.005486
    72  H    0.985296
    73  H    0.985661
    74  H    0.982563
    75  H    0.983261
    76  H    0.991876
    77  H    0.993515
    78  H    0.997122
    79  H    0.997888
    80  Mg  11.999987
    81  C    5.999900
    82  C    6.000108
    83  C    6.000116
    84  C    5.999900
    85  N    6.999927
    86  C    6.000164
    87  C    5.999968
    88  C    6.000052
    89  C    5.999814
    90  C    6.000015
    91  C    5.999978
    92  C    5.999998
    93  H    1.000028
    94  N    7.000051
    95  C    5.999773
    96  C    5.999867
    97  C    5.999915
    98  C    5.999809
    99  C    6.000003
   100  C    5.999985
   101  O    7.999882
   102  C    6.000017
   103  N    7.000077
   104  C    5.999780
   105  C    6.000047
   106  C    5.999940
   107  C    6.000182
   108  C    6.000005
   109  C    5.999982
   110  C    5.999995
   111  N    6.999979
   112  C    6.000228
   113  C    6.000151
   114  C    6.000067
   115  C    6.000179
   116  C    5.999994
   117  C    6.000040
   118  O    8.000163
   119  C    5.999999
   120  C    6.000029
   121  O    7.999989
   122  O    8.000017
   123  C    5.999997
   124  H    0.999951
   125  H    0.999973
   126  H    1.000048
   127  H    0.999993
   128  H    1.000002
   129  H    0.999935
   130  H    0.999987
   131  H    0.999987
   132  H    1.000051
   133  H    0.999992
   134  H    1.000022
   135  H    0.999986
   136  H    0.999923
   137  H    0.999930
   138  H    0.999924
   139  H    0.999956
   140  H    0.999939
   141  H    0.999970
   142  H    1.000004
   143  H    0.999989
   144  H    1.000003
   145  H    0.999946
   146  H    0.999993
   147  H    0.999995
   148  H    1.000047
   149  H    1.000006
   150  H    0.999999
   151  H    1.000033
   152  H    1.000100
   153  H    1.000064
   154  H    1.000059
   155  H    1.000058
   156  H    1.000010
   157  H    1.000036
   158  H    0.999997
 Sum of Mulliken charges = 624.00000

 Dipole moment (field-independent basis, Debye):
    X=             -0.3981    Y=             -4.1853    Z=              9.6944  Tot=             10.5668
 Quadrupole moment (field-independent basis, Debye-Ang):
   XX=            -23.5990   YY=              3.1114   ZZ=              6.7212
   XY=           -103.8001   XZ=            238.9884   YZ=             -9.6707

 Normal termination of Gaussian 16 at Thu Oct 14 09:39:08 2021.
