 Gaussian 16, Revision A.03,
 Gaussian 16:  ES64L-G16RevA.03 25-Dec-2016

 --------------------------------------------------------
 #p PBE1PBE/Def2SVP td=(nstates=5) density=(transition=1)
 --------------------------------------------------------

 --------------------------------
 TDDFT excited states in gaussian
 --------------------------------
 Symbolic Z-matrix:
 Charge =  0 Multiplicity = 1

                         Standard orientation:
 ---------------------------------------------------------------------
 Center     Atomic      Atomic             Coordinates (Angstroms)
 Number     Number       Type             X           Y           Z
 ---------------------------------------------------------------------
      1         12           0       13.776135   -0.219495    0.204546
      2          6           0       11.240025   -1.498379   -1.666392
      3          6           0       14.808109    1.647140   -2.616658
      4          6           0       15.498509    1.765361    2.265604
      5          6           0       12.333722   -1.730050    3.150779
      6          7           0       13.095471   -0.013729   -1.851160
      7          6           0       12.084879   -0.569174   -2.433317
      8          6           0       12.080047   -0.372835   -3.991059
      9          6           0       13.415194    0.406491   -4.297986
     10          6           0       13.876364    0.704520   -2.829735
     11          6           0       14.383701   -0.261954   -5.274722
     12          6           0       10.700065    0.341918   -4.521802
     13          6           0        9.889947    1.179354   -3.545498
     14          1           0        8.876571    2.204237   -4.054961
     15          7           0       14.977560    1.478673   -0.143470
     16          6           0       15.335882    2.045678   -1.342844
     17          6           0       16.150793    3.158465   -1.112592
     18          6           0       16.354673    3.265786    0.317220
     19          6           0       15.557945    2.155638    0.902921
     20          6           0       16.798628    3.901427   -2.266597
     21          6           0       17.215923    4.350665    0.988865
     22          8           0       17.772047    5.193601    0.249553
     23          6           0       17.440039    4.487523    2.399002
     24          7           0       13.785585    0.102580    2.476019
     25          6           0       14.736119    0.845363    2.967962
     26          6           0       14.880356    0.706448    4.510256
     27          6           0       13.903155   -0.454072    4.798788
     28          6           0       13.259350   -0.788440    3.392745
     29          6           0       16.255714    0.390127    4.976134
     30          6           0       12.828587   -0.095167    5.930137
     31          6           0       12.977142   -0.869041    7.304239
     32          7           0       12.215522   -1.467798    0.710483
     33          6           0       11.748833   -2.038079    1.901440
     34          6           0       10.587374   -2.925436    1.582081
     35          6           0       10.361784   -2.686405    0.219042
     36          6           0       11.343451   -1.774366   -0.270248
     37          6           0        9.814947   -3.779073    2.464565
     38          6           0        9.466208   -3.016970   -0.792359
     39          8           0        8.477453   -3.762407   -0.853390
     40          6           0       10.035159   -2.348324   -2.075985
     41          6           0       10.269099   -3.455131   -3.131509
     42          8           0        9.845725   -3.492726   -4.274263
     43          8           0       11.059027   -4.476031   -2.648728
     44          6           0       11.325315   -5.610195   -3.541482
     45          1           0       15.018535    2.213797   -3.525921
     46          1           0       16.158513    2.271471    2.972918
     47          1           0       12.016082   -2.311823    4.018466
     48          1           0       12.253021   -1.360006   -4.420462
     49          1           0       13.226559    1.403231   -4.697976
     50          1           0       15.301078   -0.533309   -4.752700
     51          1           0       14.670158    0.402238   -6.090953
     52          1           0       13.996417   -1.132862   -5.803599
     53          1           0       10.161380   -0.516146   -4.924546
     54          1           0       10.833200    1.079345   -5.313661
     55          1           0       10.659782    1.689214   -2.966863
     56          1           0        9.421757    0.458754   -2.874709
     57          1           0       17.882980    4.009533   -2.302243
     58          1           0       16.317349    4.874632   -2.366051
     59          1           0       16.544247    3.395857   -3.197950
     60          1           0       17.935841    3.667270    2.917799
     61          1           0       16.490906    4.497471    2.933921
     62          1           0       17.898871    5.435137    2.679414
     63          1           0       14.634956    1.563469    5.137331
     64          1           0       14.406131   -1.388410    5.048334
     65          1           0       16.792734    1.223534    5.428791
     66          1           0       16.912906    0.193850    4.128222
     67          1           0       16.232442   -0.442840    5.678600
     68          1           0       11.845866   -0.399283    5.567211
     69          1           0       12.849561    0.943204    6.258189
     70          1           0       12.890212   -0.165091    8.130934
     71          1           0       14.001376   -1.236142    7.370927
     72          1           0       12.124344   -1.547446    7.334951
     73          1           0       10.528890   -4.094296    3.225859
     74          1           0        9.446115   -4.653887    1.927862
     75          1           0        8.954528   -3.189963    2.780561
     76          1           0        9.282523   -1.805002   -2.646870
     77          1           0       11.561716   -6.479925   -2.928176
     78          1           0       12.173409   -5.541274   -4.222527
     79          1           0       10.514645   -5.820837   -4.239630
     80         12           0      -13.223982    1.021412   -0.368362
     81          6           0      -13.765289   -2.491820    0.077748
     82          6           0       -9.815649    0.213390   -0.785415
     83          6           0      -12.439976    4.185382   -0.087654
     84          6           0      -16.485344    1.577435    0.417018
     85          7           0      -11.984826   -0.932283   -0.399799
     86          6           0      -12.498195   -2.181917   -0.298978
     87          6           0      -11.397400   -3.184645   -0.603321
     88          6           0      -10.098520   -2.390783   -0.919323
     89          6           0      -10.642284   -0.961640   -0.729452
     90          6           0       -8.837913   -2.789787    0.036557
     91          6           0      -11.753581   -4.137230   -1.823790
     92          6           0      -11.523097   -5.634074   -1.613358
     93          1           0      -10.338880   -6.156558   -0.704797
     94          7           0      -11.355869    2.060552   -0.376537
     95          6           0      -10.155086    1.561899   -0.581059
     96          6           0       -9.222729    2.652260   -0.523857
     97          6           0       -9.922634    3.884259   -0.469721
     98          6           0      -11.268532    3.414314   -0.270112
     99          6           0       -7.734099    2.482072   -0.822480
    100          6           0       -9.526882    5.340905   -0.653979
    101          8           0      -10.303794    6.264156   -0.492635
    102          6           0       -8.116821    5.589690   -1.114169
    103          7           0      -14.254062    2.593483    0.446754
    104          6           0      -13.759444    3.884309    0.251255
    105          6           0      -14.849901    4.981486    0.387666
    106          6           0      -16.130183    4.063770    0.382148
    107          6           0      -15.600883    2.630050    0.413986
    108          6           0      -14.628296    5.818650    1.655739
    109          6           0      -17.019989    4.213738   -0.941117
    110          6           0      -18.309107    4.959410   -0.850822
    111          7           0      -14.815178   -0.156336    0.024493
    112          6           0      -16.094923    0.227172    0.362897
    113          6           0      -16.946387   -0.901599    0.729148
    114          6           0      -16.058489   -2.031314    0.626386
    115          6           0      -14.776055   -1.515171    0.324989
    116          6           0      -18.417834   -0.812616    0.915863
    117          6           0      -15.970067   -3.483001    0.662792
    118          8           0      -16.896592   -4.286596    0.874009
    119          6           0      -14.418249   -3.866189    0.327490
    120          6           0      -13.937531   -4.546657    1.519556
    121          8           0      -13.964811   -4.060925    2.629180
    122          8           0      -13.455509   -5.761201    1.230582
    123          6           0      -12.951090   -6.692937    2.287551
    124          1           0       -8.762012    0.017027   -0.994152
    125          1           0      -12.360331    5.232526   -0.389163
    126          1           0      -17.541572    1.800130    0.580435
    127          1           0      -11.234506   -3.764010    0.305485
    128          1           0       -9.709640   -2.622728   -1.910970
    129          1           0       -8.968799   -3.787797    0.454934
    130          1           0       -8.815377   -2.014757    0.803103
    131          1           0       -7.912525   -2.739743   -0.537016
    132          1           0      -11.293603   -3.864566   -2.772632
    133          1           0      -12.820866   -4.065415   -2.032836
    134          1           0      -11.419109   -6.161613   -2.561743
    135          1           0      -12.482434   -5.968636   -1.218575
    136          1           0       -7.454115    2.722224   -1.848304
    137          1           0       -7.368191    1.506770   -0.500132
    138          1           0       -7.214740    3.172234   -0.158002
    139          1           0       -7.749936    4.905044   -1.879457
    140          1           0       -7.367123    5.565323   -0.324544
    141          1           0       -8.093991    6.512277   -1.694241
    142          1           0      -14.773994    5.622898   -0.489937
    143          1           0      -16.730986    4.325156    1.253346
    144          1           0      -13.671475    5.647513    2.148804
    145          1           0      -15.377294    5.601825    2.416565
    146          1           0      -14.711001    6.876732    1.405147
    147          1           0      -17.322598    3.271644   -1.398234
    148          1           0      -16.467039    4.654589   -1.769755
    149          1           0      -18.271025    5.853561   -1.471720
    150          1           0      -18.369868    5.212958    0.207699
    151          1           0      -19.135248    4.336720   -1.193981
    152          1           0      -18.917470   -1.716328    0.568565
    153          1           0      -18.728235    0.119566    0.444217
    154          1           0      -18.589159   -0.719228    1.989128
    155          1           0      -14.343746   -4.542061   -0.523354
    156          1           0      -13.693417   -6.773726    3.081823
    157          1           0      -12.018393   -6.351666    2.737345
    158          1           0      -12.637998   -7.663313    1.903255
 ---------------------------------------------------------------------

 SCF Done:  E(RPBE1PBE) =  -4067.33939069     A.U. after   19 cycles

 Excitation energies and oscillator strengths:

 Excited State   1:      Singlet-A      1.6373 eV  757.25 nm  f=0.0000  <S**2>=0.000
     312 -> 313        0.70710
 This state for optimization and/or second-order correction.
 Total Energy, E(TD-HF/TD-DFT) =  -4067.27922143
 Copying the excited state density for this state as the 1-particle RhoCI density.

 Excited State   2:      Singlet-A      1.8472 eV  671.21 nm  f=0.5582  <S**2>=0.000
     310 -> 316       -0.15743
     311 -> 313       -0.15030
     312 -> 314        0.67897
     312 <- 314       -0.11356

 Excited State   3:      Singlet-A      1.8538 eV  668.80 nm  f=0.2531  <S**2>=0.000
     309 -> 315        0.15518
     311 -> 313        0.68071
     312 -> 314        0.14963
     311 <- 313       -0.11959

 Excited State   4:      Singlet-A      2.1283 eV  582.54 nm  f=0.0000  <S**2>=0.000
     311 -> 314        0.70710

 Excited State   5:      Singlet-A      2.2259 eV  557.01 nm  f=0.0000  <S**2>=0.000
     310 -> 313        0.70709

 The electronic state is 1-A.
 Alpha  occ. eigenvalues --  -46.93779 -46.91960 -19.25770 -19.25560 -19.20392
 Alpha  occ. eigenvalues --  -19.19646 -19.19201 -19.19095 -19.18612 -19.17922
 Alpha  occ. eigenvalues --  -14.42766 -14.41471 -14.41298 -14.41201 -14.40179
 Alpha  occ. eigenvalues --  -14.39669 -14.39019 -14.38642 -10.36813 -10.35357
 Alpha  occ. eigenvalues --  -10.32811 -10.32584 -10.31725 -10.31651 -10.30619
 Alpha  occ. eigenvalues --  -10.29647 -10.29324 -10.29005 -10.28929 -10.28761
 Alpha  occ. eigenvalues --  -10.28754 -10.28660 -10.28636 -10.28460 -10.28182
 Alpha  occ. eigenvalues --  -10.27906 -10.27892 -10.27250 -10.27248 -10.27199
 Alpha  occ. eigenvalues --  -10.27145 -10.27113 -10.27039 -10.26849 -10.26608
 Alpha  occ. eigenvalues --  -10.26406 -10.26361 -10.26232 -10.26145 -10.26106
 Alpha  occ. eigenvalues --  -10.25943 -10.25940 -10.25828 -10.25755 -10.25611
 Alpha  occ. eigenvalues --  -10.25607 -10.25578 -10.25440 -10.25344 -10.25127
 Alpha  occ. eigenvalues --  -10.25110 -10.24877 -10.24864 -10.24864 -10.24828
 Alpha  occ. eigenvalues --  -10.24623 -10.24530 -10.24477 -10.24209 -10.24198
 Alpha  occ. eigenvalues --  -10.24000 -10.23987 -10.23840 -10.23839 -10.23633
 Alpha  occ. eigenvalues --  -10.23579 -10.23460 -10.23424 -10.23258 -10.23245
 Alpha  occ. eigenvalues --  -10.23217 -10.23148 -10.23137 -10.22910 -10.22625
 Alpha  occ. eigenvalues --  -10.22396  -3.15768  -3.14165  -1.88584  -1.88175
 Alpha  occ. eigenvalues --   -1.87956  -1.86970  -1.86545  -1.86398  -1.11208
 Alpha  occ. eigenvalues --   -1.10931  -1.05488  -1.03675  -1.03108  -1.02586
 Alpha  occ. eigenvalues --   -1.02222  -1.02066  -0.99665  -0.99274  -0.99183
 Alpha  occ. eigenvalues --   -0.98269  -0.98085  -0.97669  -0.97192  -0.96500
 Alpha  occ. eigenvalues --   -0.87309  -0.86426  -0.84099  -0.83791  -0.83396
 Alpha  occ. eigenvalues --   -0.82871  -0.82524  -0.82523  -0.82265  -0.82167
 Alpha  occ. eigenvalues --   -0.81371  -0.81198  -0.80689  -0.79823  -0.79074
 Alpha  occ. eigenvalues --   -0.78486  -0.78444  -0.78354  -0.77295  -0.76881
 Alpha  occ. eigenvalues --   -0.76847  -0.75914  -0.75758  -0.75529  -0.74959
 Alpha  occ. eigenvalues --   -0.74631  -0.72915  -0.72497  -0.71911  -0.71776
 Alpha  occ. eigenvalues --   -0.71331  -0.71100  -0.70717  -0.70487  -0.69778
 Alpha  occ. eigenvalues --   -0.69149  -0.67912  -0.66879  -0.66502  -0.65811
 Alpha  occ. eigenvalues --   -0.64048  -0.63330  -0.63097  -0.62831  -0.62169
 Alpha  occ. eigenvalues --   -0.61992  -0.61446  -0.61242  -0.60479  -0.60220
 Alpha  occ. eigenvalues --   -0.59893  -0.59509  -0.59437  -0.59181  -0.59147
 Alpha  occ. eigenvalues --   -0.58947  -0.57912  -0.56938  -0.55471  -0.54967
 Alpha  occ. eigenvalues --   -0.54651  -0.53666  -0.53651  -0.53360  -0.53234
 Alpha  occ. eigenvalues --   -0.53028  -0.52736  -0.52524  -0.51923  -0.51766
 Alpha  occ. eigenvalues --   -0.51086  -0.50604  -0.50329  -0.50114  -0.50060
 Alpha  occ. eigenvalues --   -0.49679  -0.49364  -0.49035  -0.48793  -0.48492
 Alpha  occ. eigenvalues --   -0.48108  -0.48054  -0.47896  -0.47837  -0.47563
 Alpha  occ. eigenvalues --   -0.47492  -0.47334  -0.47196  -0.46948  -0.46817
 Alpha  occ. eigenvalues --   -0.46809  -0.46617  -0.46168  -0.45829  -0.45789
 Alpha  occ. eigenvalues --   -0.45723  -0.45612  -0.45369  -0.45065  -0.44940
 Alpha  occ. eigenvalues --   -0.44919  -0.44678  -0.44580  -0.44446  -0.44259
 Alpha  occ. eigenvalues --   -0.43939  -0.43734  -0.43715  -0.43629  -0.43501
 Alpha  occ. eigenvalues --   -0.43345  -0.43298  -0.43129  -0.43086  -0.43005
 Alpha  occ. eigenvalues --   -0.42712  -0.42463  -0.42353  -0.42165  -0.41973
 Alpha  occ. eigenvalues --   -0.41947  -0.41621  -0.41443  -0.41375  -0.41200
 Alpha  occ. eigenvalues --   -0.41069  -0.40851  -0.40772  -0.40744  -0.40600
 Alpha  occ. eigenvalues --   -0.40562  -0.40140  -0.39965  -0.39906  -0.39813
 Alpha  occ. eigenvalues --   -0.39655  -0.39397  -0.39221  -0.39200  -0.39009
 Alpha  occ. eigenvalues --   -0.38636  -0.38590  -0.38574  -0.38358  -0.38089
 Alpha  occ. eigenvalues --   -0.37686  -0.37674  -0.37575  -0.37548  -0.37301
 Alpha  occ. eigenvalues --   -0.37269  -0.37163  -0.36922  -0.36826  -0.36496
 Alpha  occ. eigenvalues --   -0.36426  -0.36336  -0.36216  -0.36122  -0.35901
 Alpha  occ. eigenvalues --   -0.35845  -0.35768  -0.35639  -0.35377  -0.35131
 Alpha  occ. eigenvalues --   -0.35052  -0.34809  -0.34601  -0.34111  -0.34079
 Alpha  occ. eigenvalues --   -0.33673  -0.33285  -0.33113  -0.32955  -0.32846
 Alpha  occ. eigenvalues --   -0.31929  -0.31923  -0.31651  -0.31414  -0.31385
 Alpha  occ. eigenvalues --   -0.31197  -0.31117  -0.29856  -0.29701  -0.29581
 Alpha  occ. eigenvalues --   -0.29372  -0.28669  -0.28261  -0.27219  -0.26815
 Alpha  occ. eigenvalues --   -0.26461  -0.26388  -0.25939  -0.25767  -0.25499
 Alpha  occ. eigenvalues --   -0.25113  -0.24986  -0.24905  -0.21876  -0.20697
 Alpha  occ. eigenvalues --   -0.19390  -0.18534
 Alpha virt. eigenvalues --   -0.12010  -0.11072  -0.05501  -0.04642  -0.04267
 Alpha virt. eigenvalues --   -0.03978  -0.02431  -0.02261  -0.02109  -0.00933
 Alpha virt. eigenvalues --    0.00401   0.00768   0.00783   0.01177   0.01326

 Mulliken charges:
               1
     1  Mg  12.000000
     2  C    6.000000
     3  C    6.000000
     4  C    6.000000
     5  C    6.000000
     6  N    7.000000
     7  C    6.000000
     8  C    6.000000
     9  C    6.000000
    10  C    6.000000
    11  C    6.000000
    12  C    6.000000
    13  C    6.000000
    14  H    1.000000
    15  N    7.000000
    16  C    6.000000
    17  C    6.000000
    18  C    6.000000
    19  C    6.000000
    20  C    6.000000
    21  C    6.000000
    22  O    8.000000
    23  C    6.000000
    24  N    7.000000
    25  C    6.000000
    26  C    6.000000
    27  C    6.000000
    28  C    6.000000
    29  C    6.000000
    30  C    6.000000
    31  C    6.000000
    32  N    7.000000
    33  C    6.000000
    34  C    6.000000
    35  C    6.000000
    36  C    6.000000
    37  C    6.000000
    38  C    6.000000
    39  O    8.000000
    40  C    6.000000
    41  C    6.000000
    42  O    8.000000
    43  O    8.000000
    44  C    6.000000
    45  H    1.000000
    46  H    1.000000
    47  H    1.000000
    48  H    1.000000
    49  H    1.000000
    50  H    1.000000
    51  H    1.000000
    52  H    1.000000
    53  H    1.000000
    54  H    1.000000
    55  H    1.000000
    56  H    1.000000
    57  H    1.000000
    58  H    1.000000
    59  H    1.000000
    60  H    1.000000
    61  H    1.000000
    62  H    1.000000
    63  H    1.000000
    64  H    1.000000
    65  H    1.000000
    66  H    1.000000
    67  H    1.000000
    68  H    1.000000
    69  H    1.000000
    70  H    1.000000
    71  H    1.000000
    72  H    1.000000
    73  H    1.000000
    74  H    1.000000
    75  H    1.000000
    76  H    1.000000
    77  H    1.000000
    78  H    1.000000
    79  H    1.000000
    80  Mg  12.000000
    81  C    6.000000
    82  C    6.000000
    83  C    6.000000
    84  C    6.000000
    85  N    7.000000
    86  C    6.000000
    87  C    6.000000
    88  C    6.000000
    89  C    6.000000
    90  C    6.000000
    91  C    6.000000
    92  C    6.000000
    93  H    1.000000
    94  N    7.000000
    95  C    6.000000
    96  C    6.000000
    97  C    6.000000
    98  C    6.000000
    99  C    6.000000
   100  C    6.000000
   101  O    8.000000
   102  C    6.000000
   103  N    7.000000
   104  C    6.000000
   105  C    6.000000
   106  C    6.000000
   107  C    6.000000
   108  C    6.000000
   109  C    6.000000
   110  C    6.000000
   111  N    7.000000
   112  C    6.000000
   113  C    6.000000
   114  C    6.000000
   115  C    6.000000
   116  C    6.000000
   117  C    6.000000
   118  O    8.000000
   119  C    6.000000
   120  C    6.000000
   121  O    8.000000
   122  O    8.000000
   123  C    6.000000
   124  H    1.000000
   125  H    1.000000
   126  H    1.000000
   127  H    1.000000
   128  H    1.000000
   129  H    1.000000
   130  H    1.000000
   131  H    1.000000
   132  H    1.000000
   133  H    1.000000
   134  H    1.000000
   135  H    1.000000
   136  H    1.000000
   137  H    1.000000
   138  H    1.000000
   139  H    1.000000
   140  H    1.000000
   141  H    1.000000
   142  H    1.000000
   143  H    1.000000
   144  H    1.000000
   145  H    1.000000
   146  H    1.000000
   147  H    1.000000
   148  H    1.000000
   149  H    1.000000
   150  H    1.000000
   151  H    1.000000
   152  H    1.000000
   153  H    1.000000
   154  H    1.000000
   155  H    1.000000
   156  H    1.000000
   157  H    1.000000
   158  H    1.000000
 Sum of Mulliken charges = 624.00000

 Dipole moment (field-independent basis, Debye):
    X=              0.0000    Y=              0.0000    Z=             -0.0000  Tot=              0.0000
 Quadrupole moment (field-independent basis, Debye-Ang):
   XX=              0.0000   YY=              0.0000   ZZ=             -0.0000
   XY=              0.0000   XZ=             -0.0000   YZ=             -0.0000

 Normal termination of Gaussian 16 at Thu Oct 14 05:19:17 2021.
