 Gaussian 16, Revision A.03,
 Gaussian 16:  ES64L-G16RevA.03 25-Dec-2016

 ---------------------------------------------------
 #p PBE1PBE/Def2SVP td=(nstates=5) density=(current)
 ---------------------------------------------------

 --------------------------------
 TDDFT excited states in gaussian
 --------------------------------
 Symbolic Z-matrix:
 Charge =  0 Multiplicity = 1

                         Standard orientation:
 ---------------------------------------------------------------------
 Center     Atomic      Atomic             Coordinates (Angstroms)
 Number     Number       Type             X           Y           Z
 ---------------------------------------------------------------------
      1         12           0        0.748815    0.197377   -0.401714
      2          6           0       -2.743272    0.249838   -0.362138
      3          6           0        0.521997   -3.284205   -0.053046
      4          6           0        4.047496    0.020213    0.133354
      5          6           0        0.746028    3.567631    0.294476
      6          7           0       -0.951988   -1.412419   -0.329273
      7          6           0       -2.262032   -1.053172   -0.273088
      8          6           0       -3.181186   -2.330324   -0.128703
      9          6           0       -2.074625   -3.446423    0.227615
     10          6           0       -0.754224   -2.695026   -0.011473
     11          6           0       -2.189402   -3.743029    1.765098
     12          6           0       -3.826856   -2.604387   -1.536554
     13          6           0       -4.677710   -3.893988   -1.694000
     14          1           0       -4.680514   -4.890873   -2.814521
     15          7           0        2.074019   -1.410862   -0.220567
     16          6           0        1.828359   -2.791361   -0.133580
     17          6           0        3.063574   -3.438589    0.015616
     18          6           0        4.101793   -2.526272   -0.117134
     19          6           0        3.426182   -1.239686   -0.082211
     20          6           0        3.126308   -4.929304    0.085094
     21          6           0        5.652696   -2.730782   -0.109245
     22          8           0        6.478544   -1.835382   -0.251276
     23          6           0        6.288934   -4.123195   -0.136199
     24          7           0        2.144921    1.586175    0.250253
     25          6           0        3.463679    1.289353    0.246452
     26          6           0        4.375277    2.522671    0.399052
     27          6           0        3.314600    3.641852    0.591831
     28          6           0        2.000112    2.960520    0.256117
     29          6           0        5.509094    2.365373    1.465980
     30          6           0        3.539683    4.974109   -0.174472
     31          6           0        3.257003    4.957368   -1.616760
     32          7           0       -0.658954    1.674077   -0.181441
     33          6           0       -0.535216    2.953318    0.086559
     34          6           0       -1.823190    3.652469    0.032288
     35          6           0       -2.723894    2.556228   -0.158170
     36          6           0       -1.989170    1.389734   -0.242496
     37          6           0       -2.094468    5.062124   -0.217425
     38          6           0       -4.132382    2.246241   -0.330481
     39          8           0       -5.093175    2.973843   -0.439719
     40          6           0       -4.170980    0.714529   -0.393672
     41          6           0       -5.082763    0.124029    0.687012
     42          8           0       -4.773663    0.002048    1.843785
     43          8           0       -6.309957   -0.163500    0.138957
     44          6           0       -7.247982   -0.748889    1.124356
     45          1           0        0.440179   -4.372101   -0.076108
     46          1           0        5.139114    0.022570    0.096775
     47          1           0        1.029705    4.617590    0.385176
     48          1           0       -3.886561   -2.246600    0.698453
     49          1           0       -2.162059   -4.371730   -0.343189
     50          1           0       -1.406276   -3.330768    2.400573
     51          1           0       -1.976303   -4.789094    1.986550
     52          1           0       -3.142434   -3.446787    2.202888
     53          1           0       -3.019008   -2.597058   -2.267784
     54          1           0       -4.418578   -1.724135   -1.789245
     55          1           0       -5.696739   -3.554748   -1.505697
     56          1           0       -4.303735   -4.477296   -0.853483
     57          1           0        2.164974   -5.443724    0.079859
     58          1           0        3.800160   -5.196491    0.900270
     59          1           0        3.611830   -5.207383   -0.850746
     60          1           0        6.126378   -4.698415    0.775348
     61          1           0        7.340944   -4.137281   -0.421564
     62          1           0        5.834887   -4.647787   -0.977089
     63          1           0        4.799153    2.503941   -0.604591
     64          1           0        3.309359    3.815555    1.667892
     65          1           0        5.814358    1.323785    1.560396
     66          1           0        5.138302    2.700747    2.434912
     67          1           0        6.413939    2.914462    1.204664
     68          1           0        4.601839    5.142572    0.000339
     69          1           0        3.021062    5.784522    0.338106
     70          1           0        2.190131    5.110174   -1.778884
     71          1           0        3.625324    4.041446   -2.078439
     72          1           0        3.718315    5.800677   -2.131547
     73          1           0       -1.215992    5.421334   -0.753996
     74          1           0       -2.159909    5.758674    0.618568
     75          1           0       -3.016430    5.100797   -0.796625
     76          1           0       -4.535658    0.434093   -1.382384
     77          1           0       -8.253400   -0.400044    0.889433
     78          1           0       -7.160780   -0.381931    2.147238
     79          1           0       -7.262115   -1.835901    1.051909
 ---------------------------------------------------------------------

 SCF Done:  E(RPBE1PBE) =  -2033.70284711     A.U. after   15 cycles

 Excitation energies and oscillator strengths:

 Excited State   1:      Singlet-A      1.8847 eV  657.86 nm  f=0.3796  <S**2>=0.000
     155 ->158         0.17971
     156 ->157         0.69128
     156 <-157        -0.10354
 This state for optimization and/or second-order correction.
 Total Energy, E(TD-HF/TD-DFT) =  -2033.63358674
 Copying the excited state density for this state as the 1-particle RhoCI density.

 Excited State   2:      Singlet-A      2.2484 eV  551.44 nm  f=0.1084  <S**2>=0.000
     155 ->157         0.65565
     156 ->158        -0.25369

 Excited State   3:      Singlet-A      3.0901 eV  401.24 nm  f=0.0012  <S**2>=0.000
     152 ->157        -0.16702
     153 ->157        -0.31153
     154 ->157         0.59905

 Excited State   4:      Singlet-A      3.1426 eV  394.53 nm  f=0.0014  <S**2>=0.000
     151 ->157         0.17513
     151 ->159        -0.13007
     152 ->157         0.51653
     153 ->157        -0.38918

 Excited State   5:      Singlet-A      3.1551 eV  392.96 nm  f=0.0040  <S**2>=0.000
     151 ->157        -0.35933
     152 ->157         0.38271
     152 ->159         0.15331
     153 ->157         0.29784
     154 ->157         0.30876

 The electronic state is 1-A.
 Alpha  occ. eigenvalues --  -46.92129 -19.26462 -19.20640 -19.19527 -19.19119
 Alpha  occ. eigenvalues --  -14.41568 -14.40753 -14.38846 -14.38781 -10.36808
 Alpha  occ. eigenvalues --  -10.33206 -10.31712 -10.29066 -10.28686 -10.28498
 Alpha  occ. eigenvalues --  -10.28233 -10.27842 -10.27817 -10.27503 -10.27153
 Alpha  occ. eigenvalues --  -10.26457 -10.26422 -10.26204 -10.25737 -10.25624
 Alpha  occ. eigenvalues --  -10.25605 -10.25485 -10.25397 -10.25267 -10.25093
 Alpha  occ. eigenvalues --  -10.24973 -10.24669 -10.24564 -10.24279 -10.23857
 Alpha  occ. eigenvalues --  -10.23854 -10.23529 -10.23504 -10.23286 -10.23085
 Alpha  occ. eigenvalues --  -10.22890 -10.22593 -10.22158  -3.14269  -1.87096
 Alpha  occ. eigenvalues --   -1.86658  -1.86479  -1.11606  -1.05120  -1.05016
 Alpha  occ. eigenvalues --   -1.03617  -0.99782  -0.98359  -0.97988  -0.97025
 Alpha  occ. eigenvalues --   -0.88261  -0.83743  -0.82802  -0.82445  -0.81734
 Alpha  occ. eigenvalues --   -0.81556  -0.80640  -0.78310  -0.78001  -0.76684
 Alpha  occ. eigenvalues --   -0.75725  -0.75167  -0.74699  -0.72744  -0.71934
 Alpha  occ. eigenvalues --   -0.70952  -0.70467  -0.69178  -0.66995  -0.66213
 Alpha  occ. eigenvalues --   -0.64398  -0.63629  -0.62799  -0.61361  -0.59849
 Alpha  occ. eigenvalues --   -0.59220  -0.58961  -0.58599  -0.57113  -0.54546
 Alpha  occ. eigenvalues --   -0.54046  -0.53928  -0.53058  -0.52900  -0.51942
 Alpha  occ. eigenvalues --   -0.51069  -0.50198  -0.50141  -0.49794  -0.49223
 Alpha  occ. eigenvalues --   -0.48560  -0.47819  -0.47579  -0.47305  -0.46837
 Alpha  occ. eigenvalues --   -0.46742  -0.45720  -0.45620  -0.45379  -0.44726
 Alpha  occ. eigenvalues --   -0.44543  -0.44177  -0.44053  -0.43823  -0.43539
 Alpha  occ. eigenvalues --   -0.43453  -0.42956  -0.42548  -0.42173  -0.41788
 Alpha  occ. eigenvalues --   -0.41342  -0.40843  -0.40739  -0.40573  -0.40117
 Alpha  occ. eigenvalues --   -0.39850  -0.39748  -0.39462  -0.39199  -0.39063
 Alpha  occ. eigenvalues --   -0.38854  -0.38654  -0.38448  -0.38184  -0.37979
 Alpha  occ. eigenvalues --   -0.37734  -0.37391  -0.37267  -0.37164  -0.36792
 Alpha  occ. eigenvalues --   -0.36646  -0.35603  -0.35146  -0.34563  -0.33861
 Alpha  occ. eigenvalues --   -0.33408  -0.32823  -0.32696  -0.32265  -0.31812
 Alpha  occ. eigenvalues --   -0.31418  -0.29815  -0.29508  -0.28737  -0.26952
 Alpha  occ. eigenvalues --   -0.25894  -0.25752  -0.25542  -0.24993  -0.20726
 Alpha  occ. eigenvalues --   -0.18664
 Alpha virt. eigenvalues --   -0.10901  -0.04854  -0.03790  -0.02113  -0.00580
 Alpha virt. eigenvalues --    0.00544   0.01335   0.02088   0.03284   0.04315
 Alpha virt. eigenvalues --    0.04800   0.05684   0.06155   0.06502   0.07149

 Mulliken charges:
               1
     1  Mg   0.971756
     2  C   -0.022499
     3  C   -0.074076
     4  C   -0.092602
     5  C   -0.047099
     6  N   -0.332858
     7  C    0.006288
     8  C   -0.112509
     9  C   -0.149923
    10  C    0.068332
    11  C    0.003876
    12  C   -0.031950
    13  C   -0.114116
    14  H    0.066691
    15  N   -0.504361
    16  C    0.191233
    17  C   -0.189256
    18  C   -0.080051
    19  C    0.156723
    20  C    0.059540
    21  C    0.082133
    22  O   -0.246067
    23  C   -0.031942
    24  N   -0.445268
    25  C    0.093126
    26  C   -0.136504
    27  C   -0.065355
    28  C    0.012115
    29  C    0.023534
    30  C   -0.037175
    31  C   -0.034379
    32  N   -0.452509
    33  C    0.161009
    34  C   -0.149285
    35  C   -0.077928
    36  C    0.180391
    37  C    0.057155
    38  C    0.129968
    39  O   -0.202867
    40  C   -0.109085
    41  C    0.284965
    42  O   -0.234137
    43  O   -0.361806
    44  C    0.108629
    45  H   -0.007290
    46  H    0.031058
    47  H   -0.009333
    48  H    0.065252
    49  H    0.059868
    50  H    0.050330
    51  H    0.033475
    52  H    0.055639
    53  H    0.046028
    54  H    0.048277
    55  H    0.057133
    56  H    0.046638
    57  H    0.044939
    58  H    0.052834
    59  H    0.054716
    60  H    0.060460
    61  H    0.052940
    62  H    0.046547
    63  H    0.057813
    64  H    0.059013
    65  H    0.058035
    66  H    0.038603
    67  H    0.046037
    68  H    0.033273
    69  H    0.042416
    70  H    0.040414
    71  H    0.042115
    72  H    0.041604
    73  H    0.037656
    74  H    0.048994
    75  H    0.070521
    76  H    0.085706
    77  H    0.053946
    78  H    0.072965
    79  H    0.059518
 Sum of Mulliken charges =  -0.00000

 Dipole moment (field-independent basis, Debye):
    X=              1.2003    Y=             -2.7302    Z=             -0.5803  Tot=              3.0383
 Quadrupole moment (field-independent basis, Debye-Ang):
   XX=           -267.7029   YY=           -226.0650   ZZ=           -257.8341
   XY=             27.4718   XZ=             -1.1980   YZ=             -1.0700

 Normal termination of Gaussian 16 at Wed Oct 13 15:49:02 2021.
