 Gaussian 16, Revision A.03,
 Gaussian 16:  ES64L-G16RevA.03 25-Dec-2016

 --------------------------------------------------------
 #p PBE1PBE/Def2SVP td=(nstates=5) density=(transition=1)
 --------------------------------------------------------

 --------------------------------
 TDDFT excited states in gaussian
 --------------------------------
 Symbolic Z-matrix:
 Charge =  0 Multiplicity = 1

                         Standard orientation:
 ---------------------------------------------------------------------
 Center     Atomic      Atomic             Coordinates (Angstroms)
 Number     Number       Type             X           Y           Z
 ---------------------------------------------------------------------
      1         12           0       12.517376    0.063916    0.531252
      2          6           0        9.232334   -0.150006   -0.596554
      3          6           0       13.201053    2.354477   -1.843057
      4          6           0       15.775736   -0.138318    1.407421
      5          6           0       11.867051   -2.620346    2.595617
      6          7           0       11.297048    0.981818   -1.074865
      7          6           0        9.934162    0.892063   -1.201517
      8          6           0        9.451034    1.820810   -2.249719
      9          6           0       10.674528    2.610461   -2.729177
     10          6           0       11.840260    1.995427   -1.841065
     11          6           0       10.984214    2.657216   -4.217404
     12          6           0        8.228174    2.754265   -1.702567
     13          6           0        6.855686    2.624377   -2.403756
     14          1           0        6.005003    3.841619   -2.671263
     15          7           0       14.222962    1.060918   -0.037256
     16          6           0       14.317736    1.983038   -1.068738
     17          6           0       15.665376    2.399242   -1.211848
     18          6           0       16.450915    1.679615   -0.271068
     19          6           0       15.479979    0.834289    0.431312
     20          6           0       15.983051    3.576056   -2.215159
     21          6           0       17.971098    1.762627   -0.144489
     22          8           0       18.666207    1.078638    0.621928
     23          6           0       18.707678    2.770348   -0.912260
     24          7           0       13.766377   -1.342619    1.636427
     25          6           0       15.031606   -1.154505    1.949881
     26          6           0       15.572491   -2.327957    2.797572
     27          6           0       14.210836   -2.727954    3.490914
     28          6           0       13.176369   -2.170444    2.518332
     29          6           0       16.231708   -3.580115    2.109239
     30          6           0       13.970195   -2.194890    4.984019
     31          6           0       13.974519   -0.738855    5.212081
     32          7           0       10.883460   -1.262059    0.964405
     33          6           0       10.761118   -2.334422    1.869648
     34          6           0        9.438743   -2.868625    1.793973
     35          6           0        8.817602   -2.116375    0.816971
     36          6           0        9.716102   -1.073828    0.416472
     37          6           0        8.974773   -4.107715    2.387335
     38          6           0        7.582996   -1.841329    0.248186
     39          8           0        6.482722   -2.390404    0.366305
     40          6           0        7.775021   -0.628210   -0.771830
     41          6           0        7.617961   -1.225191   -2.131243
     42          8           0        8.224901   -2.106881   -2.702194
     43          8           0        6.573640   -0.590862   -2.667047
     44          6           0        6.213019   -0.985091   -4.068271
     45          1           0       13.239766    3.235589   -2.486909
     46          1           0       16.803813   -0.057953    1.764701
     47          1           0       11.658874   -3.426266    3.302151
     48          1           0        9.077151    1.173254   -3.041832
     49          1           0       10.577667    3.644549   -2.399190
     50          1           0       11.688941    1.826510   -4.216467
     51          1           0       11.358549    3.609376   -4.593810
     52          1           0       10.204532    2.417392   -4.939859
     53          1           0        8.548588    3.795461   -1.724299
     54          1           0        7.926044    2.524317   -0.680523
     55          1           0        6.230357    2.039294   -1.728788
     56          1           0        6.912881    2.016797   -3.305925
     57          1           0       16.780123    3.251650   -2.883874
     58          1           0       16.394845    4.264730   -1.477323
     59          1           0       15.197542    3.903308   -2.896395
     60          1           0       18.526464    2.658449   -1.980352
     61          1           0       19.752020    2.462107   -0.868928
     62          1           0       18.607371    3.794931   -0.553190
     63          1           0       16.148545   -1.911957    3.624255
     64          1           0       14.259606   -3.815681    3.535674
     65          1           0       15.752429   -3.923937    1.193414
     66          1           0       16.193275   -4.326165    2.903800
     67          1           0       17.270296   -3.374569    1.848685
     68          1           0       14.711597   -2.558056    5.696153
     69          1           0       12.942924   -2.369912    5.303549
     70          1           0       12.969998   -0.441260    4.914570
     71          1           0       14.664616   -0.111989    4.646541
     72          1           0       14.091947   -0.372776    6.231502
     73          1           0        9.308048   -4.868574    1.680550
     74          1           0        7.896053   -4.191254    2.516383
     75          1           0        9.327446   -4.258648    3.408189
     76          1           0        7.117770    0.217152   -0.567867
     77          1           0        6.552716   -0.147626   -4.678076
     78          1           0        5.140237   -1.164973   -4.134377
     79          1           0        6.708224   -1.862160   -4.485900
     80         12           0      -12.172789   -0.251141   -0.526066
     81          6           0      -11.475537    2.688953    1.035182
     82          6           0       -8.966053   -0.128980   -2.012812
     83          6           0      -12.436199   -3.523500   -1.139637
     84          6           0      -15.181495   -0.559241    1.447606
     85          7           0      -10.496141    1.133973   -0.482653
     86          6           0      -10.366687    2.234574    0.181154
     87          6           0       -9.118315    3.080598   -0.255817
     88          6           0       -8.489840    2.272594   -1.454283
     89          6           0       -9.376272    0.981839   -1.380447
     90          6           0       -8.351460    3.021038   -2.780752
     91          6           0       -8.108327    3.390648    1.001443
     92          6           0       -8.144744    2.470361    2.210785
     93          1           0       -6.970842    2.425078    3.188932
     94          7           0      -10.864589   -1.627539   -1.443919
     95          6           0       -9.650550   -1.390157   -2.042374
     96          6           0       -9.123097   -2.590245   -2.529173
     97          6           0      -10.089103   -3.635591   -2.261720
     98          6           0      -11.198838   -2.957520   -1.541333
     99          6           0       -7.847824   -2.603421   -3.351923
    100          6           0       -9.900567   -5.110157   -2.661629
    101          8           0       -8.842909   -5.422703   -3.253298
    102          6           0      -10.834033   -6.170636   -2.413698
    103          7           0      -13.571435   -1.909492    0.220305
    104          6           0      -13.500680   -3.063177   -0.380740
    105          6           0      -14.711887   -3.987337   -0.068202
    106          6           0      -15.626756   -3.025041    0.720454
    107          6           0      -14.791993   -1.685452    0.829625
    108          6           0      -15.398791   -4.532540   -1.268046
    109          6           0      -16.079752   -3.618796    2.136685
    110          6           0      -17.611731   -3.996109    2.277338
    111          7           0      -13.246421    0.835664    0.858101
    112          6           0      -14.446084    0.643069    1.554599
    113          6           0      -14.719571    1.861187    2.379082
    114          6           0      -13.558872    2.630616    2.215813
    115          6           0      -12.673501    1.966358    1.315941
    116          6           0      -15.865593    2.165266    3.214718
    117          6           0      -12.978399    3.805417    2.681813
    118          8           0      -13.354775    4.702657    3.450148
    119          6           0      -11.654417    3.952741    1.879407
    120          6           0      -11.691719    5.308402    1.134643
    121          8           0      -10.860671    6.199713    1.172970
    122          8           0      -12.821879    5.444425    0.357766
    123          6           0      -12.997497    6.705519   -0.372334
    124          1           0       -7.944781   -0.023313   -2.384264
    125          1           0      -12.654772   -4.548204   -1.446644
    126          1           0      -16.173052   -0.591383    1.903694
    127          1           0       -9.513505    3.979466   -0.729814
    128          1           0       -7.494557    1.894836   -1.218112
    129          1           0       -9.002282    2.566365   -3.527360
    130          1           0       -7.336401    2.974051   -3.176845
    131          1           0       -8.540017    4.093893   -2.740616
    132          1           0       -8.363130    4.427082    1.224013
    133          1           0       -7.044816    3.329920    0.769450
    134          1           0       -8.279665    1.486389    1.762435
    135          1           0       -9.077284    2.710644    2.721721
    136          1           0       -7.853865   -3.028543   -4.355921
    137          1           0       -7.054618   -3.053614   -2.754595
    138          1           0       -7.508808   -1.577229   -3.492372
    139          1           0      -11.821859   -6.096122   -2.868048
    140          1           0      -11.115709   -6.188658   -1.361355
    141          1           0      -10.421976   -7.164997   -2.582770
    142          1           0      -14.540926   -4.895169    0.510196
    143          1           0      -16.502253   -2.703913    0.155982
    144          1           0      -15.196546   -5.582662   -1.478278
    145          1           0      -14.994307   -4.087334   -2.177753
    146          1           0      -16.475553   -4.386658   -1.183572
    147          1           0      -15.935182   -2.840953    2.887687
    148          1           0      -15.595761   -4.556080    2.407833
    149          1           0      -17.704957   -4.977427    2.740857
    150          1           0      -18.014488   -4.133960    1.273819
    151          1           0      -18.020438   -3.250030    2.959076
    152          1           0      -16.697630    1.660287    2.723436
    153          1           0      -16.053087    3.239436    3.234504
    154          1           0      -15.598055    1.851163    4.223176
    155          1           0      -10.796271    4.192150    2.506972
    156          1           0      -14.061619    6.844028   -0.564477
    157          1           0      -12.546914    6.795316   -1.360640
    158          1           0      -12.565748    7.570313    0.132333
 ---------------------------------------------------------------------

 SCF Done:  E(RPBE1PBE) =  -4067.32195989     A.U. after   19 cycles

 Excitation energies and oscillator strengths:

 Excited State   1:      Singlet-A      1.8026 eV  687.79 nm  f=0.0000  <S**2>=0.000
     312 -> 313        0.70710
 This state for optimization and/or second-order correction.
 Total Energy, E(TD-HF/TD-DFT) =  -4067.25571426
 Copying the excited state density for this state as the 1-particle RhoCI density.

 Excited State   2:      Singlet-A      1.8529 eV  669.12 nm  f=0.4205  <S**2>=0.000
     309 -> 315        0.15112
     311 -> 313        0.66406
     312 -> 314       -0.21094
     311 <- 313       -0.11652

 Excited State   3:      Singlet-A      1.8593 eV  666.82 nm  f=0.3491  <S**2>=0.000
     310 -> 316        0.15620
     311 -> 313        0.21208
     312 -> 314        0.65963
     312 <- 314       -0.10261

 Excited State   4:      Singlet-A      1.9872 eV  623.90 nm  f=0.0000  <S**2>=0.000
     311 -> 314        0.70709

 Excited State   5:      Singlet-A      2.1771 eV  569.49 nm  f=0.1468  <S**2>=0.000
     310 -> 314        0.66016
     312 -> 316       -0.23472

 The electronic state is 1-A.
 Alpha  occ. eigenvalues --  -46.93652 -46.92700 -19.25648 -19.25439 -19.20266
 Alpha  occ. eigenvalues --  -19.19266 -19.18963 -19.18876 -19.18431 -19.17789
 Alpha  occ. eigenvalues --  -14.42636 -14.41605 -14.41346 -14.41189 -14.40052
 Alpha  occ. eigenvalues --  -14.39539 -14.39351 -14.38579 -10.36687 -10.35569
 Alpha  occ. eigenvalues --  -10.32184 -10.31593 -10.31519 -10.31239 -10.30487
 Alpha  occ. eigenvalues --  -10.29197 -10.29179 -10.28895 -10.28880 -10.28806
 Alpha  occ. eigenvalues --  -10.28650 -10.28623 -10.28532 -10.28512 -10.28335
 Alpha  occ. eigenvalues --  -10.27980 -10.27801 -10.27777 -10.27482 -10.27070
 Alpha  occ. eigenvalues --  -10.27007 -10.26982 -10.26911 -10.26764 -10.26591
 Alpha  occ. eigenvalues --  -10.26404 -10.26342 -10.26324 -10.26274 -10.26249
 Alpha  occ. eigenvalues --  -10.26098 -10.25784 -10.25778 -10.25774 -10.25642
 Alpha  occ. eigenvalues --  -10.25595 -10.25503 -10.25493 -10.25309 -10.25233
 Alpha  occ. eigenvalues --  -10.25103 -10.25003 -10.24993 -10.24978 -10.24878
 Alpha  occ. eigenvalues --  -10.24756 -10.24751 -10.24732 -10.24696 -10.24326
 Alpha  occ. eigenvalues --  -10.24076 -10.23979 -10.23947 -10.23936 -10.23878
 Alpha  occ. eigenvalues --  -10.23721 -10.23535 -10.23473 -10.23359 -10.23343
 Alpha  occ. eigenvalues --  -10.23020 -10.23011 -10.22860 -10.22483 -10.22304
 Alpha  occ. eigenvalues --  -10.22088  -3.15641  -3.14694  -1.88457  -1.88048
 Alpha  occ. eigenvalues --   -1.87829  -1.87537  -1.87045  -1.86932  -1.11742
 Alpha  occ. eigenvalues --   -1.10809  -1.03828  -1.03543  -1.03257  -1.02453
 Alpha  occ. eigenvalues --   -1.02133  -1.02099  -1.00001  -0.99538  -0.99056
 Alpha  occ. eigenvalues --   -0.98894  -0.98141  -0.98027  -0.97285  -0.97062
 Alpha  occ. eigenvalues --   -0.87180  -0.86524  -0.83970  -0.83678  -0.83487
 Alpha  occ. eigenvalues --   -0.83269  -0.83012  -0.82660  -0.82398  -0.82234
 Alpha  occ. eigenvalues --   -0.82031  -0.81912  -0.81130  -0.79689  -0.78943
 Alpha  occ. eigenvalues --   -0.78913  -0.78508  -0.78372  -0.77336  -0.77160
 Alpha  occ. eigenvalues --   -0.76755  -0.76217  -0.75805  -0.75633  -0.75053
 Alpha  occ. eigenvalues --   -0.74505  -0.73050  -0.72791  -0.71947  -0.71679
 Alpha  occ. eigenvalues --   -0.71655  -0.71196  -0.70597  -0.70268  -0.69664
 Alpha  occ. eigenvalues --   -0.69649  -0.67889  -0.67783  -0.66376  -0.66111
 Alpha  occ. eigenvalues --   -0.63920  -0.63747  -0.63443  -0.63220  -0.62692
 Alpha  occ. eigenvalues --   -0.62138  -0.61549  -0.61316  -0.60362  -0.60243
 Alpha  occ. eigenvalues --   -0.60088  -0.59882  -0.59303  -0.59297  -0.59052
 Alpha  occ. eigenvalues --   -0.58456  -0.57791  -0.56586  -0.55347  -0.54981
 Alpha  occ. eigenvalues --   -0.54522  -0.54456  -0.53849  -0.53526  -0.53228
 Alpha  occ. eigenvalues --   -0.53106  -0.52791  -0.52604  -0.52343  -0.51641
 Alpha  occ. eigenvalues --   -0.51008  -0.50958  -0.50219  -0.50199  -0.50070
 Alpha  occ. eigenvalues --   -0.49934  -0.49592  -0.49318  -0.49231  -0.49160
 Alpha  occ. eigenvalues --   -0.48913  -0.48370  -0.47996  -0.47871  -0.47785
 Alpha  occ. eigenvalues --   -0.47717  -0.47437  -0.47421  -0.47250  -0.47066
 Alpha  occ. eigenvalues --   -0.46702  -0.46674  -0.46457  -0.46037  -0.45817
 Alpha  occ. eigenvalues --   -0.45666  -0.45656  -0.45491  -0.45246  -0.44962
 Alpha  occ. eigenvalues --   -0.44792  -0.44452  -0.44389  -0.44287  -0.44127
 Alpha  occ. eigenvalues --   -0.44094  -0.43823  -0.43802  -0.43607  -0.43563
 Alpha  occ. eigenvalues --   -0.43374  -0.43215  -0.43123  -0.42956  -0.42947
 Alpha  occ. eigenvalues --   -0.42693  -0.42335  -0.42049  -0.41948  -0.41848
 Alpha  occ. eigenvalues --   -0.41740  -0.41500  -0.41498  -0.41366  -0.41321
 Alpha  occ. eigenvalues --   -0.40947  -0.40936  -0.40722  -0.40618  -0.40495
 Alpha  occ. eigenvalues --   -0.40436  -0.40046  -0.40010  -0.39772  -0.39536
 Alpha  occ. eigenvalues --   -0.39375  -0.39268  -0.39099  -0.39096  -0.38976
 Alpha  occ. eigenvalues --   -0.38821  -0.38505  -0.38504  -0.38437  -0.38148
 Alpha  occ. eigenvalues --   -0.38014  -0.37727  -0.37541  -0.37417  -0.37265
 Alpha  occ. eigenvalues --   -0.37135  -0.36996  -0.36920  -0.36794  -0.36703
 Alpha  occ. eigenvalues --   -0.36687  -0.36405  -0.36301  -0.35922  -0.35767
 Alpha  occ. eigenvalues --   -0.35764  -0.35653  -0.35550  -0.35514  -0.35064
 Alpha  occ. eigenvalues --   -0.34921  -0.34694  -0.34345  -0.33967  -0.33850
 Alpha  occ. eigenvalues --   -0.33531  -0.33029  -0.33015  -0.32980  -0.32826
 Alpha  occ. eigenvalues --   -0.32655  -0.32008  -0.31776  -0.31520  -0.31338
 Alpha  occ. eigenvalues --   -0.31263  -0.31146  -0.29729  -0.29649  -0.29573
 Alpha  occ. eigenvalues --   -0.29246  -0.29165  -0.28948  -0.27090  -0.27076
 Alpha  occ. eigenvalues --   -0.26333  -0.26142  -0.25808  -0.25766  -0.25696
 Alpha  occ. eigenvalues --   -0.25199  -0.24980  -0.24773  -0.21748  -0.20937
 Alpha  occ. eigenvalues --   -0.19261  -0.19044
 Alpha virt. eigenvalues --   -0.11881  -0.11405  -0.05373  -0.05132  -0.04136
 Alpha virt. eigenvalues --   -0.03885  -0.02303  -0.02094  -0.01988  -0.00569
 Alpha virt. eigenvalues --    0.00528   0.00899   0.01064   0.01494   0.01960

 Mulliken charges:
               1
     1  Mg  12.000000
     2  C    6.000000
     3  C    6.000000
     4  C    6.000000
     5  C    6.000000
     6  N    7.000000
     7  C    6.000000
     8  C    6.000000
     9  C    6.000000
    10  C    6.000000
    11  C    6.000000
    12  C    6.000000
    13  C    6.000000
    14  H    1.000000
    15  N    7.000000
    16  C    6.000000
    17  C    6.000000
    18  C    6.000000
    19  C    6.000000
    20  C    6.000000
    21  C    6.000000
    22  O    8.000000
    23  C    6.000000
    24  N    7.000000
    25  C    6.000000
    26  C    6.000000
    27  C    6.000000
    28  C    6.000000
    29  C    6.000000
    30  C    6.000000
    31  C    6.000000
    32  N    7.000000
    33  C    6.000000
    34  C    6.000000
    35  C    6.000000
    36  C    6.000000
    37  C    6.000000
    38  C    6.000000
    39  O    8.000000
    40  C    6.000000
    41  C    6.000000
    42  O    8.000000
    43  O    8.000000
    44  C    6.000000
    45  H    1.000000
    46  H    1.000000
    47  H    1.000000
    48  H    1.000000
    49  H    1.000000
    50  H    1.000000
    51  H    1.000000
    52  H    1.000000
    53  H    1.000000
    54  H    1.000000
    55  H    1.000000
    56  H    1.000000
    57  H    1.000000
    58  H    1.000000
    59  H    1.000000
    60  H    1.000000
    61  H    1.000000
    62  H    1.000000
    63  H    1.000000
    64  H    1.000000
    65  H    1.000000
    66  H    1.000000
    67  H    1.000000
    68  H    1.000000
    69  H    1.000000
    70  H    1.000000
    71  H    1.000000
    72  H    1.000000
    73  H    1.000000
    74  H    1.000000
    75  H    1.000000
    76  H    1.000000
    77  H    1.000000
    78  H    1.000000
    79  H    1.000000
    80  Mg  12.000000
    81  C    6.000000
    82  C    6.000000
    83  C    6.000000
    84  C    6.000000
    85  N    7.000000
    86  C    6.000000
    87  C    6.000000
    88  C    6.000000
    89  C    6.000000
    90  C    6.000000
    91  C    6.000000
    92  C    6.000000
    93  H    1.000000
    94  N    7.000000
    95  C    6.000000
    96  C    6.000000
    97  C    6.000000
    98  C    6.000000
    99  C    6.000000
   100  C    6.000000
   101  O    8.000000
   102  C    6.000000
   103  N    7.000000
   104  C    6.000000
   105  C    6.000000
   106  C    6.000000
   107  C    6.000000
   108  C    6.000000
   109  C    6.000000
   110  C    6.000000
   111  N    7.000000
   112  C    6.000000
   113  C    6.000000
   114  C    6.000000
   115  C    6.000000
   116  C    6.000000
   117  C    6.000000
   118  O    8.000000
   119  C    6.000000
   120  C    6.000000
   121  O    8.000000
   122  O    8.000000
   123  C    6.000000
   124  H    1.000000
   125  H    1.000000
   126  H    1.000000
   127  H    1.000000
   128  H    1.000000
   129  H    1.000000
   130  H    1.000000
   131  H    1.000000
   132  H    1.000000
   133  H    1.000000
   134  H    1.000000
   135  H    1.000000
   136  H    1.000000
   137  H    1.000000
   138  H    1.000000
   139  H    1.000000
   140  H    1.000000
   141  H    1.000000
   142  H    1.000000
   143  H    1.000000
   144  H    1.000000
   145  H    1.000000
   146  H    1.000000
   147  H    1.000000
   148  H    1.000000
   149  H    1.000000
   150  H    1.000000
   151  H    1.000000
   152  H    1.000000
   153  H    1.000000
   154  H    1.000000
   155  H    1.000000
   156  H    1.000000
   157  H    1.000000
   158  H    1.000000
 Sum of Mulliken charges = 624.00000

 Dipole moment (field-independent basis, Debye):
    X=              0.0000    Y=              0.0000    Z=             -0.0000  Tot=              0.0000
 Quadrupole moment (field-independent basis, Debye-Ang):
   XX=              0.0000   YY=             -0.0000   ZZ=             -0.0000
   XY=              0.0000   XZ=             -0.0000   YZ=              0.0000

 Normal termination of Gaussian 16 at Thu Oct 14 02:42:25 2021.
