 Gaussian 16, Revision A.03,
 Gaussian 16:  ES64L-G16RevA.03 25-Dec-2016

 --------------------------------------------------------
 #p PBE1PBE/Def2SVP td=(nstates=5) density=(transition=1)
 --------------------------------------------------------

 --------------------------------
 TDDFT excited states in gaussian
 --------------------------------
 Symbolic Z-matrix:
 Charge =  0 Multiplicity = 1

                         Standard orientation:
 ---------------------------------------------------------------------
 Center     Atomic      Atomic             Coordinates (Angstroms)
 Number     Number       Type             X           Y           Z
 ---------------------------------------------------------------------
      1         12           0       -4.347648   -0.716676    0.998988
      2          6           0       -5.374637    2.440074   -0.102446
      3          6           0       -2.660876    0.936621    3.540523
      4          6           0       -3.040032   -3.589517    1.778857
      5          6           0       -5.969133   -2.121450   -1.819003
      6          7           0       -3.714724    1.517541    1.421526
      7          6           0       -4.392007    2.563271    0.936595
      8          6           0       -3.941590    3.778711    1.675837
      9          6           0       -2.744416    3.306087    2.536634
     10          6           0       -3.047105    1.820794    2.546258
     11          6           0       -1.315242    3.629451    2.097478
     12          6           0       -5.083240    4.385389    2.551873
     13          6           0       -5.377513    5.917467    2.458482
     14          1           0       -4.211853    6.896607    2.115081
     15          7           0       -3.120034   -1.286720    2.583845
     16          6           0       -2.705582   -0.450443    3.611966
     17          6           0       -2.014476   -1.273425    4.550396
     18          6           0       -1.987650   -2.616984    3.999330
     19          6           0       -2.732180   -2.573785    2.749653
     20          6           0       -1.319135   -0.754362    5.827962
     21          6           0       -1.273626   -3.895382    4.525061
     22          8           0       -1.299377   -4.953683    3.981232
     23          6           0       -0.560895   -3.757542    5.856001
     24          7           0       -4.517774   -2.560503    0.093404
     25          6           0       -3.810717   -3.602955    0.584062
     26          6           0       -4.013418   -4.927816   -0.201577
     27          6           0       -5.173904   -4.482063   -1.191273
     28          6           0       -5.273475   -2.977380   -0.970237
     29          6           0       -2.613653   -5.402844   -0.902746
     30          6           0       -6.488183   -5.309105   -1.031657
     31          6           0       -7.604997   -4.712680   -0.193832
     32          7           0       -5.505464   -0.051469   -0.657634
     33          6           0       -6.156535   -0.737594   -1.647025
     34          6           0       -6.899199    0.258604   -2.496355
     35          6           0       -6.607474    1.509392   -1.906749
     36          6           0       -5.715919    1.299766   -0.803030
     37          6           0       -7.621689    0.007859   -3.792091
     38          6           0       -6.837480    2.949157   -1.997507
     39          8           0       -7.511371    3.559229   -2.832526
     40          6           0       -6.187533    3.548951   -0.754176
     41          6           0       -5.334742    4.682343   -1.247977
     42          8           0       -4.243120    4.561735   -1.773169
     43          8           0       -6.091675    5.764254   -1.167049
     44          6           0       -5.705370    6.933626   -1.940917
     45          1           0       -2.015220    1.455178    4.251681
     46          1           0       -2.762178   -4.587181    2.124246
     47          1           0       -6.481444   -2.557895   -2.679312
     48          1           0       -3.643197    4.535133    0.950661
     49          1           0       -2.850485    3.808947    3.497962
     50          1           0       -1.210320    4.232804    1.195606
     51          1           0       -0.750064    2.709239    1.946929
     52          1           0       -0.862837    4.172966    2.926654
     53          1           0       -5.017471    4.109596    3.604145
     54          1           0       -5.925169    3.825119    2.145473
     55          1           0       -5.750876    6.162385    3.453625
     56          1           0       -6.168846    6.074146    1.725888
     57          1           0       -0.275023   -1.058113    5.903877
     58          1           0       -1.740405   -1.189562    6.734313
     59          1           0       -1.369269    0.326995    5.962140
     60          1           0       -1.192890   -3.323957    6.631317
     61          1           0        0.352973   -3.187161    5.689367
     62          1           0       -0.149241   -4.717961    6.166168
     63          1           0       -4.345711   -5.746100    0.437009
     64          1           0       -4.931934   -4.658027   -2.239313
     65          1           0       -2.770395   -5.219640   -1.965831
     66          1           0       -2.448395   -6.479512   -0.857259
     67          1           0       -1.749230   -4.798611   -0.625161
     68          1           0       -6.175289   -6.182614   -0.459490
     69          1           0       -6.885642   -5.650746   -1.987162
     70          1           0       -7.090829   -4.309026    0.679256
     71          1           0       -8.205451   -5.597396    0.016604
     72          1           0       -8.185365   -3.865207   -0.557707
     73          1           0       -7.570448   -0.986425   -4.235899
     74          1           0       -7.235615    0.685897   -4.553349
     75          1           0       -8.646830    0.328418   -3.609235
     76          1           0       -6.874521    4.064475   -0.082781
     77          1           0       -4.871423    6.875500   -2.639652
     78          1           0       -5.371943    7.627264   -1.168428
     79          1           0       -6.608972    7.493812   -2.181641
     80         12           0        3.930409   -0.498243   -0.975696
     81          6           0        6.630983    1.475183   -0.377373
     82          6           0        1.731778    2.159526   -1.048882
     83          6           0        1.339523   -2.700947   -1.374156
     84          6           0        6.052331   -3.387369   -0.484489
     85          7           0        4.146513    1.536415   -0.532172
     86          6           0        5.417257    2.202970   -0.560459
     87          6           0        5.245881    3.659253   -0.732535
     88          6           0        3.672758    3.816067   -0.525415
     89          6           0        3.097785    2.428532   -0.703585
     90          6           0        3.280157    4.416371    0.916005
     91          6           0        5.891305    4.244936   -2.025973
     92          6           0        6.662326    5.511526   -1.836914
     93          1           0        6.035866    6.563978   -0.839529
     94          7           0        1.830091   -0.291423   -1.255798
     95          6           0        1.177448    0.905122   -1.229310
     96          6           0       -0.201482    0.645424   -1.464569
     97          6           0       -0.372316   -0.780646   -1.660424
     98          6           0        1.001173   -1.366845   -1.506277
     99          6           0       -1.270947    1.757472   -1.396675
    100          6           0       -1.556014   -1.633267   -1.995450
    101          8           0       -1.626779   -2.866566   -2.040485
    102          6           0       -2.860941   -0.841827   -2.386873
    103          7           0        3.684975   -2.785486   -0.832022
    104          6           0        2.563533   -3.391321   -1.133421
    105          6           0        2.748645   -4.894019   -1.334092
    106          6           0        4.263963   -5.093018   -1.044942
    107          6           0        4.712236   -3.663662   -0.746609
    108          6           0        1.812134   -5.794729   -0.378821
    109          6           0        4.958796   -5.693160   -2.345809
    110          6           0        5.075108   -4.859607   -3.645877
    111          7           0        5.903254   -0.902601   -0.362850
    112          6           0        6.597937   -2.094036   -0.272782
    113          6           0        8.013635   -1.734086   -0.053635
    114          6           0        8.138785   -0.377784   -0.090027
    115          6           0        6.787610    0.087443   -0.283784
    116          6           0        9.076540   -2.711968    0.312106
    117          6           0        9.042759    0.768504    0.001400
    118          8           0       10.246200    0.829722    0.189592
    119          6           0        8.063611    2.010583   -0.177105
    120          6           0        8.116265    2.789378    1.076836
    121          8           0        7.888092    2.394456    2.233532
    122          8           0        8.487809    4.054730    0.669786
    123          6           0        8.430894    5.073609    1.726144
    124          1           0        1.012224    2.976542   -1.131855
    125          1           0        0.487448   -3.338090   -1.622716
    126          1           0        6.722492   -4.245656   -0.410795
    127          1           0        5.787850    4.094549    0.107998
    128          1           0        3.295269    4.464492   -1.315493
    129          1           0        4.120657    4.863522    1.446775
    130          1           0        3.026670    3.558558    1.538744
    131          1           0        2.421905    5.050755    0.698430
    132          1           0        5.114673    4.450448   -2.762715
    133          1           0        6.565839    3.447132   -2.336478
    134          1           0        6.746302    6.099852   -2.749808
    135          1           0        7.712567    5.502660   -1.545015
    136          1           0       -1.319770    2.422746   -2.258644
    137          1           0       -1.021026    2.260652   -0.462772
    138          1           0       -2.289288    1.369558   -1.408748
    139          1           0       -3.288789   -0.399835   -1.487010
    140          1           0       -3.474960   -1.493858   -3.007842
    141          1           0       -2.687932   -0.045325   -3.110871
    142          1           0        2.549572   -5.129417   -2.379316
    143          1           0        4.465265   -5.775382   -0.219083
    144          1           0        1.032688   -6.200694   -1.024610
    145          1           0        1.347050   -5.172221    0.386247
    146          1           0        2.231129   -6.666627    0.121889
    147          1           0        4.576274   -6.661590   -2.667768
    148          1           0        5.985306   -5.805631   -1.995397
    149          1           0        6.153190   -4.735243   -3.748672
    150          1           0        4.530736   -3.917647   -3.592009
    151          1           0        4.681363   -5.361726   -4.529555
    152          1           0        9.964520   -2.277763   -0.146272
    153          1           0        8.873573   -3.717501   -0.056885
    154          1           0        9.289242   -2.575218    1.371564
    155          1           0        8.603735    2.546054   -0.957450
    156          1           0        8.865847    5.940606    1.228075
    157          1           0        9.125080    4.740443    2.497647
    158          1           0        7.463026    5.200217    2.211663
 ---------------------------------------------------------------------

 SCF Done:  E(RPBE1PBE) =  -4067.37214879     A.U. after   16 cycles

 Excitation energies and oscillator strengths:

 Excited State   1:      Singlet-A      1.6243 eV  763.29 nm  f=0.0001  <S**2>=0.000
     312 -> 313        0.70604
 This state for optimization and/or second-order correction.
 Total Energy, E(TD-HF/TD-DFT) =  -4067.31245567
 Copying the excited state density for this state as the 1-particle RhoCI density.

 Excited State   2:      Singlet-A      1.6908 eV  733.29 nm  f=0.0006  <S**2>=0.000
     311 -> 314        0.70279

 Excited State   3:      Singlet-A      1.8245 eV  679.57 nm  f=0.2679  <S**2>=0.000
     309 -> 315        0.16751
     311 -> 313       -0.19569
     312 -> 314        0.66386

 Excited State   4:      Singlet-A      1.8563 eV  667.90 nm  f=0.4910  <S**2>=0.000
     310 -> 316       -0.17132
     311 -> 313        0.66067
     312 -> 314        0.19274

 Excited State   5:      Singlet-A      2.1879 eV  566.68 nm  f=0.0578  <S**2>=0.000
     310 -> 313        0.65296
     311 -> 316        0.23863

 The electronic state is 1-A.
 Alpha  occ. eigenvalues --  -46.92385 -46.92231 -19.27158 -19.26245 -19.20431
 Alpha  occ. eigenvalues --  -19.20220 -19.19740 -19.19503 -19.19467 -19.18897
 Alpha  occ. eigenvalues --  -14.41737 -14.41313 -14.41188 -14.41083 -14.39000
 Alpha  occ. eigenvalues --  -14.38985 -14.38805 -14.38471 -10.36475 -10.36415
 Alpha  occ. eigenvalues --  -10.32522 -10.32514 -10.32373 -10.31703 -10.29539
 Alpha  occ. eigenvalues --  -10.29385 -10.29346 -10.29012 -10.28913 -10.28449
 Alpha  occ. eigenvalues --  -10.28441 -10.28273 -10.28059 -10.27844 -10.27717
 Alpha  occ. eigenvalues --  -10.27645 -10.27377 -10.27342 -10.27149 -10.27020
 Alpha  occ. eigenvalues --  -10.26949 -10.26855 -10.26847 -10.26454 -10.26395
 Alpha  occ. eigenvalues --  -10.26333 -10.26080 -10.25976 -10.25968 -10.25954
 Alpha  occ. eigenvalues --  -10.25939 -10.25698 -10.25564 -10.25507 -10.25314
 Alpha  occ. eigenvalues --  -10.25167 -10.25148 -10.25112 -10.25098 -10.25003
 Alpha  occ. eigenvalues --  -10.25000 -10.24887 -10.24801 -10.24796 -10.24708
 Alpha  occ. eigenvalues --  -10.24273 -10.24243 -10.24218 -10.24198 -10.24021
 Alpha  occ. eigenvalues --  -10.23986 -10.23826 -10.23590 -10.23545 -10.23542
 Alpha  occ. eigenvalues --  -10.23491 -10.23363 -10.23362 -10.22991 -10.22932
 Alpha  occ. eigenvalues --  -10.22765 -10.22516 -10.22425 -10.22174 -10.22059
 Alpha  occ. eigenvalues --  -10.21774  -3.14375  -3.14291  -1.87218  -1.87150
 Alpha  occ. eigenvalues --   -1.86739  -1.86694  -1.86597  -1.86470  -1.13384
 Alpha  occ. eigenvalues --   -1.10658  -1.06197  -1.04901  -1.04264  -1.04092
 Alpha  occ. eigenvalues --   -1.03753  -1.02208  -0.99718  -0.99512  -0.98349
 Alpha  occ. eigenvalues --   -0.98176  -0.97205  -0.97152  -0.96619  -0.96074
 Alpha  occ. eigenvalues --   -0.87697  -0.86611  -0.83150  -0.83076  -0.82890
 Alpha  occ. eigenvalues --   -0.82797  -0.82235  -0.82041  -0.81470  -0.81207
 Alpha  occ. eigenvalues --   -0.80971  -0.80451  -0.79926  -0.79858  -0.78824
 Alpha  occ. eigenvalues --   -0.78743  -0.78045  -0.77481  -0.76479  -0.76451
 Alpha  occ. eigenvalues --   -0.75787  -0.75675  -0.75178  -0.74976  -0.74274
 Alpha  occ. eigenvalues --   -0.73552  -0.72203  -0.71995  -0.71680  -0.71464
 Alpha  occ. eigenvalues --   -0.71434  -0.70947  -0.70439  -0.69949  -0.68982
 Alpha  occ. eigenvalues --   -0.68955  -0.67068  -0.66680  -0.66392  -0.66001
 Alpha  occ. eigenvalues --   -0.63926  -0.63607  -0.63412  -0.63152  -0.62652
 Alpha  occ. eigenvalues --   -0.62501  -0.61513  -0.60606  -0.59877  -0.59565
 Alpha  occ. eigenvalues --   -0.59282  -0.59268  -0.59067  -0.58969  -0.58853
 Alpha  occ. eigenvalues --   -0.58726  -0.57402  -0.56964  -0.54526  -0.54338
 Alpha  occ. eigenvalues --   -0.54294  -0.53827  -0.53769  -0.53187  -0.53153
 Alpha  occ. eigenvalues --   -0.53070  -0.52570  -0.52316  -0.51893  -0.51848
 Alpha  occ. eigenvalues --   -0.51273  -0.50659  -0.50272  -0.49905  -0.49634
 Alpha  occ. eigenvalues --   -0.49392  -0.49352  -0.49192  -0.48857  -0.48811
 Alpha  occ. eigenvalues --   -0.48202  -0.48037  -0.47943  -0.47710  -0.47621
 Alpha  occ. eigenvalues --   -0.47487  -0.47135  -0.46776  -0.46703  -0.46417
 Alpha  occ. eigenvalues --   -0.46277  -0.46065  -0.46031  -0.45947  -0.45847
 Alpha  occ. eigenvalues --   -0.45709  -0.45528  -0.45446  -0.44991  -0.44767
 Alpha  occ. eigenvalues --   -0.44367  -0.44224  -0.44167  -0.43970  -0.43811
 Alpha  occ. eigenvalues --   -0.43685  -0.43550  -0.43376  -0.43118  -0.43090
 Alpha  occ. eigenvalues --   -0.43008  -0.42948  -0.42888  -0.42828  -0.42576
 Alpha  occ. eigenvalues --   -0.42366  -0.42129  -0.41887  -0.41826  -0.41589
 Alpha  occ. eigenvalues --   -0.41383  -0.41210  -0.40973  -0.40872  -0.40711
 Alpha  occ. eigenvalues --   -0.40623  -0.40484  -0.40427  -0.40349  -0.40125
 Alpha  occ. eigenvalues --   -0.40086  -0.40029  -0.39822  -0.39673  -0.39447
 Alpha  occ. eigenvalues --   -0.39326  -0.39285  -0.39187  -0.39048  -0.38578
 Alpha  occ. eigenvalues --   -0.38496  -0.38061  -0.38022  -0.37957  -0.37937
 Alpha  occ. eigenvalues --   -0.37780  -0.37737  -0.37638  -0.37466  -0.37317
 Alpha  occ. eigenvalues --   -0.37297  -0.37073  -0.36894  -0.36836  -0.36696
 Alpha  occ. eigenvalues --   -0.36650  -0.36553  -0.36436  -0.36269  -0.36153
 Alpha  occ. eigenvalues --   -0.35551  -0.35510  -0.35395  -0.35162  -0.35046
 Alpha  occ. eigenvalues --   -0.34740  -0.34718  -0.34518  -0.34278  -0.33631
 Alpha  occ. eigenvalues --   -0.32918  -0.32616  -0.32315  -0.32278  -0.32050
 Alpha  occ. eigenvalues --   -0.31957  -0.31761  -0.31562  -0.31445  -0.31303
 Alpha  occ. eigenvalues --   -0.31187  -0.31137  -0.29569  -0.29453  -0.29263
 Alpha  occ. eigenvalues --   -0.29139  -0.28789  -0.28578  -0.26611  -0.26402
 Alpha  occ. eigenvalues --   -0.26143  -0.26115  -0.25729  -0.25650  -0.25294
 Alpha  occ. eigenvalues --   -0.25273  -0.25080  -0.24659  -0.21046  -0.20662
 Alpha  occ. eigenvalues --   -0.18640  -0.18400
 Alpha virt. eigenvalues --   -0.10983  -0.10792  -0.05555  -0.04942  -0.04244
 Alpha virt. eigenvalues --   -0.04028  -0.02072  -0.01560  -0.00637   0.00026
 Alpha virt. eigenvalues --    0.00210   0.00895   0.00950   0.00984   0.01260

 Mulliken charges:
               1
     1  Mg  12.000092
     2  C    6.000121
     3  C    5.999389
     4  C    6.000716
     5  C    5.999980
     6  N    6.999519
     7  C    6.000110
     8  C    5.999821
     9  C    6.000054
    10  C    6.000370
    11  C    6.000144
    12  C    5.999995
    13  C    6.000014
    14  H    0.999990
    15  N    7.000129
    16  C    6.000396
    17  C    6.000131
    18  C    6.000116
    19  C    5.999912
    20  C    5.999961
    21  C    6.000045
    22  O    8.000077
    23  C    5.999980
    24  N    6.999656
    25  C    6.000050
    26  C    6.000050
    27  C    5.999976
    28  C    6.000012
    29  C    6.000183
    30  C    6.000026
    31  C    5.999993
    32  N    7.000127
    33  C    5.999859
    34  C    6.000317
    35  C    5.999581
    36  C    6.000316
    37  C    5.999965
    38  C    5.999826
    39  O    7.999654
    40  C    6.000051
    41  C    5.999945
    42  O    8.000070
    43  O    7.999981
    44  C    6.000051
    45  H    0.999886
    46  H    1.000111
    47  H    0.999949
    48  H    1.000086
    49  H    0.999949
    50  H    0.999879
    51  H    1.000130
    52  H    0.999839
    53  H    0.999969
    54  H    1.000015
    55  H    0.999963
    56  H    1.000019
    57  H    1.000063
    58  H    1.000063
    59  H    1.000128
    60  H    1.000020
    61  H    1.000009
    62  H    1.000031
    63  H    0.999939
    64  H    1.000002
    65  H    1.000095
    66  H    0.999745
    67  H    0.999661
    68  H    0.999949
    69  H    0.999973
    70  H    0.999954
    71  H    0.999960
    72  H    1.000008
    73  H    0.999968
    74  H    1.000055
    75  H    1.000000
    76  H    0.999924
    77  H    0.999993
    78  H    0.999940
    79  H    0.999950
    80  Mg  11.999956
    81  C    5.999961
    82  C    6.000390
    83  C    5.999698
    84  C    5.999648
    85  N    7.000033
    86  C    6.000231
    87  C    5.999896
    88  C    6.000100
    89  C    5.999752
    90  C    6.000166
    91  C    5.999971
    92  C    5.999951
    93  H    1.000110
    94  N    7.000029
    95  C    5.998925
    96  C    6.000112
    97  C    6.000676
    98  C    5.999698
    99  C    6.000298
   100  C    5.999132
   101  O    7.999297
   102  C    6.000348
   103  N    6.999828
   104  C    6.000523
   105  C    5.999877
   106  C    5.999802
   107  C    6.000612
   108  C    6.000284
   109  C    5.999972
   110  C    5.999943
   111  N    6.999990
   112  C    6.000531
   113  C    6.000135
   114  C    6.000102
   115  C    6.000253
   116  C    5.999974
   117  C    6.000254
   118  O    8.000308
   119  C    5.999991
   120  C    6.000043
   121  O    8.000061
   122  O    8.000023
   123  C    5.999982
   124  H    1.000025
   125  H    1.000044
   126  H    1.000087
   127  H    0.999992
   128  H    1.000003
   129  H    0.999790
   130  H    0.999945
   131  H    0.999910
   132  H    1.000153
   133  H    0.999926
   134  H    1.000047
   135  H    0.999954
   136  H    0.999025
   137  H    0.999692
   138  H    0.999881
   139  H    0.999732
   140  H    0.999971
   141  H    0.999949
   142  H    1.000123
   143  H    1.000115
   144  H    1.000123
   145  H    0.999614
   146  H    0.999907
   147  H    1.000148
   148  H    0.999999
   149  H    0.999980
   150  H    1.000083
   151  H    1.000114
   152  H    1.000164
   153  H    1.000186
   154  H    1.000206
   155  H    1.000106
   156  H    1.000061
   157  H    1.000016
   158  H    1.000089
 Sum of Mulliken charges = 624.00000

 Dipole moment (field-independent basis, Debye):
    X=              0.1517    Y=             -0.0434    Z=              0.0467  Tot=              0.1646
 Quadrupole moment (field-independent basis, Debye-Ang):
   XX=              0.7381   YY=              0.0056   ZZ=              0.0283
   XY=             -0.0274   XZ=             -0.1445   YZ=             -0.0186

 Normal termination of Gaussian 16 at Fri Oct 15 17:36:48 2021.
