 Gaussian 16, Revision A.03,
 Gaussian 16:  ES64L-G16RevA.03 25-Dec-2016

 --------------------------------------------------------
 #p PBE1PBE/Def2SVP td=(nstates=5) density=(transition=1)
 --------------------------------------------------------

 --------------------------------
 TDDFT excited states in gaussian
 --------------------------------
 Symbolic Z-matrix:
 Charge =  0 Multiplicity = 1

                         Standard orientation:
 ---------------------------------------------------------------------
 Center     Atomic      Atomic             Coordinates (Angstroms)
 Number     Number       Type             X           Y           Z
 ---------------------------------------------------------------------
      1         12           0       -8.435055    0.597432   -0.456292
      2          6           0       -7.067571   -0.642790    2.517444
      3          6           0       -6.572625    3.448707    0.145587
      4          6           0       -9.405656    1.728432   -3.443059
      5          6           0       -9.525240   -2.622220   -1.272210
      6          7           0       -6.751665    1.222582    1.175672
      7          6           0       -6.490950    0.582249    2.331473
      8          6           0       -5.504784    1.307891    3.214957
      9          6           0       -5.643842    2.716372    2.521145
     10          6           0       -6.312621    2.497421    1.167952
     11          6           0       -6.553965    3.639543    3.374507
     12          6           0       -4.148908    0.591176    3.244925
     13          6           0       -3.577376   -0.024531    1.950808
     14          1           0       -2.126691    0.318577    1.633518
     15          7           0       -8.063270    2.322632   -1.490806
     16          6           0       -7.373538    3.402222   -1.006169
     17          6           0       -7.740144    4.590249   -1.788035
     18          6           0       -8.451551    4.109925   -2.959379
     19          6           0       -8.675100    2.667093   -2.638926
     20          6           0       -7.094892    6.007424   -1.541120
     21          6           0       -8.852957    4.926424   -4.190344
     22          8           0       -8.707496    6.116929   -4.207525
     23          6           0       -9.478403    4.244507   -5.372832
     24          7           0       -9.165636   -0.437479   -2.222859
     25          6           0       -9.620908    0.272932   -3.349087
     26          6           0      -10.316776   -0.658759   -4.429369
     27          6           0      -10.384708   -2.052683   -3.641363
     28          6           0       -9.679323   -1.683665   -2.256738
     29          6           0      -11.715540   -0.225046   -5.098073
     30          6           0       -9.754680   -3.333988   -4.355722
     31          6           0      -10.581825   -4.658794   -3.972674
     32          7           0       -8.398571   -1.296738    0.425887
     33          6           0       -8.963555   -2.485567    0.011070
     34          6           0       -8.797867   -3.484899    1.059477
     35          6           0       -8.117592   -2.841952    2.125685
     36          6           0       -7.822700   -1.512374    1.653032
     37          6           0       -9.400407   -4.865139    1.087118
     38          6           0       -7.466410   -2.950437    3.471796
     39          8           0       -7.295773   -3.915651    4.182673
     40          6           0       -6.839575   -1.517550    3.745318
     41          6           0       -7.517863   -0.980599    4.975632
     42          8           0       -7.247027   -1.350924    6.145379
     43          8           0       -8.356739    0.067181    4.624618
     44          6           0       -8.887763    0.818497    5.712529
     45          1           0       -6.058979    4.383813    0.378764
     46          1           0       -9.942339    2.032439   -4.344426
     47          1           0      -10.044876   -3.565096   -1.455711
     48          1           0       -5.892301    1.445716    4.224205
     49          1           0       -4.733616    3.283463    2.330979
     50          1           0       -7.085159    4.272203    2.662986
     51          1           0       -5.968301    4.163405    4.128612
     52          1           0       -7.406151    3.207451    3.900019
     53          1           0       -4.289057   -0.270523    3.896833
     54          1           0       -3.416631    1.272424    3.678419
     55          1           0       -4.153257    0.343194    1.101908
     56          1           0       -3.611547   -1.109119    2.049672
     57          1           0       -6.081346    6.126999   -1.924872
     58          1           0       -7.099292    6.228075   -0.473643
     59          1           0       -7.658875    6.861690   -1.913856
     60          1           0       -9.569823    4.913982   -6.228760
     61          1           0      -10.465054    3.833118   -5.158870
     62          1           0       -8.704235    3.528158   -5.649083
     63          1           0       -9.530897   -0.670082   -5.183660
     64          1           0      -11.413448   -2.309259   -3.390101
     65          1           0      -11.476995    0.351076   -5.991339
     66          1           0      -12.322817    0.362125   -4.409756
     67          1           0      -12.276790   -1.128538   -5.337280
     68          1           0       -8.762463   -3.553608   -3.961710
     69          1           0       -9.675956   -3.184573   -5.432843
     70          1           0       -9.949219   -5.376994   -3.450885
     71          1           0      -10.957053   -5.126329   -4.882542
     72          1           0      -11.402697   -4.582574   -3.260442
     73          1           0       -9.041888   -5.413198    0.216456
     74          1           0      -10.486489   -4.790872    1.028200
     75          1           0       -9.095813   -5.433661    1.965661
     76          1           0       -5.814087   -1.735393    4.042848
     77          1           0       -9.448202    1.667528    5.321848
     78          1           0       -8.111700    1.069029    6.435966
     79          1           0       -9.668649    0.273953    6.243300
     80         12           0        8.726898   -0.052467   -0.116476
     81          6           0        6.368793   -2.481927    0.291838
     82          6           0        6.865084    2.005608    2.077128
     83          6           0       10.892334    2.441252   -0.669180
     84          6           0       10.483444   -2.163683   -2.179505
     85          7           0        6.700865   -0.081457    0.796721
     86          6           0        5.966000   -1.268429    0.911308
     87          6           0        4.690440   -1.080965    1.780652
     88          6           0        4.919914    0.385421    2.233697
     89          6           0        6.226356    0.850378    1.616159
     90          6           0        3.800065    1.496765    2.052399
     91          6           0        4.504982   -2.079977    3.006267
     92          6           0        3.218195   -1.770880    3.817513
     93          1           0        2.115827   -2.812616    3.621512
     94          7           0        8.879445    1.976992    0.666600
     95          6           0        8.147377    2.496221    1.712643
     96          6           0        8.627964    3.861298    1.891533
     97          6           0        9.800034    3.977655    1.077003
     98          6           0        9.932110    2.772818    0.319914
     99          6           0        7.969443    4.781056    2.846002
    100          6           0       10.636956    5.299618    0.964919
    101          8           0       11.525543    5.484762    0.108727
    102          6           0       10.332518    6.461638    1.874048
    103          7           0       10.332965    0.117731   -1.218826
    104          6           0       11.125107    1.295392   -1.325627
    105          6           0       12.107045    1.184958   -2.469958
    106          6           0       12.247277   -0.334019   -2.548901
    107          6           0       10.975688   -0.867836   -1.904838
    108          6           0       11.572212    1.817997   -3.798290
    109          6           0       13.450589   -0.866656   -1.739195
    110          6           0       14.803069   -0.894524   -2.399124
    111          7           0        8.541248   -1.949696   -0.901701
    112          6           0        9.376952   -2.743211   -1.590926
    113          6           0        8.754056   -4.015653   -1.807109
    114          6           0        7.583087   -3.987731   -1.079870
    115          6           0        7.511085   -2.711100   -0.501100
    116          6           0        9.403911   -5.103739   -2.588578
    117          6           0        6.472541   -4.761510   -0.720007
    118          8           0        6.172750   -5.912782   -0.971155
    119          6           0        5.606635   -3.794500    0.216283
    120          6           0        4.246974   -3.682186   -0.376958
    121          8           0        3.946694   -3.148936   -1.417273
    122          8           0        3.312445   -4.129609    0.467049
    123          6           0        1.876974   -4.019870   -0.000542
    124          1           0        6.324551    2.516480    2.876502
    125          1           0       11.610279    3.242795   -0.854151
    126          1           0       11.042960   -2.931845   -2.716734
    127          1           0        3.818361   -1.136510    1.129041
    128          1           0        5.130248    0.405147    3.303448
    129          1           0        3.720195    2.236620    2.849295
    130          1           0        2.861948    1.029620    1.752181
    131          1           0        4.155788    2.092950    1.212193
    132          1           0        5.438596   -1.975431    3.557657
    133          1           0        4.462492   -3.095732    2.613368
    134          1           0        2.898316   -0.745754    3.630701
    135          1           0        3.495072   -1.835104    4.869394
    136          1           0        7.479454    5.566000    2.269599
    137          1           0        8.740491    5.066251    3.561736
    138          1           0        7.228534    4.251587    3.445189
    139          1           0       11.046760    7.266170    1.698840
    140          1           0       10.574218    6.083466    2.868309
    141          1           0        9.313444    6.847306    1.861333
    142          1           0       13.048145    1.681060   -2.231040
    143          1           0       12.313839   -0.710425   -3.569474
    144          1           0       10.809380    1.187938   -4.254034
    145          1           0       12.394116    1.987044   -4.494496
    146          1           0       11.159070    2.783845   -3.509610
    147          1           0       13.275689   -1.857450   -1.321791
    148          1           0       13.546398   -0.296409   -0.815108
    149          1           0       15.457161   -0.269017   -1.792337
    150          1           0       14.639705   -0.325054   -3.314196
    151          1           0       15.186252   -1.893700   -2.606929
    152          1           0        9.903490   -5.803782   -1.920034
    153          1           0       10.028457   -4.829922   -3.439467
    154          1           0        8.579185   -5.664156   -3.029215
    155          1           0        5.544104   -4.245449    1.206921
    156          1           0        1.728398   -2.991233   -0.329808
    157          1           0        1.151230   -4.199153    0.793146
    158          1           0        1.742025   -4.721937   -0.823630
 ---------------------------------------------------------------------

 SCF Done:  E(RPBE1PBE) =  -4067.39312809     A.U. after   16 cycles

 Excitation energies and oscillator strengths:

 Excited State   1:      Singlet-A      1.8103 eV  684.87 nm  f=0.3415  <S**2>=0.000
     309 -> 316       -0.15494
     312 -> 313        0.69885
     312 <- 313       -0.12490
 This state for optimization and/or second-order correction.
 Total Energy, E(TD-HF/TD-DFT) =  -4067.32659972
 Copying the excited state density for this state as the 1-particle RhoCI density.

 Excited State   2:      Singlet-A      1.8153 eV  682.98 nm  f=0.0000  <S**2>=0.000
     312 -> 314        0.70708

 Excited State   3:      Singlet-A      1.8830 eV  658.44 nm  f=0.0000  <S**2>=0.000
     311 -> 313        0.70709

 Excited State   4:      Singlet-A      1.8971 eV  653.53 nm  f=0.3566  <S**2>=0.000
     310 -> 315        0.18784
     311 -> 314        0.68665

 Excited State   5:      Singlet-A      2.2344 eV  554.90 nm  f=0.1094  <S**2>=0.000
     310 -> 314        0.64655
     311 -> 315       -0.26764

 The electronic state is 1-A.
 Alpha  occ. eigenvalues --  -46.93901 -46.90836 -19.26831 -19.25343 -19.20424
 Alpha  occ. eigenvalues --  -19.20011 -19.19393 -19.19189 -19.18837 -19.18759
 Alpha  occ. eigenvalues --  -14.42073 -14.41964 -14.41324 -14.41305 -14.40165
 Alpha  occ. eigenvalues --  -14.39339 -14.38535 -14.38391 -10.37165 -10.35326
 Alpha  occ. eigenvalues --  -10.33211 -10.32433 -10.32400 -10.31866 -10.30585
 Alpha  occ. eigenvalues --  -10.29687 -10.29405 -10.29317 -10.29286 -10.28968
 Alpha  occ. eigenvalues --  -10.28868 -10.28540 -10.28472 -10.28299 -10.28194
 Alpha  occ. eigenvalues --  -10.27780 -10.27777 -10.27613 -10.27310 -10.27271
 Alpha  occ. eigenvalues --  -10.27152 -10.27088 -10.26939 -10.26807 -10.26493
 Alpha  occ. eigenvalues --  -10.26462 -10.26426 -10.26371 -10.26332 -10.26315
 Alpha  occ. eigenvalues --  -10.26290 -10.26127 -10.26114 -10.25827 -10.25680
 Alpha  occ. eigenvalues --  -10.25561 -10.25553 -10.25547 -10.25543 -10.25516
 Alpha  occ. eigenvalues --  -10.25501 -10.25399 -10.25265 -10.25168 -10.25008
 Alpha  occ. eigenvalues --  -10.24891 -10.24830 -10.24739 -10.24489 -10.24230
 Alpha  occ. eigenvalues --  -10.24041 -10.24039 -10.23997 -10.23951 -10.23933
 Alpha  occ. eigenvalues --  -10.23842 -10.23699 -10.23615 -10.23518 -10.23455
 Alpha  occ. eigenvalues --  -10.23230 -10.23194 -10.23158 -10.23148 -10.22485
 Alpha  occ. eigenvalues --  -10.22476  -3.15847  -3.13191  -1.88648  -1.88240
 Alpha  occ. eigenvalues --   -1.88059  -1.86036  -1.85584  -1.85412  -1.11479
 Alpha  occ. eigenvalues --   -1.11366  -1.06220  -1.05657  -1.04984  -1.03050
 Alpha  occ. eigenvalues --   -1.02004  -1.01761  -0.99985  -0.99471  -0.98547
 Alpha  occ. eigenvalues --   -0.98450  -0.97793  -0.97673  -0.96737  -0.96660
 Alpha  occ. eigenvalues --   -0.87531  -0.87021  -0.83466  -0.83334  -0.83061
 Alpha  occ. eigenvalues --   -0.82836  -0.82709  -0.82125  -0.82075  -0.81810
 Alpha  occ. eigenvalues --   -0.81430  -0.80838  -0.80598  -0.79910  -0.79244
 Alpha  occ. eigenvalues --   -0.78554  -0.78205  -0.77763  -0.77008  -0.76726
 Alpha  occ. eigenvalues --   -0.76155  -0.75746  -0.75397  -0.75261  -0.74860
 Alpha  occ. eigenvalues --   -0.74843  -0.72680  -0.71947  -0.71786  -0.71719
 Alpha  occ. eigenvalues --   -0.71438  -0.71066  -0.70819  -0.70371  -0.69777
 Alpha  occ. eigenvalues --   -0.69527  -0.67570  -0.67419  -0.66585  -0.66191
 Alpha  occ. eigenvalues --   -0.64353  -0.63915  -0.63794  -0.63214  -0.62892
 Alpha  occ. eigenvalues --   -0.62612  -0.61652  -0.60496  -0.60425  -0.60157
 Alpha  occ. eigenvalues --   -0.59543  -0.59476  -0.59342  -0.59317  -0.59112
 Alpha  occ. eigenvalues --   -0.58621  -0.58423  -0.56504  -0.54749  -0.54669
 Alpha  occ. eigenvalues --   -0.54508  -0.53999  -0.53639  -0.53600  -0.53421
 Alpha  occ. eigenvalues --   -0.52933  -0.52828  -0.52429  -0.52307  -0.52033
 Alpha  occ. eigenvalues --   -0.51081  -0.50875  -0.50748  -0.50343  -0.50190
 Alpha  occ. eigenvalues --   -0.49791  -0.49601  -0.49126  -0.48962  -0.48729
 Alpha  occ. eigenvalues --   -0.48483  -0.47962  -0.47905  -0.47888  -0.47609
 Alpha  occ. eigenvalues --   -0.47394  -0.47341  -0.47193  -0.46747  -0.46725
 Alpha  occ. eigenvalues --   -0.46277  -0.46233  -0.46206  -0.46106  -0.45852
 Alpha  occ. eigenvalues --   -0.45823  -0.45458  -0.45255  -0.44935  -0.44826
 Alpha  occ. eigenvalues --   -0.44757  -0.44645  -0.44538  -0.44431  -0.44361
 Alpha  occ. eigenvalues --   -0.44216  -0.44180  -0.43718  -0.43705  -0.43503
 Alpha  occ. eigenvalues --   -0.43436  -0.43326  -0.43174  -0.42907  -0.42674
 Alpha  occ. eigenvalues --   -0.42375  -0.42287  -0.42089  -0.42089  -0.41983
 Alpha  occ. eigenvalues --   -0.41778  -0.41695  -0.41540  -0.41440  -0.41268
 Alpha  occ. eigenvalues --   -0.41187  -0.41035  -0.40936  -0.40779  -0.40574
 Alpha  occ. eigenvalues --   -0.40460  -0.40438  -0.40220  -0.40091  -0.40062
 Alpha  occ. eigenvalues --   -0.39870  -0.39756  -0.39347  -0.39141  -0.38917
 Alpha  occ. eigenvalues --   -0.38912  -0.38809  -0.38577  -0.38506  -0.38485
 Alpha  occ. eigenvalues --   -0.38268  -0.38256  -0.38151  -0.38071  -0.37896
 Alpha  occ. eigenvalues --   -0.37784  -0.37626  -0.37308  -0.37159  -0.36968
 Alpha  occ. eigenvalues --   -0.36818  -0.36705  -0.36655  -0.36474  -0.36237
 Alpha  occ. eigenvalues --   -0.36228  -0.35923  -0.35716  -0.35507  -0.35469
 Alpha  occ. eigenvalues --   -0.35253  -0.34938  -0.34861  -0.34655  -0.34255
 Alpha  occ. eigenvalues --   -0.34081  -0.33305  -0.33254  -0.32821  -0.32461
 Alpha  occ. eigenvalues --   -0.32406  -0.32371  -0.31903  -0.31868  -0.31612
 Alpha  occ. eigenvalues --   -0.31521  -0.31364  -0.29922  -0.29579  -0.29427
 Alpha  occ. eigenvalues --   -0.29037  -0.28819  -0.28359  -0.27041  -0.26991
 Alpha  occ. eigenvalues --   -0.26280  -0.26194  -0.26130  -0.25902  -0.25843
 Alpha  occ. eigenvalues --   -0.25563  -0.25364  -0.24753  -0.21397  -0.21093
 Alpha  occ. eigenvalues --   -0.19144  -0.18719
 Alpha virt. eigenvalues --   -0.11448  -0.11271  -0.05645  -0.05039  -0.04248
 Alpha virt. eigenvalues --   -0.03768  -0.02511  -0.02087  -0.02005  -0.00268
 Alpha virt. eigenvalues --    0.00286   0.01020   0.01123   0.01461   0.01642

 Mulliken charges:
               1
     1  Mg  11.999716
     2  C    6.000685
     3  C    6.000355
     4  C    5.998895
     5  C    5.999390
     6  N    7.000470
     7  C    5.998852
     8  C    6.000287
     9  C    5.999735
    10  C    6.000866
    11  C    5.999805
    12  C    6.000162
    13  C    5.999711
    14  H    1.000839
    15  N    6.999742
    16  C    6.001379
    17  C    6.001131
    18  C    6.000385
    19  C    6.001377
    20  C    5.999828
    21  C    6.000573
    22  O    8.001071
    23  C    5.999956
    24  N    6.999477
    25  C    6.001654
    26  C    5.999544
    27  C    6.000350
    28  C    5.998988
    29  C    5.999972
    30  C    6.000236
    31  C    6.000151
    32  N    7.000238
    33  C    5.998648
    34  C    5.998178
    35  C    5.999900
    36  C    5.998448
    37  C    6.000102
    38  C    5.998934
    39  O    7.998494
    40  C    6.000164
    41  C    5.999959
    42  O    7.999936
    43  O    7.999865
    44  C    6.000035
    45  H    1.001403
    46  H    1.000070
    47  H    0.999240
    48  H    1.000222
    49  H    1.001067
    50  H    0.999656
    51  H    1.001156
    52  H    1.000296
    53  H    0.999932
    54  H    1.001023
    55  H    0.999464
    56  H    0.999141
    57  H    1.001394
    58  H    1.000990
    59  H    1.000767
    60  H    1.000509
    61  H    1.000335
    62  H    1.000107
    63  H    0.999766
    64  H    0.999942
    65  H    0.999832
    66  H    1.000173
    67  H    1.000167
    68  H    0.999592
    69  H    0.999321
    70  H    0.999778
    71  H    0.999553
    72  H    1.000246
    73  H    0.998719
    74  H    0.999224
    75  H    0.999154
    76  H    0.999501
    77  H    0.999798
    78  H    1.000126
    79  H    0.999851
    80  Mg  11.998561
    81  C    5.975195
    82  C    5.995220
    83  C    6.029580
    84  C    6.013569
    85  N    6.988036
    86  C    6.039127
    87  C    5.985236
    88  C    6.006647
    89  C    5.975434
    90  C    6.004223
    91  C    5.997200
    92  C    6.002423
    93  H    0.996054
    94  N    7.005877
    95  C    5.964051
    96  C    5.976266
    97  C    5.992595
    98  C    5.955242
    99  C    6.004760
   100  C    5.987383
   101  O    7.974882
   102  C    6.005569
   103  N    7.017600
   104  C    5.961449
   105  C    6.007957
   106  C    5.994752
   107  C    6.020905
   108  C    6.001080
   109  C    5.992643
   110  C    5.999383
   111  N    6.996304
   112  C    6.022561
   113  C    6.035209
   114  C    5.998726
   115  C    6.031475
   116  C    5.995886
   117  C    6.015384
   118  O    8.026251
   119  C    6.002813
   120  C    6.001818
   121  O    8.003850
   122  O    8.001684
   123  C    5.999103
   124  H    0.983631
   125  H    0.995736
   126  H    1.013904
   127  H    1.001898
   128  H    0.998941
   129  H    0.999749
   130  H    0.985430
   131  H    1.001573
   132  H    1.005211
   133  H    0.992650
   134  H    1.006867
   135  H    1.002292
   136  H    0.981663
   137  H    0.982820
   138  H    0.984829
   139  H    0.986362
   140  H    0.994338
   141  H    0.994495
   142  H    1.001588
   143  H    1.001179
   144  H    0.987910
   145  H    0.994474
   146  H    1.007440
   147  H    0.995345
   148  H    1.015127
   149  H    1.007177
   150  H    1.004562
   151  H    0.999463
   152  H    1.021981
   153  H    1.017598
   154  H    1.015856
   155  H    1.007643
   156  H    1.004967
   157  H    1.005073
   158  H    1.000264
 Sum of Mulliken charges = 624.00000

 Dipole moment (field-independent basis, Debye):
    X=             -0.0044    Y=             -9.0913    Z=             -4.1037  Tot=              9.9746
 Quadrupole moment (field-independent basis, Debye-Ang):
   XX=             -0.0229   YY=              1.0337   ZZ=             -0.6160
   XY=            -87.7168   XZ=            -33.8485   YZ=             -0.3018

 Normal termination of Gaussian 16 at Fri Oct 15 00:08:55 2021.
