 Gaussian 16, Revision A.03,
 Gaussian 16:  ES64L-G16RevA.03 25-Dec-2016

 --------------------------------------------------------
 #p PBE1PBE/Def2SVP td=(nstates=5) density=(transition=1)
 --------------------------------------------------------

 --------------------------------
 TDDFT excited states in gaussian
 --------------------------------
 Symbolic Z-matrix:
 Charge =  0 Multiplicity = 1

                         Standard orientation:
 ---------------------------------------------------------------------
 Center     Atomic      Atomic             Coordinates (Angstroms)
 Number     Number       Type             X           Y           Z
 ---------------------------------------------------------------------
      1         12           0       26.459080    0.279393    0.188099
      2          6           0       23.688137   -1.800133   -0.380871
      3          6           0       27.727827   -0.748961   -2.791012
      4          6           0       28.742891    2.575298    0.645724
      5          6           0       24.456569    1.749660    2.794758
      6          7           0       25.801520   -1.148998   -1.328375
      7          6           0       24.641046   -1.868639   -1.375801
      8          6           0       24.495738   -2.452203   -2.789196
      9          6           0       25.949940   -2.556511   -3.235411
     10          6           0       26.500988   -1.341681   -2.464390
     11          6           0       26.624231   -3.873612   -2.786844
     12          6           0       23.650556   -1.504297   -3.718182
     13          6           0       22.216639   -2.017561   -4.231636
     14          1           0       20.956747   -1.224109   -3.845403
     15          7           0       27.988372    0.879040   -0.943485
     16          6           0       28.371946    0.316147   -2.139033
     17          6           0       29.618552    0.899040   -2.525877
     18          6           0       30.051909    1.806117   -1.503041
     19          6           0       28.923842    1.807535   -0.527058
     20          6           0       30.366886    0.528870   -3.852103
     21          6           0       31.432064    2.558231   -1.493786
     22          8           0       32.247053    2.321916   -2.331667
     23          6           0       31.795131    3.319966   -0.304983
     24          7           0       26.436739    2.132943    1.332193
     25          6           0       27.677286    2.624003    1.564335
     26          6           0       27.806197    3.313040    2.912496
     27          6           0       26.370128    3.371535    3.410396
     28          6           0       25.678059    2.347289    2.445304
     29          6           0       28.749734    2.542142    3.908148
     30          6           0       25.606129    4.777735    3.455805
     31          6           0       25.304297    5.479833    4.752542
     32          7           0       24.606239   -0.064592    1.180350
     33          6           0       23.925797    0.599507    2.209055
     34          6           0       22.622744    0.018280    2.449571
     35          6           0       22.510852   -0.940211    1.472558
     36          6           0       23.710368   -0.968944    0.687614
     37          6           0       21.659649    0.468488    3.467744
     38          6           0       21.622895   -1.956268    0.928631
     39          8           0       20.523781   -2.345811    1.342084
     40          6           0       22.379420   -2.617938   -0.203921
     41          6           0       22.562488   -4.084643    0.170655
     42          8           0       23.147732   -4.403428    1.203151
     43          8           0       21.882815   -4.933628   -0.716595
     44          6           0       21.985011   -6.333565   -0.401875
     45          1           0       28.178571   -1.214746   -3.669476
     46          1           0       29.666165    3.083854    0.927526
     47          1           0       23.904421    2.128477    3.657600
     48          1           0       23.901499   -3.361174   -2.692353
     49          1           0       25.977838   -2.455383   -4.319635
     50          1           0       27.046195   -4.173409   -3.745463
     51          1           0       25.800487   -4.503463   -2.449765
     52          1           0       27.379558   -3.798987   -2.004439
     53          1           0       24.232650   -1.340209   -4.624931
     54          1           0       23.584147   -0.534287   -3.226102
     55          1           0       22.075845   -2.989897   -3.758969
     56          1           0       22.155879   -2.198433   -5.304142
     57          1           0       30.705114    1.342577   -4.492906
     58          1           0       29.666236   -0.082910   -4.421292
     59          1           0       31.250233   -0.086037   -3.678868
     60          1           0       31.094279    4.114529   -0.047980
     61          1           0       32.780430    3.757366   -0.465904
     62          1           0       32.028773    2.644024    0.516439
     63          1           0       28.267892    4.298127    2.837273
     64          1           0       26.296525    2.928135    4.403426
     65          1           0       29.758693    2.951977    3.951114
     66          1           0       28.699493    1.472787    3.703129
     67          1           0       28.328772    2.668419    4.906651
     68          1           0       24.735425    4.908882    2.814232
     69          1           0       26.401941    5.338848    2.965249
     70          1           0       25.850416    6.414184    4.878415
     71          1           0       25.576009    4.834546    5.588283
     72          1           0       24.228104    5.648575    4.722385
     73          1           0       21.867199    1.517828    3.679042
     74          1           0       21.895641   -0.105152    4.364489
     75          1           0       20.634247    0.257336    3.167787
     76          1           0       21.679427   -2.532004   -1.033918
     77          1           0       22.938374   -6.790511   -0.668549
     78          1           0       21.210931   -6.914205   -0.902841
     79          1           0       21.834412   -6.569728    0.651174
     80         12           0      -26.360129    0.619770    0.017329
     81          6           0      -23.457037   -1.302021    0.528938
     82          6           0      -28.212628   -2.217705    0.796801
     83          6           0      -29.058145    2.378475   -0.792139
     84          6           0      -24.347253    3.132666   -1.571435
     85          7           0      -25.895558   -1.490645    0.564286
     86          6           0      -24.614277   -1.993464    0.830683
     87          6           0      -24.738911   -3.257832    1.660514
     88          6           0      -26.223457   -3.695293    1.507349
     89          6           0      -26.822333   -2.380859    0.922154
     90          6           0      -26.482013   -4.999396    0.689301
     91          6           0      -24.258716   -3.115446    3.146425
     92          6           0      -23.653391   -4.451013    3.766560
     93          1           0      -23.654644   -5.708957    2.893872
     94          7           0      -28.295168    0.193634    0.126126
     95          6           0      -28.870555   -0.995003    0.541123
     96          6           0      -30.298226   -0.872395    0.607819
     97          6           0      -30.589052    0.405771    0.032231
     98          6           0      -29.304638    1.044605   -0.192668
     99          6           0      -31.245463   -2.028693    1.051574
    100          6           0      -31.918437    1.008278   -0.285684
    101          8           0      -32.015357    2.076892   -0.935029
    102          6           0      -33.343889    0.454867    0.008189
    103          7           0      -26.702679    2.355057   -1.268537
    104          6           0      -27.913320    2.939326   -1.345106
    105          6           0      -27.788538    4.371910   -1.921991
    106          6           0      -26.299332    4.612535   -2.194261
    107          6           0      -25.722873    3.261614   -1.579602
    108          6           0      -28.754282    4.608893   -3.042767
    109          6           0      -25.669480    5.885717   -1.589587
    110          6           0      -25.756769    5.999470   -0.047633
    111          7           0      -24.309284    0.899066   -0.518917
    112          6           0      -23.674671    1.998485   -0.988305
    113          6           0      -22.242263    1.760280   -0.817521
    114          6           0      -22.053786    0.491850   -0.200666
    115          6           0      -23.362038   -0.035741   -0.076035
    116          6           0      -21.131236    2.764380   -1.112988
    117          6           0      -21.092603   -0.441564    0.293606
    118          8           0      -19.877825   -0.401681    0.469927
    119          6           0      -22.010246   -1.750204    0.759248
    120          6           0      -21.488749   -2.995711    0.067588
    121          8           0      -21.758325   -3.290172   -1.080379
    122          8           0      -20.768148   -3.776750    0.942336
    123          6           0      -19.874530   -4.797895    0.405435
    124          1           0      -28.687368   -3.123493    1.179234
    125          1           0      -29.978203    2.945450   -0.946803
    126          1           0      -23.797136    3.997361   -1.947645
    127          1           0      -24.103574   -4.033069    1.232445
    128          1           0      -26.617276   -3.834767    2.513691
    129          1           0      -27.169250   -4.655954   -0.083180
    130          1           0      -27.035736   -5.724796    1.286574
    131          1           0      -25.649718   -5.505177    0.199898
    132          1           0      -25.090065   -2.889666    3.813525
    133          1           0      -23.555213   -2.285941    3.205217
    134          1           0      -24.301729   -4.746895    4.591456
    135          1           0      -22.639643   -4.223009    4.094945
    136          1           0      -32.129855   -1.990294    0.414417
    137          1           0      -31.590888   -1.916576    2.078743
    138          1           0      -30.910560   -3.065847    1.056755
    139          1           0      -33.464522    0.249317    1.072189
    140          1           0      -33.584368   -0.420727   -0.594748
    141          1           0      -34.132013    1.206236   -0.023500
    142          1           0      -28.215635    5.026252   -1.163126
    143          1           0      -26.189329    4.467402   -3.269520
    144          1           0      -29.624948    5.188688   -2.735802
    145          1           0      -29.048331    3.657676   -3.486706
    146          1           0      -28.327775    5.137514   -3.895992
    147          1           0      -26.270198    6.686533   -2.021269
    148          1           0      -24.634106    5.984823   -1.916938
    149          1           0      -24.722823    6.053473    0.292561
    150          1           0      -26.257238    5.097799    0.305492
    151          1           0      -26.383866    6.817121    0.308089
    152          1           0      -20.370225    2.788925   -0.333530
    153          1           0      -21.505238    3.787753   -1.102600
    154          1           0      -20.750921    2.561785   -2.114572
    155          1           0      -21.798667   -1.856959    1.823480
    156          1           0      -20.395922   -5.252416   -0.437391
    157          1           0      -19.620731   -5.596691    1.102380
    158          1           0      -18.950147   -4.274496    0.161036
 ---------------------------------------------------------------------

 SCF Done:  E(RPBE1PBE) =  -4067.38817083     A.U. after   16 cycles

 Excitation energies and oscillator strengths:

 Excited State   1:      Singlet-A      1.8182 eV  681.90 nm  f=0.3899  <S**2>=0.000
     310 -> 316       -0.16257
     311 -> 313        0.69667
     311 <- 313       -0.11885
 This state for optimization and/or second-order correction.
 Total Energy, E(TD-HF/TD-DFT) =  -4067.32135250
 Copying the excited state density for this state as the 1-particle RhoCI density.

 Excited State   2:      Singlet-A      1.8446 eV  672.14 nm  f=0.0000  <S**2>=0.000
     312 -> 313        0.70711

 Excited State   3:      Singlet-A      1.8786 eV  659.99 nm  f=0.3501  <S**2>=0.000
     309 -> 315        0.18361
     312 -> 314        0.69000
     312 <- 314       -0.10094

 Excited State   4:      Singlet-A      2.1389 eV  579.67 nm  f=0.0000  <S**2>=0.000
     311 -> 314        0.70711

 Excited State   5:      Singlet-A      2.1901 eV  566.10 nm  f=0.1403  <S**2>=0.000
     310 -> 313        0.66499
     311 -> 316        0.22019

 The electronic state is 1-A.
 Alpha  occ. eigenvalues --  -46.92312 -46.92063 -19.26647 -19.24907 -19.20757
 Alpha  occ. eigenvalues --  -19.19672 -19.19444 -19.19298 -19.18905 -19.18513
 Alpha  occ. eigenvalues --  -14.41916 -14.41626 -14.41577 -14.41068 -14.39872
 Alpha  occ. eigenvalues --  -14.39124 -14.39061 -14.38982 -10.37244 -10.36097
 Alpha  occ. eigenvalues --  -10.32798 -10.32540 -10.32203 -10.31630 -10.29080
 Alpha  occ. eigenvalues --  -10.28863 -10.28851 -10.28696 -10.28621 -10.28607
 Alpha  occ. eigenvalues --  -10.28526 -10.28515 -10.28384 -10.28376 -10.28322
 Alpha  occ. eigenvalues --  -10.28209 -10.28000 -10.27718 -10.27423 -10.27273
 Alpha  occ. eigenvalues --  -10.26967 -10.26914 -10.26794 -10.26794 -10.26213
 Alpha  occ. eigenvalues --  -10.25975 -10.25965 -10.25924 -10.25920 -10.25901
 Alpha  occ. eigenvalues --  -10.25885 -10.25868 -10.25699 -10.25671 -10.25582
 Alpha  occ. eigenvalues --  -10.25552 -10.25364 -10.25330 -10.25321 -10.25269
 Alpha  occ. eigenvalues --  -10.25117 -10.25088 -10.24950 -10.24867 -10.24734
 Alpha  occ. eigenvalues --  -10.24679 -10.24537 -10.24505 -10.24493 -10.24400
 Alpha  occ. eigenvalues --  -10.24395 -10.24365 -10.24067 -10.23847 -10.23723
 Alpha  occ. eigenvalues --  -10.23667 -10.23595 -10.23500 -10.23337 -10.23143
 Alpha  occ. eigenvalues --  -10.23137 -10.23106 -10.23061 -10.22989 -10.22759
 Alpha  occ. eigenvalues --  -10.22373  -3.14461  -3.14252  -1.87270  -1.87066
 Alpha  occ. eigenvalues --   -1.86835  -1.86698  -1.86641  -1.86475  -1.10688
 Alpha  occ. eigenvalues --   -1.10197  -1.06691  -1.04263  -1.03765  -1.03027
 Alpha  occ. eigenvalues --   -1.02979  -1.02261  -0.99362  -0.98875  -0.98875
 Alpha  occ. eigenvalues --   -0.98053  -0.97874  -0.97475  -0.96868  -0.96766
 Alpha  occ. eigenvalues --   -0.87358  -0.86577  -0.83511  -0.83434  -0.83250
 Alpha  occ. eigenvalues --   -0.82845  -0.82775  -0.82398  -0.81903  -0.81712
 Alpha  occ. eigenvalues --   -0.81436  -0.80987  -0.79720  -0.79311  -0.78837
 Alpha  occ. eigenvalues --   -0.78502  -0.78050  -0.77655  -0.76801  -0.76744
 Alpha  occ. eigenvalues --   -0.76443  -0.75361  -0.75328  -0.75167  -0.74961
 Alpha  occ. eigenvalues --   -0.74118  -0.72853  -0.72328  -0.71512  -0.71274
 Alpha  occ. eigenvalues --   -0.71047  -0.70692  -0.70568  -0.70139  -0.69436
 Alpha  occ. eigenvalues --   -0.69329  -0.67296  -0.67023  -0.66581  -0.65493
 Alpha  occ. eigenvalues --   -0.64243  -0.63530  -0.63393  -0.63012  -0.62834
 Alpha  occ. eigenvalues --   -0.62477  -0.61901  -0.61214  -0.60245  -0.60068
 Alpha  occ. eigenvalues --   -0.59750  -0.59391  -0.59288  -0.59012  -0.58738
 Alpha  occ. eigenvalues --   -0.58606  -0.57259  -0.56228  -0.55396  -0.54740
 Alpha  occ. eigenvalues --   -0.54597  -0.54053  -0.53721  -0.53466  -0.53367
 Alpha  occ. eigenvalues --   -0.52943  -0.52737  -0.52270  -0.52024  -0.51448
 Alpha  occ. eigenvalues --   -0.50833  -0.50659  -0.50479  -0.50280  -0.49783
 Alpha  occ. eigenvalues --   -0.49375  -0.49357  -0.49317  -0.48562  -0.48476
 Alpha  occ. eigenvalues --   -0.48123  -0.48001  -0.47692  -0.47675  -0.47594
 Alpha  occ. eigenvalues --   -0.47425  -0.47299  -0.47153  -0.47140  -0.46731
 Alpha  occ. eigenvalues --   -0.46691  -0.46495  -0.46299  -0.45902  -0.45641
 Alpha  occ. eigenvalues --   -0.45594  -0.45476  -0.45318  -0.45108  -0.44732
 Alpha  occ. eigenvalues --   -0.44456  -0.44444  -0.44136  -0.44133  -0.43884
 Alpha  occ. eigenvalues --   -0.43859  -0.43837  -0.43703  -0.43654  -0.43426
 Alpha  occ. eigenvalues --   -0.43285  -0.43197  -0.42989  -0.42819  -0.42727
 Alpha  occ. eigenvalues --   -0.42465  -0.42325  -0.42224  -0.42077  -0.41827
 Alpha  occ. eigenvalues --   -0.41401  -0.41286  -0.41062  -0.41011  -0.40986
 Alpha  occ. eigenvalues --   -0.40952  -0.40839  -0.40695  -0.40577  -0.40167
 Alpha  occ. eigenvalues --   -0.40113  -0.39990  -0.39954  -0.39424  -0.39269
 Alpha  occ. eigenvalues --   -0.39201  -0.39055  -0.38982  -0.38980  -0.38851
 Alpha  occ. eigenvalues --   -0.38794  -0.38625  -0.38365  -0.38200  -0.38122
 Alpha  occ. eigenvalues --   -0.37977  -0.37882  -0.37663  -0.37452  -0.37376
 Alpha  occ. eigenvalues --   -0.37273  -0.37221  -0.37012  -0.36816  -0.36790
 Alpha  occ. eigenvalues --   -0.36738  -0.36538  -0.36490  -0.36433  -0.36286
 Alpha  occ. eigenvalues --   -0.35995  -0.35789  -0.35577  -0.35562  -0.35418
 Alpha  occ. eigenvalues --   -0.35264  -0.34999  -0.34918  -0.34587  -0.34116
 Alpha  occ. eigenvalues --   -0.33879  -0.33647  -0.32966  -0.32800  -0.32623
 Alpha  occ. eigenvalues --   -0.32453  -0.32048  -0.31903  -0.31699  -0.31580
 Alpha  occ. eigenvalues --   -0.31358  -0.30863  -0.29896  -0.29688  -0.29195
 Alpha  occ. eigenvalues --   -0.28995  -0.28899  -0.28413  -0.27062  -0.26942
 Alpha  occ. eigenvalues --   -0.26281  -0.26102  -0.25835  -0.25804  -0.25563
 Alpha  occ. eigenvalues --   -0.25253  -0.25248  -0.24951  -0.21269  -0.21053
 Alpha  occ. eigenvalues --   -0.18980  -0.18655
 Alpha virt. eigenvalues --   -0.11624  -0.10864  -0.05628  -0.05015  -0.04268
 Alpha virt. eigenvalues --   -0.03688  -0.02309  -0.01863  -0.01265  -0.00858
 Alpha virt. eigenvalues --   -0.00336   0.00605   0.00771   0.01077   0.01789

 Mulliken charges:
               1
     1  Mg  12.000005
     2  C    6.000117
     3  C    5.999893
     4  C    5.999894
     5  C    6.000103
     6  N    7.000004
     7  C    5.999823
     8  C    6.000003
     9  C    5.999967
    10  C    6.000172
    11  C    5.999990
    12  C    6.000009
    13  C    6.000022
    14  H    0.999948
    15  N    7.000000
    16  C    6.000226
    17  C    6.000108
    18  C    6.000084
    19  C    6.000220
    20  C    5.999961
    21  C    6.000102
    22  O    8.000136
    23  C    5.999932
    24  N    7.000052
    25  C    6.000169
    26  C    5.999934
    27  C    6.000040
    28  C    5.999790
    29  C    5.999972
    30  C    6.000046
    31  C    6.000002
    32  N    6.999976
    33  C    5.999790
    34  C    5.999794
    35  C    5.999993
    36  C    5.999818
    37  C    6.000083
    38  C    5.999815
    39  O    7.999761
    40  C    6.000059
    41  C    5.999967
    42  O    7.999999
    43  O    7.999973
    44  C    6.000017
    45  H    1.000087
    46  H    1.000078
    47  H    0.999935
    48  H    1.000018
    49  H    1.000015
    50  H    1.000024
    51  H    1.000083
    52  H    1.000013
    53  H    0.999937
    54  H    0.999995
    55  H    1.000013
    56  H    0.999971
    57  H    1.000123
    58  H    1.000088
    59  H    1.000144
    60  H    1.000055
    61  H    1.000116
    62  H    1.000075
    63  H    1.000020
    64  H    1.000010
    65  H    1.000019
    66  H    1.000024
    67  H    1.000074
    68  H    0.999974
    69  H    0.999936
    70  H    0.999986
    71  H    1.000005
    72  H    0.999970
    73  H    0.999885
    74  H    0.999883
    75  H    0.999855
    76  H    0.999903
    77  H    0.999989
    78  H    0.999941
    79  H    0.999990
    80  Mg  12.000901
    81  C    5.979877
    82  C    5.997884
    83  C    6.018382
    84  C    5.996613
    85  N    6.988090
    86  C    6.032987
    87  C    5.991364
    88  C    6.011024
    89  C    5.977164
    90  C    5.998305
    91  C    5.997338
    92  C    5.999449
    93  H    1.004858
    94  N    7.003533
    95  C    5.968206
    96  C    5.975109
    97  C    5.987981
    98  C    5.972538
    99  C    6.001957
   100  C    5.991789
   101  O    7.967994
   102  C    6.003529
   103  N    7.008460
   104  C    5.969451
   105  C    6.004076
   106  C    5.992730
   107  C    6.020535
   108  C    6.002093
   109  C    5.995883
   110  C    5.995442
   111  N    6.998466
   112  C    6.029765
   113  C    6.038734
   114  C    5.997181
   115  C    6.035180
   116  C    5.998199
   117  C    6.012858
   118  O    8.023979
   119  C    6.004979
   120  C    6.003059
   121  O    8.005576
   122  O    8.001759
   123  C    5.998438
   124  H    0.986589
   125  H    0.996193
   126  H    1.009934
   127  H    0.998758
   128  H    0.997364
   129  H    1.004466
   130  H    0.997391
   131  H    0.987696
   132  H    1.011087
   133  H    0.992711
   134  H    1.004904
   135  H    0.996931
   136  H    0.985750
   137  H    0.980876
   138  H    0.982503
   139  H    0.992227
   140  H    0.991576
   141  H    0.986896
   142  H    1.001143
   143  H    1.003856
   144  H    1.002407
   145  H    1.003801
   146  H    0.991491
   147  H    1.008780
   148  H    0.995793
   149  H    0.995191
   150  H    1.006511
   151  H    1.007527
   152  H    1.017507
   153  H    1.019070
   154  H    1.021118
   155  H    1.008186
   156  H    1.004480
   157  H    1.005496
   158  H    1.000071
 Sum of Mulliken charges = 624.00000

 Dipole moment (field-independent basis, Debye):
    X=             10.3508    Y=              2.1784    Z=             -1.0950  Tot=             10.6341
 Quadrupole moment (field-independent basis, Debye-Ang):
   XX=           -538.6214   YY=              3.7677   ZZ=              0.9889
   XY=            -53.3527   XZ=             26.1906   YZ=             -1.3474

 Normal termination of Gaussian 16 at Fri Oct 15 15:46:19 2021.
