 Gaussian 16, Revision A.03,
 Gaussian 16:  ES64L-G16RevA.03 25-Dec-2016

 --------------------------------------------------------
 #p PBE1PBE/Def2SVP td=(nstates=5) density=(transition=1)
 --------------------------------------------------------

 --------------------------------
 TDDFT excited states in gaussian
 --------------------------------
 Symbolic Z-matrix:
 Charge =  0 Multiplicity = 1

                         Standard orientation:
 ---------------------------------------------------------------------
 Center     Atomic      Atomic             Coordinates (Angstroms)
 Number     Number       Type             X           Y           Z
 ---------------------------------------------------------------------
      1         12           0        9.163292   -0.355147    0.073664
      2          6           0        7.231073    2.294749   -1.360489
      3          6           0       11.635389    1.935810    0.605938
      4          6           0       11.054309   -2.754575    0.924203
      5          6           0        7.052684   -2.586674   -1.572934
      6          7           0        9.296852    1.810857   -0.363639
      7          6           0        8.464091    2.719908   -0.860938
      8          6           0        8.994181    4.179308   -0.732374
      9          6           0       10.556264    3.872802   -0.643222
     10          6           0       10.495892    2.469470   -0.066214
     11          6           0       11.244498    3.815508   -2.003205
     12          6           0        8.474670    4.888571    0.563306
     13          6           0        8.674857    6.406384    0.602327
     14          1           0        7.659470    7.230480    1.240452
     15          7           0       10.847305   -0.355086    1.106597
     16          6           0       11.723562    0.671071    1.226848
     17          6           0       12.813286    0.176798    2.095683
     18          6           0       12.594639   -1.279876    2.315662
     19          6           0       11.490488   -1.530143    1.424822
     20          6           0       13.881578    1.062287    2.659962
     21          6           0       13.279882   -2.288739    3.182131
     22          8           0       13.082730   -3.544991    3.049713
     23          6           0       14.267754   -1.766259    4.143467
     24          7           0        9.212022   -2.376928   -0.443698
     25          6           0       10.097667   -3.210488    0.112893
     26          6           0        9.765217   -4.641610   -0.189278
     27          6           0        8.321186   -4.625625   -0.870655
     28          6           0        8.099271   -3.093687   -0.917447
     29          6           0       10.752860   -5.379414   -1.103727
     30          6           0        7.227301   -5.509857   -0.221064
     31          6           0        6.871720   -4.965957    1.144525
     32          7           0        7.338696   -0.214689   -1.093456
     33          6           0        6.643824   -1.269852   -1.702108
     34          6           0        5.535701   -0.671763   -2.469194
     35          6           0        5.673742    0.699857   -2.265605
     36          6           0        6.812446    0.944802   -1.446065
     37          6           0        4.603549   -1.380701   -3.277238
     38          6           0        5.138652    2.017020   -2.569934
     39          8           0        4.129699    2.432171   -3.141910
     40          6           0        6.196378    3.109196   -2.096442
     41          6           0        5.448602    4.160664   -1.322779
     42          8           0        4.921637    3.892587   -0.223775
     43          8           0        5.672014    5.362605   -1.875922
     44          6           0        4.982220    6.454567   -1.138387
     45          1           0       12.563898    2.510098    0.608018
     46          1           0       11.614721   -3.619788    1.284460
     47          1           0        6.303107   -3.226030   -2.042838
     48          1           0        8.788129    4.815217   -1.593528
     49          1           0       11.064109    4.545184    0.047950
     50          1           0       10.522151    3.867005   -2.817750
     51          1           0       11.772448    2.861884   -2.022291
     52          1           0       12.012946    4.585043   -2.081179
     53          1           0        9.099439    4.597268    1.407620
     54          1           0        7.422080    4.659271    0.733013
     55          1           0        8.923200    6.801123   -0.383277
     56          1           0        9.555043    6.619306    1.209070
     57          1           0       13.876757    2.045010    2.190091
     58          1           0       14.839235    0.628574    2.372742
     59          1           0       13.822301    1.135955    3.745960
     60          1           0       15.048804   -1.231850    3.602250
     61          1           0       14.589958   -2.620561    4.737775
     62          1           0       13.781347   -1.030959    4.785097
     63          1           0        9.722922   -5.234390    0.723546
     64          1           0        8.354265   -4.962121   -1.907164
     65          1           0       11.167700   -6.284855   -0.660118
     66          1           0       11.542979   -4.681462   -1.379166
     67          1           0       10.354716   -5.652533   -2.080612
     68          1           0        7.596604   -6.524507   -0.075986
     69          1           0        6.314726   -5.570702   -0.814154
     70          1           0        7.640504   -5.395946    1.785550
     71          1           0        5.879486   -5.306059    1.442875
     72          1           0        6.984011   -3.882261    1.183003
     73          1           0        3.625308   -0.950159   -3.063585
     74          1           0        4.622524   -2.448362   -3.059651
     75          1           0        4.983182   -1.150597   -4.272621
     76          1           0        6.654892    3.513240   -2.998460
     77          1           0        4.356744    6.982770   -1.858120
     78          1           0        5.760014    7.024441   -0.629777
     79          1           0        4.236210    6.144949   -0.405622
     80         12           0       -8.563060   -0.955827    0.245092
     81          6           0      -10.866386    1.514751    0.714754
     82          6           0       -6.014932    1.416111    0.873483
     83          6           0       -6.263540   -3.293093   -0.435076
     84          6           0      -11.123433   -3.184012   -0.282601
     85          7           0       -8.421972    1.255017    0.423531
     86          6           0       -9.546305    2.040030    0.709348
     87          6           0       -9.163265    3.516933    1.009338
     88          6           0       -7.618111    3.379323    0.967398
     89          6           0       -7.301502    1.924662    0.670667
     90          6           0       -6.722543    4.331721    0.065781
     91          6           0       -9.687772    4.128892    2.382271
     92          6           0       -9.211837    5.592425    2.584857
     93          1           0      -10.334383    6.619464    2.430178
     94          7           0       -6.382654   -0.940164    0.272812
     95          6           0       -5.588615    0.064088    0.783408
     96          6           0       -4.214725   -0.394346    0.614100
     97          6           0       -4.302110   -1.769303    0.223458
     98          6           0       -5.681353   -2.082759    0.019262
     99          6           0       -3.072271    0.493176    0.926706
    100          6           0       -3.043197   -2.656117   -0.075346
    101          8           0       -3.101256   -3.779162   -0.616021
    102          6           0       -1.664004   -2.129003    0.223761
    103          7           0       -8.667975   -2.835977   -0.281805
    104          6           0       -7.545495   -3.672295   -0.539474
    105          6           0       -7.972877   -4.962671   -1.201412
    106          6           0       -9.411031   -5.052990   -0.694713
    107          6           0       -9.780358   -3.619766   -0.339490
    108          6           0       -7.878667   -4.909470   -2.763316
    109          6           0       -9.541923   -5.909192    0.584768
    110          6           0       -9.697677   -7.399033    0.437801
    111          7           0      -10.622909   -0.946737    0.158731
    112          6           0      -11.542688   -1.922750    0.091627
    113          6           0      -12.853158   -1.345682    0.150809
    114          6           0      -12.660883   -0.006107    0.414237
    115          6           0      -11.271735    0.190270    0.454862
    116          6           0      -14.093926   -2.162181    0.047078
    117          6           0      -13.341215    1.194501    0.653479
    118          8           0      -14.526901    1.449192    0.741000
    119          6           0      -12.175928    2.270382    0.868253
    120          6           0      -12.374828    3.362503   -0.122171
    121          8           0      -12.257360    3.290265   -1.321239
    122          8           0      -12.569697    4.536812    0.485201
    123          6           0      -12.733092    5.740980   -0.417320
    124          1           0       -5.300031    2.160576    1.229648
    125          1           0       -5.525353   -4.067435   -0.653259
    126          1           0      -11.987054   -3.851152   -0.311380
    127          1           0       -9.503900    4.136395    0.179616
    128          1           0       -7.214615    3.521477    1.970383
    129          1           0       -5.760755    4.629205    0.484440
    130          1           0       -7.331601    5.144389   -0.330496
    131          1           0       -6.429301    3.699806   -0.772440
    132          1           0       -9.331456    3.416959    3.125766
    133          1           0      -10.776947    4.088697    2.378198
    134          1           0       -8.340627    5.789775    1.960236
    135          1           0       -8.888214    5.669623    3.622425
    136          1           0       -2.572795    0.737634   -0.010967
    137          1           0       -2.501978   -0.020388    1.700749
    138          1           0       -3.414428    1.409599    1.407755
    139          1           0       -0.919914   -2.896850    0.011979
    140          1           0       -1.656569   -2.022956    1.309434
    141          1           0       -1.381738   -1.185752   -0.243163
    142          1           0       -7.357697   -5.799056   -0.868420
    143          1           0      -10.111074   -5.425596   -1.442233
    144          1           0       -8.681139   -4.305179   -3.184575
    145          1           0       -7.901341   -5.917524   -3.178189
    146          1           0       -6.905356   -4.469152   -2.977027
    147          1           0      -10.337316   -5.566051    1.245142
    148          1           0       -8.682069   -5.729749    1.230328
    149          1           0       -8.855170   -7.851903    0.959698
    150          1           0       -9.493075   -7.562415   -0.620398
    151          1           0      -10.676395   -7.783648    0.725113
    152          1           0      -14.481429   -2.390029    1.039306
    153          1           0      -14.086407   -3.037580   -0.603050
    154          1           0      -14.830528   -1.497582   -0.404727
    155          1           0      -12.259969    2.666448    1.880527
    156          1           0      -11.895370    5.730490   -1.114956
    157          1           0      -12.679305    6.689654    0.117387
    158          1           0      -13.684210    5.636749   -0.939904
 ---------------------------------------------------------------------

 SCF Done:  E(RPBE1PBE) =  -4067.40446152     A.U. after   16 cycles

 Excitation energies and oscillator strengths:

 Excited State   1:      Singlet-A      1.7686 eV  701.04 nm  f=0.0000  <S**2>=0.000
     312 -> 313        0.70704
 This state for optimization and/or second-order correction.
 Total Energy, E(TD-HF/TD-DFT) =  -4067.33946775
 Copying the excited state density for this state as the 1-particle RhoCI density.

 Excited State   2:      Singlet-A      1.8070 eV  686.15 nm  f=0.5934  <S**2>=0.000
     309 -> 316       -0.14702
     311 -> 313        0.20875
     312 -> 314        0.66735
     312 <- 314       -0.11877

 Excited State   3:      Singlet-A      1.8438 eV  672.44 nm  f=0.1966  <S**2>=0.000
     310 -> 315       -0.15537
     311 -> 313        0.66113
     312 -> 314       -0.20973
     311 <- 313       -0.10642

 Excited State   4:      Singlet-A      1.8464 eV  671.50 nm  f=0.0000  <S**2>=0.000
     311 -> 314        0.70704

 Excited State   5:      Singlet-A      2.1930 eV  565.36 nm  f=0.0853  <S**2>=0.000
     310 -> 313        0.65163
     311 -> 315        0.24169

 The electronic state is 1-A.
 Alpha  occ. eigenvalues --  -46.91271 -46.90687 -19.27089 -19.25326 -19.19474
 Alpha  occ. eigenvalues --  -19.19285 -19.19079 -19.18709 -19.18620 -19.18532
 Alpha  occ. eigenvalues --  -14.42028 -14.41932 -14.41156 -14.41032 -14.39130
 Alpha  occ. eigenvalues --  -14.38367 -14.38341 -14.38252 -10.36269 -10.35275
 Alpha  occ. eigenvalues --  -10.32561 -10.32208 -10.31761 -10.31689 -10.29541
 Alpha  occ. eigenvalues --  -10.29321 -10.29231 -10.29089 -10.28816 -10.28724
 Alpha  occ. eigenvalues --  -10.28301 -10.28214 -10.28155 -10.28067 -10.27643
 Alpha  occ. eigenvalues --  -10.27615 -10.27337 -10.27116 -10.27113 -10.26923
 Alpha  occ. eigenvalues --  -10.26794 -10.26666 -10.26349 -10.26309 -10.26181
 Alpha  occ. eigenvalues --  -10.26152 -10.26140 -10.25989 -10.25984 -10.25536
 Alpha  occ. eigenvalues --  -10.25429 -10.25415 -10.25415 -10.25393 -10.25372
 Alpha  occ. eigenvalues --  -10.25357 -10.25350 -10.25300 -10.25300 -10.25042
 Alpha  occ. eigenvalues --  -10.24924 -10.24895 -10.24849 -10.24768 -10.24765
 Alpha  occ. eigenvalues --  -10.24398 -10.24290 -10.23885 -10.23815 -10.23809
 Alpha  occ. eigenvalues --  -10.23802 -10.23766 -10.23680 -10.23678 -10.23342
 Alpha  occ. eigenvalues --  -10.23329 -10.23105 -10.23044 -10.23038 -10.22949
 Alpha  occ. eigenvalues --  -10.22851 -10.22684 -10.22476 -10.22385 -10.22349
 Alpha  occ. eigenvalues --  -10.22125  -3.13589  -3.13042  -1.86412  -1.85977
 Alpha  occ. eigenvalues --   -1.85887  -1.85823  -1.85435  -1.85263  -1.11587
 Alpha  occ. eigenvalues --   -1.11448  -1.04881  -1.03489  -1.02833  -1.01906
 Alpha  occ. eigenvalues --   -1.01722  -1.01618  -0.99842  -0.99256  -0.98444
 Alpha  occ. eigenvalues --   -0.98306  -0.97979  -0.97525  -0.97168  -0.96498
 Alpha  occ. eigenvalues --   -0.87410  -0.86425  -0.83895  -0.83545  -0.83204
 Alpha  occ. eigenvalues --   -0.82912  -0.82724  -0.82647  -0.82279  -0.82056
 Alpha  occ. eigenvalues --   -0.81986  -0.81512  -0.81266  -0.80626  -0.79324
 Alpha  occ. eigenvalues --   -0.78441  -0.78283  -0.78072  -0.77225  -0.76959
 Alpha  occ. eigenvalues --   -0.76608  -0.76009  -0.75572  -0.75308  -0.75037
 Alpha  occ. eigenvalues --   -0.74647  -0.73179  -0.72506  -0.71671  -0.71619
 Alpha  occ. eigenvalues --   -0.71328  -0.71282  -0.70339  -0.70280  -0.69365
 Alpha  occ. eigenvalues --   -0.69292  -0.67426  -0.67317  -0.66168  -0.66048
 Alpha  occ. eigenvalues --   -0.64266  -0.63661  -0.63320  -0.63119  -0.62501
 Alpha  occ. eigenvalues --   -0.62204  -0.61647  -0.60319  -0.60030  -0.59805
 Alpha  occ. eigenvalues --   -0.59515  -0.59207  -0.59181  -0.58993  -0.58829
 Alpha  occ. eigenvalues --   -0.58472  -0.56995  -0.56444  -0.55016  -0.54594
 Alpha  occ. eigenvalues --   -0.54394  -0.54367  -0.53702  -0.53497  -0.53287
 Alpha  occ. eigenvalues --   -0.53203  -0.52670  -0.52215  -0.52200  -0.51903
 Alpha  occ. eigenvalues --   -0.50950  -0.50916  -0.50501  -0.50269  -0.50138
 Alpha  occ. eigenvalues --   -0.49927  -0.49406  -0.49173  -0.49041  -0.48619
 Alpha  occ. eigenvalues --   -0.48552  -0.48035  -0.47855  -0.47846  -0.47792
 Alpha  occ. eigenvalues --   -0.47649  -0.47176  -0.47132  -0.47025  -0.47012
 Alpha  occ. eigenvalues --   -0.46616  -0.46489  -0.46278  -0.46097  -0.46058
 Alpha  occ. eigenvalues --   -0.45948  -0.45708  -0.45150  -0.44793  -0.44686
 Alpha  occ. eigenvalues --   -0.44684  -0.44564  -0.44290  -0.44234  -0.44214
 Alpha  occ. eigenvalues --   -0.44053  -0.43951  -0.43799  -0.43624  -0.43337
 Alpha  occ. eigenvalues --   -0.43321  -0.43191  -0.43185  -0.43088  -0.42737
 Alpha  occ. eigenvalues --   -0.42525  -0.42424  -0.42178  -0.42025  -0.41866
 Alpha  occ. eigenvalues --   -0.41638  -0.41608  -0.41413  -0.41341  -0.41147
 Alpha  occ. eigenvalues --   -0.41081  -0.40962  -0.40924  -0.40650  -0.40622
 Alpha  occ. eigenvalues --   -0.40360  -0.40002  -0.39967  -0.39755  -0.39405
 Alpha  occ. eigenvalues --   -0.39301  -0.39234  -0.38974  -0.38927  -0.38829
 Alpha  occ. eigenvalues --   -0.38795  -0.38385  -0.38384  -0.38346  -0.38322
 Alpha  occ. eigenvalues --   -0.38139  -0.38022  -0.37943  -0.37641  -0.37507
 Alpha  occ. eigenvalues --   -0.37499  -0.36925  -0.36662  -0.36641  -0.36483
 Alpha  occ. eigenvalues --   -0.36462  -0.36325  -0.36174  -0.36043  -0.35856
 Alpha  occ. eigenvalues --   -0.35738  -0.35666  -0.35553  -0.35543  -0.35390
 Alpha  occ. eigenvalues --   -0.35130  -0.35113  -0.34739  -0.34541  -0.34380
 Alpha  occ. eigenvalues --   -0.33478  -0.33181  -0.32823  -0.32797  -0.32445
 Alpha  occ. eigenvalues --   -0.32352  -0.32269  -0.31829  -0.31776  -0.31467
 Alpha  occ. eigenvalues --   -0.31363  -0.31321  -0.29590  -0.29274  -0.29017
 Alpha  occ. eigenvalues --   -0.28897  -0.28554  -0.28286  -0.26854  -0.26807
 Alpha  occ. eigenvalues --   -0.26071  -0.25994  -0.25797  -0.25208  -0.25148
 Alpha  occ. eigenvalues --   -0.25033  -0.24941  -0.24560  -0.21253  -0.21058
 Alpha  occ. eigenvalues --   -0.18838  -0.18565
 Alpha virt. eigenvalues --   -0.11305  -0.11295  -0.05419  -0.04895  -0.04237
 Alpha virt. eigenvalues --   -0.03614  -0.02269  -0.01833   0.00258   0.00271
 Alpha virt. eigenvalues --    0.00358   0.00394   0.01179   0.01564   0.01912

 Mulliken charges:
               1
     1  Mg  12.000000
     2  C    6.000000
     3  C    6.000000
     4  C    6.000000
     5  C    6.000000
     6  N    7.000000
     7  C    5.999999
     8  C    6.000000
     9  C    6.000000
    10  C    6.000001
    11  C    6.000000
    12  C    6.000000
    13  C    6.000000
    14  H    1.000000
    15  N    7.000000
    16  C    6.000001
    17  C    6.000000
    18  C    6.000001
    19  C    6.000000
    20  C    6.000000
    21  C    6.000000
    22  O    8.000000
    23  C    6.000000
    24  N    7.000000
    25  C    6.000001
    26  C    6.000000
    27  C    6.000000
    28  C    5.999999
    29  C    6.000000
    30  C    6.000000
    31  C    6.000000
    32  N    7.000000
    33  C    5.999999
    34  C    5.999999
    35  C    6.000000
    36  C    6.000000
    37  C    6.000000
    38  C    6.000000
    39  O    7.999999
    40  C    6.000000
    41  C    6.000000
    42  O    8.000000
    43  O    8.000000
    44  C    6.000000
    45  H    1.000000
    46  H    1.000000
    47  H    1.000000
    48  H    1.000000
    49  H    1.000000
    50  H    1.000000
    51  H    1.000000
    52  H    1.000000
    53  H    1.000000
    54  H    1.000000
    55  H    1.000000
    56  H    1.000000
    57  H    1.000000
    58  H    1.000000
    59  H    1.000000
    60  H    1.000000
    61  H    1.000000
    62  H    1.000000
    63  H    1.000000
    64  H    1.000000
    65  H    1.000000
    66  H    1.000000
    67  H    1.000000
    68  H    1.000000
    69  H    1.000000
    70  H    1.000000
    71  H    1.000000
    72  H    1.000000
    73  H    0.999999
    74  H    1.000000
    75  H    1.000000
    76  H    1.000000
    77  H    1.000000
    78  H    1.000000
    79  H    1.000000
    80  Mg  12.000000
    81  C    6.000003
    82  C    6.000001
    83  C    5.999997
    84  C    5.999999
    85  N    7.000001
    86  C    5.999996
    87  C    6.000002
    88  C    5.999999
    89  C    6.000001
    90  C    5.999999
    91  C    6.000000
    92  C    6.000000
    93  H    1.000000
    94  N    7.000000
    95  C    6.000003
    96  C    6.000002
    97  C    6.000002
    98  C    6.000002
    99  C    6.000000
   100  C    6.000002
   101  O    8.000004
   102  C    5.999997
   103  N    6.999999
   104  C    6.000003
   105  C    5.999999
   106  C    6.000000
   107  C    5.999998
   108  C    6.000000
   109  C    6.000001
   110  C    6.000000
   111  N    7.000001
   112  C    5.999998
   113  C    5.999997
   114  C    6.000000
   115  C    5.999996
   116  C    6.000000
   117  C    5.999999
   118  O    7.999997
   119  C    6.000000
   120  C    6.000000
   121  O    7.999999
   122  O    8.000000
   123  C    6.000000
   124  H    1.000001
   125  H    1.000000
   126  H    0.999999
   127  H    1.000000
   128  H    1.000000
   129  H    1.000000
   130  H    1.000001
   131  H    1.000000
   132  H    0.999999
   133  H    1.000001
   134  H    0.999999
   135  H    1.000000
   136  H    1.000003
   137  H    1.000003
   138  H    1.000002
   139  H    1.000002
   140  H    1.000001
   141  H    0.999999
   142  H    1.000000
   143  H    1.000000
   144  H    1.000001
   145  H    1.000001
   146  H    0.999999
   147  H    1.000000
   148  H    0.999999
   149  H    0.999999
   150  H    0.999999
   151  H    1.000000
   152  H    0.999998
   153  H    0.999998
   154  H    0.999999
   155  H    0.999999
   156  H    1.000000
   157  H    1.000000
   158  H    1.000000
 Sum of Mulliken charges = 624.00000

 Dipole moment (field-independent basis, Debye):
    X=              0.0012    Y=              0.0001    Z=              0.0001  Tot=              0.0012
 Quadrupole moment (field-independent basis, Debye-Ang):
   XX=             -0.0141   YY=             -0.0004   ZZ=              0.0001
   XY=             -0.0016   XZ=              0.0011   YZ=              0.0000

 Normal termination of Gaussian 16 at Thu Oct 14 16:42:16 2021.
