 Gaussian 16, Revision A.03,
 Gaussian 16:  ES64L-G16RevA.03 25-Dec-2016

 --------------------------------------------------------
 #p PBE1PBE/Def2SVP td=(nstates=5) density=(transition=1)
 --------------------------------------------------------

 --------------------------------
 TDDFT excited states in gaussian
 --------------------------------
 Symbolic Z-matrix:
 Charge =  0 Multiplicity = 1

                         Standard orientation:
 ---------------------------------------------------------------------
 Center     Atomic      Atomic             Coordinates (Angstroms)
 Number     Number       Type             X           Y           Z
 ---------------------------------------------------------------------
      1         12           0       18.711741   -0.234920   -0.139234
      2          6           0       15.173838   -0.807684   -0.179118
      3          6           0       18.122267    2.497924   -2.307911
      4          6           0       21.845406    0.803622    0.462318
      5          6           0       18.956405   -2.489989    2.462338
      6          7           0       16.855820    0.752920   -1.158777
      7          6           0       15.578788    0.312712   -0.950006
      8          6           0       14.592081    1.335539   -1.490454
      9          6           0       15.594275    2.182137   -2.381670
     10          6           0       16.972836    1.837427   -1.963628
     11          6           0       15.468426    2.038719   -3.935645
     12          6           0       13.837030    2.028830   -0.311308
     13          6           0       12.269078    2.237745   -0.392913
     14          1           0       11.687559    3.662846   -0.375831
     15          7           0       19.871358    1.238229   -0.918623
     16          6           0       19.476834    2.269522   -1.811239
     17          6           0       20.611269    3.108107   -2.151808
     18          6           0       21.693774    2.601588   -1.323446
     19          6           0       21.139334    1.497706   -0.562410
     20          6           0       20.473292    4.279709   -3.031851
     21          6           0       23.115215    3.189443   -1.359300
     22          8           0       23.277592    4.217842   -2.078950
     23          6           0       24.336228    2.629414   -0.599180
     24          7           0       20.191253   -0.551537    1.447633
     25          6           0       21.445295   -0.150155    1.366412
     26          6           0       22.199967   -0.713098    2.527189
     27          6           0       21.256303   -1.804403    3.099617
     28          6           0       19.988433   -1.558105    2.341182
     29          6           0       23.679027   -1.255742    2.324200
     30          6           0       21.038746   -1.758705    4.699465
     31          6           0       21.542480   -2.951900    5.547987
     32          7           0       17.452728   -1.538406    0.795719
     33          6           0       17.676017   -2.382478    1.817126
     34          6           0       16.503214   -3.095261    2.169772
     35          6           0       15.507947   -2.530371    1.368896
     36          6           0       16.122501   -1.539736    0.561910
     37          6           0       16.286901   -4.187043    3.139035
     38          6           0       14.097932   -2.608321    1.141193
     39          8           0       13.278396   -3.289469    1.715600
     40          6           0       13.799913   -1.371834    0.078561
     41          6           0       13.201765   -1.904580   -1.151339
     42          8           0       13.571078   -2.924029   -1.747870
     43          8           0       12.191500   -1.036595   -1.506992
     44          6           0       11.442416   -1.372599   -2.716651
     45          1           0       18.006475    3.350783   -2.978479
     46          1           0       22.829236    1.160463    0.772948
     47          1           0       19.024318   -3.365496    3.111722
     48          1           0       13.954665    0.800654   -2.194982
     49          1           0       15.373012    3.163073   -1.959429
     50          1           0       16.441849    1.720551   -4.311633
     51          1           0       15.228614    2.967894   -4.452111
     52          1           0       14.781132    1.267031   -4.283723
     53          1           0       14.339299    2.995818   -0.327581
     54          1           0       14.021252    1.616690    0.680558
     55          1           0       11.871441    1.658908    0.440513
     56          1           0       11.895849    1.658576   -1.236976
     57          1           0       19.657402    4.875141   -2.621440
     58          1           0       20.142775    3.964469   -4.021322
     59          1           0       21.368962    4.861016   -3.252407
     60          1           0       24.200821    2.847993    0.460189
     61          1           0       25.189196    2.952870   -1.194867
     62          1           0       24.246124    1.555121   -0.763538
     63          1           0       22.329425    0.103005    3.236967
     64          1           0       21.675270   -2.710173    2.661089
     65          1           0       24.154573   -1.107500    3.294050
     66          1           0       24.146732   -0.689732    1.518754
     67          1           0       23.589093   -2.320000    2.105867
     68          1           0       19.961628   -1.630867    4.805781
     69          1           0       21.436522   -0.808101    5.054509
     70          1           0       20.789243   -3.325281    6.240478
     71          1           0       22.428090   -2.635182    6.099519
     72          1           0       21.914094   -3.786490    4.953166
     73          1           0       15.361887   -4.727024    2.939370
     74          1           0       16.235112   -3.571832    4.037517
     75          1           0       17.239353   -4.694789    3.290592
     76          1           0       13.249432   -0.562672    0.557149
     77          1           0       11.078402   -2.400019   -2.693853
     78          1           0       12.067735   -1.207060   -3.595198
     79          1           0       10.569530   -0.722529   -2.776949
     80         12           0      -18.273616    0.223889    0.636285
     81          6           0      -15.580406   -0.816214   -1.335249
     82          6           0      -19.993268   -2.569386   -0.434762
     83          6           0      -21.140162    1.527023    1.953790
     84          6           0      -16.677189    3.264842    1.080139
     85          7           0      -17.762164   -1.480569   -0.636533
     86          6           0      -16.559349   -1.785835   -1.139885
     87          6           0      -16.428290   -3.224380   -1.661232
     88          6           0      -17.915627   -3.734331   -1.542126
     89          6           0      -18.650495   -2.540327   -0.711795
     90          6           0      -18.655931   -4.067440   -2.855397
     91          6           0      -15.408548   -4.083331   -0.913132
     92          6           0      -14.824525   -5.220168   -1.771384
     93          1           0      -15.311838   -5.396680   -3.216468
     94          7           0      -20.256548   -0.453235    0.854440
     95          6           0      -20.768174   -1.688007    0.392978
     96          6           0      -22.152533   -1.790684    0.808950
     97          6           0      -22.533653   -0.559172    1.461209
     98          6           0      -21.297792    0.221736    1.482948
     99          6           0      -22.926407   -3.066018    0.617861
    100          6           0      -23.894901   -0.148033    2.182541
    101          8           0      -24.037762    0.868232    2.818064
    102          6           0      -25.054414   -1.107167    2.022396
    103          7           0      -18.852673    2.133245    1.312538
    104          6           0      -20.070146    2.433685    1.849741
    105          6           0      -20.136797    3.910494    2.387594
    106          6           0      -18.701507    4.377658    2.151226
    107          6           0      -18.048682    3.188975    1.471177
    108          6           0      -21.258577    4.916241    1.905629
    109          6           0      -18.006209    4.747448    3.482439
    110          6           0      -17.392546    3.620356    4.342374
    111          7           0      -16.423618    1.083651    0.160733
    112          6           0      -15.904621    2.328869    0.404131
    113          6           0      -14.589210    2.453433   -0.128323
    114          6           0      -14.393229    1.198079   -0.861726
    115          6           0      -15.503065    0.472225   -0.666070
    116          6           0      -13.609591    3.539925   -0.059585
    117          6           0      -13.531914    0.477539   -1.789057
    118          8           0      -12.391715    0.743572   -2.184007
    119          6           0      -14.235850   -0.864773   -2.145818
    120          6           0      -14.435218   -0.999021   -3.585212
    121          8           0      -15.308616   -0.448992   -4.247697
    122          8           0      -13.359354   -1.655036   -4.128790
    123          6           0      -13.100992   -1.560201   -5.578733
    124          1           0      -20.465963   -3.464882   -0.844050
    125          1           0      -21.992019    1.881535    2.537789
    126          1           0      -16.132468    4.185310    1.300131
    127          1           0      -16.232446   -3.246261   -2.733032
    128          1           0      -18.035070   -4.560089   -0.841638
    129          1           0      -18.994703   -5.079517   -2.634669
    130          1           0      -17.966002   -4.061599   -3.698900
    131          1           0      -19.457566   -3.350851   -3.034647
    132          1           0      -15.820520   -4.502561    0.004021
    133          1           0      -14.571195   -3.468626   -0.581778
    134          1           0      -15.085882   -6.083952   -1.159748
    135          1           0      -13.733684   -5.221793   -1.756925
    136          1           0      -22.302643   -3.690450   -0.021855
    137          1           0      -23.884154   -2.833825    0.151641
    138          1           0      -23.145621   -3.577259    1.556441
    139          1           0      -25.561975   -1.116695    1.057279
    140          1           0      -25.757579   -0.913355    2.832386
    141          1           0      -24.573280   -2.068122    2.204210
    142          1           0      -20.347780    3.730780    3.441525
    143          1           0      -18.766411    5.244042    1.493986
    144          1           0      -20.891434    5.895181    1.599701
    145          1           0      -21.921027    5.110324    2.748591
    146          1           0      -21.839373    4.415248    1.130601
    147          1           0      -18.755758    5.293114    4.054332
    148          1           0      -17.235808    5.465219    3.199151
    149          1           0      -17.657371    3.885737    5.365551
    150          1           0      -16.304286    3.585987    4.296749
    151          1           0      -17.702506    2.616180    4.055294
    152          1           0      -12.631779    3.091004    0.111399
    153          1           0      -13.796475    4.295739    0.703313
    154          1           0      -13.478566    3.984032   -1.046515
    155          1           0      -13.568968   -1.625930   -1.741115
    156          1           0      -13.872784   -0.991294   -6.098341
    157          1           0      -13.113215   -2.572606   -5.983198
    158          1           0      -12.129976   -1.066253   -5.580775
 ---------------------------------------------------------------------

 SCF Done:  E(RPBE1PBE) =  -4067.37360525     A.U. after   16 cycles

 Excitation energies and oscillator strengths:

 Excited State   1:      Singlet-A      1.8632 eV  665.43 nm  f=0.4125  <S**2>=0.000
     309 -> 315       -0.18005
     311 -> 313        0.69175
     311 <- 313       -0.10904
 This state for optimization and/or second-order correction.
 Total Energy, E(TD-HF/TD-DFT) =  -4067.30513362
 Copying the excited state density for this state as the 1-particle RhoCI density.

 Excited State   2:      Singlet-A      1.8755 eV  661.08 nm  f=0.3625  <S**2>=0.000
     310 -> 316        0.17450
     312 -> 314        0.69012
     312 <- 314       -0.10921

 Excited State   3:      Singlet-A      1.9562 eV  633.81 nm  f=0.0000  <S**2>=0.000
     312 -> 313        0.70710

 Excited State   4:      Singlet-A      1.9829 eV  625.25 nm  f=0.0000  <S**2>=0.000
     311 -> 314        0.70710

 Excited State   5:      Singlet-A      2.1487 eV  577.01 nm  f=0.1400  <S**2>=0.000
     310 -> 314        0.66654
     312 -> 316       -0.21043

 The electronic state is 1-A.
 Alpha  occ. eigenvalues --  -46.92270 -46.91662 -19.26829 -19.24554 -19.20694
 Alpha  occ. eigenvalues --  -19.20068 -19.19944 -19.19206 -19.19001 -19.18405
 Alpha  occ. eigenvalues --  -14.41698 -14.41469 -14.41367 -14.40946 -14.39583
 Alpha  occ. eigenvalues --  -14.39427 -14.39085 -14.37917 -10.37001 -10.35653
 Alpha  occ. eigenvalues --  -10.33264 -10.32560 -10.32458 -10.32285 -10.29587
 Alpha  occ. eigenvalues --  -10.28906 -10.28596 -10.28595 -10.28474 -10.28445
 Alpha  occ. eigenvalues --  -10.28437 -10.28393 -10.28260 -10.28094 -10.28027
 Alpha  occ. eigenvalues --  -10.28010 -10.27976 -10.27513 -10.27415 -10.26735
 Alpha  occ. eigenvalues --  -10.26596 -10.26448 -10.26373 -10.26300 -10.26271
 Alpha  occ. eigenvalues --  -10.26223 -10.25975 -10.25870 -10.25776 -10.25774
 Alpha  occ. eigenvalues --  -10.25588 -10.25578 -10.25496 -10.25468 -10.25418
 Alpha  occ. eigenvalues --  -10.25405 -10.25344 -10.25244 -10.25229 -10.25172
 Alpha  occ. eigenvalues --  -10.25074 -10.25053 -10.24891 -10.24885 -10.24802
 Alpha  occ. eigenvalues --  -10.24783 -10.24719 -10.24580 -10.24342 -10.24281
 Alpha  occ. eigenvalues --  -10.24138 -10.24137 -10.23989 -10.23984 -10.23873
 Alpha  occ. eigenvalues --  -10.23678 -10.23556 -10.23502 -10.23460 -10.23454
 Alpha  occ. eigenvalues --  -10.23318 -10.23247 -10.22876 -10.22558 -10.22509
 Alpha  occ. eigenvalues --  -10.22267  -3.14403  -3.13767  -1.87232  -1.86765
 Alpha  occ. eigenvalues --   -1.86644  -1.86608  -1.86137  -1.85996  -1.11213
 Alpha  occ. eigenvalues --   -1.09847  -1.06257  -1.05554  -1.03653  -1.02879
 Alpha  occ. eigenvalues --   -1.01967  -1.01458  -1.00094  -0.99384  -0.99039
 Alpha  occ. eigenvalues --   -0.98313  -0.97973  -0.97143  -0.97012  -0.95627
 Alpha  occ. eigenvalues --   -0.87462  -0.86468  -0.83652  -0.83451  -0.83041
 Alpha  occ. eigenvalues --   -0.82592  -0.82444  -0.82394  -0.82268  -0.81797
 Alpha  occ. eigenvalues --   -0.81395  -0.80712  -0.80409  -0.80321  -0.78918
 Alpha  occ. eigenvalues --   -0.78479  -0.78089  -0.77687  -0.76958  -0.76585
 Alpha  occ. eigenvalues --   -0.76189  -0.76086  -0.75676  -0.75323  -0.74771
 Alpha  occ. eigenvalues --   -0.74537  -0.72562  -0.72444  -0.71935  -0.71417
 Alpha  occ. eigenvalues --   -0.71170  -0.71133  -0.70556  -0.70210  -0.69689
 Alpha  occ. eigenvalues --   -0.69382  -0.67648  -0.66895  -0.66643  -0.65536
 Alpha  occ. eigenvalues --   -0.64160  -0.64148  -0.63820  -0.62847  -0.62824
 Alpha  occ. eigenvalues --   -0.62116  -0.61195  -0.60570  -0.60451  -0.60127
 Alpha  occ. eigenvalues --   -0.59630  -0.59271  -0.59253  -0.59118  -0.58942
 Alpha  occ. eigenvalues --   -0.58285  -0.57472  -0.55984  -0.54698  -0.54535
 Alpha  occ. eigenvalues --   -0.54285  -0.54032  -0.53664  -0.53599  -0.53448
 Alpha  occ. eigenvalues --   -0.52896  -0.52845  -0.52303  -0.52203  -0.51976
 Alpha  occ. eigenvalues --   -0.50753  -0.50406  -0.50399  -0.50131  -0.49987
 Alpha  occ. eigenvalues --   -0.49688  -0.49417  -0.49191  -0.49094  -0.48293
 Alpha  occ. eigenvalues --   -0.48250  -0.47947  -0.47814  -0.47539  -0.47453
 Alpha  occ. eigenvalues --   -0.47256  -0.47079  -0.46778  -0.46690  -0.46583
 Alpha  occ. eigenvalues --   -0.46401  -0.46301  -0.46253  -0.45905  -0.45855
 Alpha  occ. eigenvalues --   -0.45509  -0.45145  -0.45143  -0.44942  -0.44761
 Alpha  occ. eigenvalues --   -0.44558  -0.44499  -0.44204  -0.44203  -0.44093
 Alpha  occ. eigenvalues --   -0.44011  -0.43938  -0.43661  -0.43605  -0.43461
 Alpha  occ. eigenvalues --   -0.43164  -0.43137  -0.42896  -0.42761  -0.42538
 Alpha  occ. eigenvalues --   -0.42414  -0.42336  -0.42317  -0.42309  -0.42139
 Alpha  occ. eigenvalues --   -0.41781  -0.41735  -0.41425  -0.41352  -0.41113
 Alpha  occ. eigenvalues --   -0.40993  -0.40867  -0.40767  -0.40671  -0.40521
 Alpha  occ. eigenvalues --   -0.40384  -0.40352  -0.40031  -0.39997  -0.39779
 Alpha  occ. eigenvalues --   -0.39768  -0.39399  -0.39290  -0.39057  -0.38636
 Alpha  occ. eigenvalues --   -0.38548  -0.38446  -0.38413  -0.38331  -0.38234
 Alpha  occ. eigenvalues --   -0.38079  -0.37998  -0.37902  -0.37880  -0.37742
 Alpha  occ. eigenvalues --   -0.37637  -0.37625  -0.37459  -0.37244  -0.37209
 Alpha  occ. eigenvalues --   -0.36843  -0.36409  -0.36335  -0.36107  -0.35933
 Alpha  occ. eigenvalues --   -0.35895  -0.35729  -0.35677  -0.35542  -0.35259
 Alpha  occ. eigenvalues --   -0.35163  -0.35096  -0.34820  -0.33916  -0.33726
 Alpha  occ. eigenvalues --   -0.33478  -0.33322  -0.33201  -0.32797  -0.32684
 Alpha  occ. eigenvalues --   -0.32620  -0.32558  -0.31727  -0.31499  -0.31194
 Alpha  occ. eigenvalues --   -0.30844  -0.30602  -0.29897  -0.29546  -0.29254
 Alpha  occ. eigenvalues --   -0.28964  -0.28618  -0.28480  -0.26974  -0.26601
 Alpha  occ. eigenvalues --   -0.26333  -0.26094  -0.25729  -0.25694  -0.25183
 Alpha  occ. eigenvalues --   -0.25182  -0.24886  -0.24382  -0.21128  -0.20499
 Alpha  occ. eigenvalues --   -0.18927  -0.18883
 Alpha virt. eigenvalues --   -0.11333  -0.11277  -0.05203  -0.04868  -0.03909
 Alpha virt. eigenvalues --   -0.03623  -0.02022  -0.01919  -0.00530  -0.00169
 Alpha virt. eigenvalues --   -0.00168   0.00702   0.00921   0.01099   0.01712

 Mulliken charges:
               1
     1  Mg  11.999485
     2  C    6.013317
     3  C    5.981677
     4  C    5.984544
     5  C    6.019897
     6  N    6.995898
     7  C    5.974035
     8  C    6.007260
     9  C    5.991557
    10  C    6.029710
    11  C    5.997771
    12  C    6.007255
    13  C    6.000607
    14  H    0.990316
    15  N    6.997099
    16  C    6.045707
    17  C    6.019504
    18  C    6.011810
    19  C    6.031556
    20  C    5.996087
    21  C    6.012732
    22  O    8.022006
    23  C    6.001868
    24  N    7.000262
    25  C    6.031314
    26  C    5.989726
    27  C    6.010649
    28  C    5.965467
    29  C    5.998549
    30  C    6.001533
    31  C    6.001108
    32  N    7.000386
    33  C    5.964974
    34  C    5.972124
    35  C    5.995965
    36  C    5.972337
    37  C    5.998775
    38  C    5.984369
    39  O    7.973600
    40  C    5.996081
    41  C    5.995101
    42  O    7.995513
    43  O    7.997491
    44  C    6.002212
    45  H    1.008187
    46  H    1.007205
    47  H    0.993558
    48  H    1.000355
    49  H    1.001913
    50  H    0.995102
    51  H    1.001408
    52  H    1.012188
    53  H    0.988150
    54  H    1.005113
    55  H    1.003428
    56  H    1.000042
    57  H    1.018917
    58  H    1.019506
    59  H    1.013187
    60  H    1.010418
    61  H    1.011471
    62  H    1.007480
    63  H    1.001015
    64  H    0.997856
    65  H    1.005273
    66  H    0.992632
    67  H    1.006808
    68  H    1.005743
    69  H    0.990964
    70  H    1.002181
    71  H    0.994402
    72  H    0.998791
    73  H    0.987407
    74  H    0.981421
    75  H    0.981484
    76  H    0.990579
    77  H    0.998154
    78  H    0.993591
    79  H    0.994837
    80  Mg  11.999989
    81  C    5.999441
    82  C    6.000635
    83  C    6.000851
    84  C    5.999956
    85  N    6.999881
    86  C    6.001299
    87  C    5.999446
    88  C    6.000091
    89  C    5.998692
    90  C    6.000058
    91  C    5.999853
    92  C    5.999933
    93  H    1.000143
    94  N    7.000150
    95  C    5.998173
    96  C    5.999120
    97  C    5.999043
    98  C    5.998700
    99  C    6.000201
   100  C    5.999336
   101  O    7.998704
   102  C    6.000219
   103  N    7.000179
   104  C    5.998448
   105  C    6.000361
   106  C    5.999588
   107  C    6.001545
   108  C    5.999951
   109  C    5.999825
   110  C    5.999769
   111  N    7.000112
   112  C    6.001213
   113  C    6.001858
   114  C    6.000018
   115  C    6.000837
   116  C    5.999761
   117  C    6.000782
   118  O    8.001249
   119  C    6.000059
   120  C    6.000123
   121  O    8.000317
   122  O    8.000082
   123  C    5.999856
   124  H    0.999639
   125  H    0.999536
   126  H    1.000335
   127  H    1.000073
   128  H    1.000126
   129  H    0.999965
   130  H    0.999487
   131  H    1.000106
   132  H    1.000401
   133  H    0.999743
   134  H    1.000223
   135  H    1.000018
   136  H    0.999267
   137  H    0.999088
   138  H    0.999034
   139  H    0.999507
   140  H    0.999282
   141  H    0.999929
   142  H    1.000048
   143  H    1.000023
   144  H    0.999473
   145  H    0.999972
   146  H    1.000172
   147  H    1.000422
   148  H    0.999809
   149  H    1.000347
   150  H    0.999832
   151  H    1.000351
   152  H    1.001005
   153  H    1.000855
   154  H    1.001062
   155  H    1.000495
   156  H    1.000102
   157  H    1.000332
   158  H    1.000099
 Sum of Mulliken charges = 624.00000

 Dipole moment (field-independent basis, Debye):
    X=              7.2183    Y=              6.8143    Z=             -4.2676  Tot=             10.8051
 Quadrupole moment (field-independent basis, Debye-Ang):
   XX=            230.5597   YY=              0.8286   ZZ=             -0.6183
   XY=            121.5127   XZ=            -76.7552   YZ=             -0.6482

 Normal termination of Gaussian 16 at Thu Oct 14 10:53:48 2021.
