 Gaussian 16, Revision A.03,
 Gaussian 16:  ES64L-G16RevA.03 25-Dec-2016

 --------------------------------------------------------
 #p PBE1PBE/Def2SVP td=(nstates=5) density=(transition=1)
 --------------------------------------------------------

 --------------------------------
 TDDFT excited states in gaussian
 --------------------------------
 Symbolic Z-matrix:
 Charge =  0 Multiplicity = 1

                         Standard orientation:
 ---------------------------------------------------------------------
 Center     Atomic      Atomic             Coordinates (Angstroms)
 Number     Number       Type             X           Y           Z
 ---------------------------------------------------------------------
      1         12           0      -30.438958    0.018839    0.098301
      2          6           0      -27.169419    0.660571   -0.757364
      3          6           0      -29.648223   -3.131791    1.182589
      4          6           0      -33.736984   -0.536242    1.140565
      5          6           0      -31.185931    3.381386   -0.149722
      6          7           0      -28.526764   -0.967311    0.367205
      7          6           0      -27.298877   -0.629158   -0.208151
      8          6           0      -26.228643   -1.679696    0.098843
      9          6           0      -27.143311   -2.854974    0.527937
     10          6           0      -28.550429   -2.286802    0.804207
     11          6           0      -27.090661   -4.051269   -0.447354
     12          6           0      -25.250860   -1.213796    1.195765
     13          6           0      -23.732364   -1.532821    0.971859
     14          1           0      -22.927792   -1.766108    2.190533
     15          7           0      -31.509214   -1.597798    0.960704
     16          6           0      -31.033633   -2.831342    1.247084
     17          6           0      -32.069228   -3.772893    1.551114
     18          6           0      -33.287325   -3.086862    1.415410
     19          6           0      -32.880122   -1.649784    1.125719
     20          6           0      -31.836638   -5.265694    1.792920
     21          6           0      -34.733051   -3.674638    1.601547
     22          8           0      -34.848545   -4.865001    1.990650
     23          6           0      -36.062033   -2.879008    1.246009
     24          7           0      -32.135187    1.301633    0.733938
     25          6           0      -33.380235    0.819462    0.966479
     26          6           0      -34.434242    1.896680    0.981199
     27          6           0      -33.638971    3.169765    0.619842
     28          6           0      -32.245013    2.600838    0.343092
     29          6           0      -35.677080    1.607678    0.075510
     30          6           0      -33.744750    4.319441    1.731474
     31          6           0      -34.652415    5.495102    1.351613
     32          7           0      -29.440302    1.696360   -0.408945
     33          6           0      -29.852775    3.043143   -0.511918
     34          6           0      -28.798168    3.823126   -1.172957
     35          6           0      -27.779557    2.895772   -1.342625
     36          6           0      -28.191169    1.689860   -0.751664
     37          6           0      -28.764765    5.259304   -1.556255
     38          6           0      -26.408468    2.735292   -1.847453
     39          8           0      -25.703915    3.457406   -2.571889
     40          6           0      -25.966305    1.251463   -1.526150
     41          6           0      -25.656813    0.476335   -2.799845
     42          8           0      -26.317340    0.444812   -3.842963
     43          8           0      -24.453998   -0.106731   -2.531972
     44          6           0      -23.801115   -0.785465   -3.638860
     45          1           0      -29.409868   -4.140540    1.525932
     46          1           0      -34.805454   -0.598945    1.357373
     47          1           0      -31.358331    4.453891   -0.259825
     48          1           0      -25.644842   -1.879580   -0.800283
     49          1           0      -26.701614   -3.182587    1.468989
     50          1           0      -26.235021   -4.164400   -1.113039
     51          1           0      -27.935445   -3.913003   -1.121962
     52          1           0      -27.174972   -5.007449    0.068557
     53          1           0      -25.541653   -1.547117    2.191606
     54          1           0      -25.435293   -0.144034    1.297138
     55          1           0      -23.277868   -0.713398    0.415079
     56          1           0      -23.656068   -2.463857    0.408472
     57          1           0      -32.452192   -5.779734    1.055055
     58          1           0      -31.947695   -5.487603    2.854369
     59          1           0      -30.802564   -5.429377    1.489739
     60          1           0      -36.296205   -2.277883    2.123813
     61          1           0      -36.834229   -3.633070    1.095479
     62          1           0      -35.894610   -2.429609    0.266804
     63          1           0      -34.815201    1.977906    1.999304
     64          1           0      -33.846033    3.610403   -0.355103
     65          1           0      -35.952492    2.479311   -0.517575
     66          1           0      -36.553899    1.308491    0.649481
     67          1           0      -35.469261    0.736474   -0.544339
     68          1           0      -32.784519    4.794453    1.932105
     69          1           0      -34.035053    3.886804    2.688830
     70          1           0      -35.212373    5.824173    2.227154
     71          1           0      -35.352625    5.183464    0.576872
     72          1           0      -34.116816    6.357117    0.954340
     73          1           0      -29.753198    5.672661   -1.355562
     74          1           0      -28.308304    5.371257   -2.539923
     75          1           0      -28.128752    5.748945   -0.818019
     76          1           0      -25.117301    1.209280   -0.843346
     77          1           0      -24.469853   -1.413256   -4.229100
     78          1           0      -22.932343   -1.399359   -3.401302
     79          1           0      -23.377108   -0.048640   -4.321548
     80         12           0       29.754442    0.656022    0.560845
     81          6           0       28.801362   -2.470749   -0.953663
     82          6           0       29.011211    2.224397   -2.292854
     83          6           0       31.465151    3.286935    1.736651
     84          6           0       30.913479   -1.226111    3.284532
     85          7           0       29.058300   -0.058184   -1.372314
     86          6           0       28.548223   -1.318309   -1.728398
     87          6           0       27.805911   -1.265744   -3.117918
     88          6           0       27.960684    0.231071   -3.524312
     89          6           0       28.674013    0.864303   -2.300150
     90          6           0       28.683453    0.527089   -4.813878
     91          6           0       26.282679   -1.815715   -3.037108
     92          6           0       25.926258   -2.905650   -4.055517
     93          1           0       24.722080   -2.531535   -4.997510
     94          7           0       30.061000    2.558476   -0.126601
     95          6           0       29.695349    3.034208   -1.321241
     96          6           0       30.113267    4.426037   -1.498027
     97          6           0       30.918763    4.690007   -0.336804
     98          6           0       30.862332    3.483127    0.494664
     99          6           0       29.759838    5.234435   -2.671829
    100          6           0       31.748589    5.996823   -0.135710
    101          8           0       32.369844    6.216277    0.890655
    102          6           0       31.821051    7.076765   -1.167625
    103          7           0       30.962767    0.953715    2.218489
    104          6           0       31.467385    2.204539    2.557582
    105          6           0       32.185615    2.161688    3.946283
    106          6           0       31.681368    0.800806    4.556255
    107          6           0       31.098292    0.138959    3.307920
    108          6           0       33.726120    2.426477    3.980079
    109          6           0       30.607450    0.960539    5.667049
    110          6           0       30.665549    0.049093    6.866885
    111          7           0       29.901626   -1.420690    1.071220
    112          6           0       30.392399   -2.010114    2.201567
    113          6           0       30.080981   -3.504997    2.145246
    114          6           0       29.418955   -3.713878    0.959573
    115          6           0       29.395502   -2.433004    0.308362
    116          6           0       30.383486   -4.446307    3.288867
    117          6           0       28.792616   -4.677038    0.071586
    118          8           0       28.679793   -5.894151    0.327339
    119          6           0       28.423089   -3.897100   -1.326652
    120          6           0       29.219075   -4.346872   -2.533987
    121          8           0       30.465722   -4.357922   -2.509401
    122          8           0       28.412159   -4.889123   -3.535118
    123          6           0       29.173837   -5.690587   -4.485938
    124          1           0       28.690499    2.818282   -3.151039
    125          1           0       31.943092    4.209735    2.071016
    126          1           0       31.188847   -1.724388    4.216885
    127          1           0       28.397704   -1.951306   -3.724137
    128          1           0       26.948884    0.551407   -3.776577
    129          1           0       29.067013   -0.366595   -5.306312
    130          1           0       29.568872    1.016520   -4.409599
    131          1           0       28.068911    1.058810   -5.540941
    132          1           0       25.694672   -0.909560   -3.180133
    133          1           0       26.071084   -2.121174   -2.012746
    134          1           0       25.764029   -3.820941   -3.486287
    135          1           0       26.780711   -3.073986   -4.712258
    136          1           0       30.541157    5.704152   -3.268514
    137          1           0       29.327746    6.142184   -2.252194
    138          1           0       28.942842    4.846448   -3.280568
    139          1           0       30.792685    7.418999   -1.289602
    140          1           0       32.110363    6.593734   -2.101362
    141          1           0       32.533341    7.804627   -0.781108
    142          1           0       31.719678    2.977220    4.499426
    143          1           0       32.495958    0.151079    4.875386
    144          1           0       33.965368    2.729917    2.961123
    145          1           0       34.317450    1.586831    4.344234
    146          1           0       33.975070    3.331411    4.535735
    147          1           0       29.732995    0.750711    5.051393
    148          1           0       30.489403    1.975434    6.047273
    149          1           0       30.463478    0.687157    7.727281
    150          1           0       31.650315   -0.392761    7.022266
    151          1           0       29.791342   -0.597975    6.790898
    152          1           0       30.870960   -3.858843    4.066701
    153          1           0       31.127378   -5.165422    2.946667
    154          1           0       29.471018   -4.960300    3.590375
    155          1           0       27.348171   -3.977833   -1.488344
    156          1           0       28.985921   -6.762681   -4.447477
    157          1           0       30.252833   -5.547562   -4.425810
    158          1           0       28.881258   -5.341761   -5.475968
 ---------------------------------------------------------------------

 SCF Done:  E(RPBE1PBE) =  -4067.38174229     A.U. after   16 cycles

 Excitation energies and oscillator strengths:

 Excited State   1:      Singlet-A      1.8386 eV  674.35 nm  f=0.3457  <S**2>=0.000
     309 -> 315        0.16803
     311 -> 313        0.69268
     311 <- 313       -0.10467
 This state for optimization and/or second-order correction.
 Total Energy, E(TD-HF/TD-DFT) =  -4067.31417626
 Copying the excited state density for this state as the 1-particle RhoCI density.

 Excited State   2:      Singlet-A      1.8518 eV  669.54 nm  f=0.4124  <S**2>=0.000
     310 -> 316        0.16678
     312 -> 314        0.69626
     312 <- 314       -0.11425

 Excited State   3:      Singlet-A      1.9319 eV  641.77 nm  f=0.0000  <S**2>=0.000
     312 -> 313        0.70711

 Excited State   4:      Singlet-A      2.0646 eV  600.54 nm  f=0.0000  <S**2>=0.000
     311 -> 314        0.70711

 Excited State   5:      Singlet-A      2.2418 eV  553.06 nm  f=0.0972  <S**2>=0.000
     309 -> 313        0.64072
     311 -> 315       -0.28289

 The electronic state is 1-A.
 Alpha  occ. eigenvalues --  -46.92591 -46.91817 -19.27244 -19.27091 -19.20975
 Alpha  occ. eigenvalues --  -19.20593 -19.20042 -19.19710 -19.18924 -19.18882
 Alpha  occ. eigenvalues --  -14.42073 -14.42011 -14.41652 -14.41241 -14.39733
 Alpha  occ. eigenvalues --  -14.39276 -14.39081 -14.38899 -10.37745 -10.37064
 Alpha  occ. eigenvalues --  -10.33709 -10.33559 -10.32201 -10.32129 -10.29733
 Alpha  occ. eigenvalues --  -10.29319 -10.29294 -10.29026 -10.29022 -10.28905
 Alpha  occ. eigenvalues --  -10.28807 -10.28740 -10.28489 -10.28264 -10.28017
 Alpha  occ. eigenvalues --  -10.27974 -10.27817 -10.27732 -10.27616 -10.27447
 Alpha  occ. eigenvalues --  -10.27383 -10.26729 -10.26478 -10.26405 -10.26389
 Alpha  occ. eigenvalues --  -10.26370 -10.26364 -10.26084 -10.25981 -10.25966
 Alpha  occ. eigenvalues --  -10.25943 -10.25875 -10.25822 -10.25779 -10.25766
 Alpha  occ. eigenvalues --  -10.25737 -10.25718 -10.25527 -10.25463 -10.25355
 Alpha  occ. eigenvalues --  -10.25265 -10.25215 -10.25122 -10.24879 -10.24823
 Alpha  occ. eigenvalues --  -10.24722 -10.24648 -10.24640 -10.24627 -10.24626
 Alpha  occ. eigenvalues --  -10.24232 -10.24199 -10.24155 -10.23600 -10.23538
 Alpha  occ. eigenvalues --  -10.23536 -10.23535 -10.23471 -10.23468 -10.23304
 Alpha  occ. eigenvalues --  -10.23249 -10.23061 -10.22993 -10.22944 -10.22850
 Alpha  occ. eigenvalues --  -10.22621  -3.14702  -3.14042  -1.87508  -1.87063
 Alpha  occ. eigenvalues --   -1.86955  -1.86864  -1.86401  -1.86293  -1.11700
 Alpha  occ. eigenvalues --   -1.10998  -1.04966  -1.03651  -1.03270  -1.03146
 Alpha  occ. eigenvalues --   -1.02685  -1.02645  -0.99437  -0.98747  -0.98580
 Alpha  occ. eigenvalues --   -0.98030  -0.97994  -0.97245  -0.96756  -0.96531
 Alpha  occ. eigenvalues --   -0.86884  -0.85889  -0.83442  -0.83189  -0.83113
 Alpha  occ. eigenvalues --   -0.83010  -0.82984  -0.82389  -0.81786  -0.81634
 Alpha  occ. eigenvalues --   -0.81575  -0.81267  -0.80595  -0.80397  -0.78589
 Alpha  occ. eigenvalues --   -0.78580  -0.78234  -0.77920  -0.76982  -0.76804
 Alpha  occ. eigenvalues --   -0.76173  -0.75804  -0.75502  -0.75331  -0.74557
 Alpha  occ. eigenvalues --   -0.74538  -0.72824  -0.72345  -0.71911  -0.71740
 Alpha  occ. eigenvalues --   -0.71212  -0.70997  -0.70484  -0.70257  -0.69629
 Alpha  occ. eigenvalues --   -0.69146  -0.67220  -0.66856  -0.66162  -0.65454
 Alpha  occ. eigenvalues --   -0.63555  -0.63421  -0.63384  -0.62793  -0.62359
 Alpha  occ. eigenvalues --   -0.62192  -0.61586  -0.61196  -0.60586  -0.59756
 Alpha  occ. eigenvalues --   -0.59687  -0.59481  -0.59446  -0.59415  -0.59144
 Alpha  occ. eigenvalues --   -0.58896  -0.57350  -0.57143  -0.54919  -0.54509
 Alpha  occ. eigenvalues --   -0.54280  -0.54200  -0.53565  -0.53293  -0.53214
 Alpha  occ. eigenvalues --   -0.53137  -0.52901  -0.52360  -0.51956  -0.51783
 Alpha  occ. eigenvalues --   -0.50861  -0.50519  -0.50435  -0.49932  -0.49825
 Alpha  occ. eigenvalues --   -0.49649  -0.49592  -0.49323  -0.48423  -0.48378
 Alpha  occ. eigenvalues --   -0.48165  -0.47966  -0.47863  -0.47705  -0.47294
 Alpha  occ. eigenvalues --   -0.47228  -0.46989  -0.46887  -0.46616  -0.46435
 Alpha  occ. eigenvalues --   -0.46202  -0.46158  -0.46049  -0.45924  -0.45917
 Alpha  occ. eigenvalues --   -0.45758  -0.45715  -0.45570  -0.45486  -0.45316
 Alpha  occ. eigenvalues --   -0.44903  -0.44601  -0.44139  -0.44126  -0.43984
 Alpha  occ. eigenvalues --   -0.43951  -0.43860  -0.43694  -0.43404  -0.43300
 Alpha  occ. eigenvalues --   -0.43222  -0.42985  -0.42870  -0.42804  -0.42781
 Alpha  occ. eigenvalues --   -0.42619  -0.42523  -0.42256  -0.42128  -0.42001
 Alpha  occ. eigenvalues --   -0.41911  -0.41702  -0.41522  -0.41519  -0.41313
 Alpha  occ. eigenvalues --   -0.41180  -0.41169  -0.40812  -0.40712  -0.40691
 Alpha  occ. eigenvalues --   -0.40437  -0.40400  -0.40092  -0.40083  -0.39551
 Alpha  occ. eigenvalues --   -0.39320  -0.39206  -0.39104  -0.38893  -0.38861
 Alpha  occ. eigenvalues --   -0.38758  -0.38699  -0.38608  -0.38585  -0.38428
 Alpha  occ. eigenvalues --   -0.38309  -0.38190  -0.37923  -0.37838  -0.37733
 Alpha  occ. eigenvalues --   -0.37616  -0.37464  -0.37337  -0.37147  -0.37003
 Alpha  occ. eigenvalues --   -0.36775  -0.36635  -0.36583  -0.36517  -0.36093
 Alpha  occ. eigenvalues --   -0.36004  -0.35768  -0.35665  -0.35560  -0.35527
 Alpha  occ. eigenvalues --   -0.35080  -0.34685  -0.34428  -0.34257  -0.34066
 Alpha  occ. eigenvalues --   -0.33668  -0.33384  -0.33302  -0.33127  -0.32818
 Alpha  occ. eigenvalues --   -0.32469  -0.32395  -0.32266  -0.31936  -0.31522
 Alpha  occ. eigenvalues --   -0.31484  -0.31142  -0.30065  -0.29822  -0.29769
 Alpha  occ. eigenvalues --   -0.29643  -0.28683  -0.28548  -0.27091  -0.26972
 Alpha  occ. eigenvalues --   -0.26366  -0.26272  -0.25884  -0.25785  -0.25627
 Alpha  occ. eigenvalues --   -0.25613  -0.25441  -0.25415  -0.21100  -0.21068
 Alpha  occ. eigenvalues --   -0.18742  -0.18456
 Alpha virt. eigenvalues --   -0.11138  -0.10937  -0.05549  -0.04851  -0.04288
 Alpha virt. eigenvalues --   -0.04009  -0.02510  -0.02263  -0.01699  -0.01132
 Alpha virt. eigenvalues --   -0.00810   0.00219   0.00359   0.00677   0.01289

 Mulliken charges:
               1
     1  Mg  12.001013
     2  C    5.973085
     3  C    6.009251
     4  C    6.024403
     5  C    6.000576
     6  N    6.984169
     7  C    6.034638
     8  C    5.992616
     9  C    6.008351
    10  C    5.969579
    11  C    6.002950
    12  C    6.000410
    13  C    5.998658
    14  H    1.003699
    15  N    7.004458
    16  C    5.967340
    17  C    5.979719
    18  C    5.987803
    19  C    5.962562
    20  C    6.001724
    21  C    5.988920
    22  O    7.979258
    23  C    5.997993
    24  N    7.006905
    25  C    5.965212
    26  C    6.010701
    27  C    5.992259
    28  C    6.031598
    29  C    6.000638
    30  C    5.996887
    31  C    5.999431
    32  N    7.000039
    33  C    6.035649
    34  C    6.024101
    35  C    6.003037
    36  C    6.026516
    37  C    5.998229
    38  C    6.017301
    39  O    8.030315
    40  C    6.000484
    41  C    6.005705
    42  O    8.001965
    43  O    8.001762
    44  C    5.998390
    45  H    0.989711
    46  H    0.994655
    47  H    1.012742
    48  H    0.998185
    49  H    0.995018
    50  H    0.987304
    51  H    0.999258
    52  H    1.000797
    53  H    1.008316
    54  H    0.992703
    55  H    0.995275
    56  H    1.003857
    57  H    0.986315
    58  H    0.983835
    59  H    0.985157
    60  H    0.990101
    61  H    0.989423
    62  H    0.991736
    63  H    0.999265
    64  H    0.997527
    65  H    0.990448
    66  H    1.002389
    67  H    1.003441
    68  H    0.996872
    69  H    1.011022
    70  H    1.005267
    71  H    1.005261
    72  H    0.997989
    73  H    1.014715
    74  H    1.015005
    75  H    1.018336
    76  H    1.007392
    77  H    1.004859
    78  H    1.005087
    79  H    1.000438
    80  Mg  11.999975
    81  C    5.999839
    82  C    6.000133
    83  C    6.000125
    84  C    5.999862
    85  N    6.999920
    86  C    6.000307
    87  C    5.999911
    88  C    6.000099
    89  C    5.999685
    90  C    6.000009
    91  C    5.999978
    92  C    5.999973
    93  H    1.000059
    94  N    7.000075
    95  C    5.999668
    96  C    5.999822
    97  C    5.999879
    98  C    5.999652
    99  C    6.000062
   100  C    5.999898
   101  O    7.999791
   102  C    6.000017
   103  N    7.000029
   104  C    5.999710
   105  C    6.000076
   106  C    5.999917
   107  C    6.000265
   108  C    5.999986
   109  C    5.999990
   110  C    5.999981
   111  N    6.999986
   112  C    6.000332
   113  C    6.000270
   114  C    6.000046
   115  C    6.000294
   116  C    5.999959
   117  C    6.000160
   118  O    8.000271
   119  C    6.000048
   120  C    6.000036
   121  O    8.000050
   122  O    8.000032
   123  C    5.999964
   124  H    0.999914
   125  H    0.999940
   126  H    1.000088
   127  H    1.000015
   128  H    0.999941
   129  H    0.999904
   130  H    1.000063
   131  H    0.999965
   132  H    1.000073
   133  H    0.999956
   134  H    0.999976
   135  H    1.000021
   136  H    0.999808
   137  H    0.999824
   138  H    0.999831
   139  H    0.999938
   140  H    0.999961
   141  H    0.999885
   142  H    0.999991
   143  H    0.999998
   144  H    1.000046
   145  H    0.999920
   146  H    0.999992
   147  H    0.999984
   148  H    1.000094
   149  H    1.000043
   150  H    1.000020
   151  H    0.999967
   152  H    1.000165
   153  H    1.000184
   154  H    1.000162
   155  H    1.000066
   156  H    1.000036
   157  H    1.000036
   158  H    1.000053
 Sum of Mulliken charges = 624.00000

 Dipole moment (field-independent basis, Debye):
    X=              4.5349    Y=              8.3233    Z=             -3.0553  Tot=              9.9587
 Quadrupole moment (field-independent basis, Debye-Ang):
   XX=           -277.1878   YY=              0.5779   ZZ=              0.5817
   XY=           -261.0793   XZ=             93.0008   YZ=              2.0566

 Normal termination of Gaussian 16 at Fri Oct 15 16:42:32 2021.
