 Gaussian 16, Revision A.03,
 Gaussian 16:  ES64L-G16RevA.03 25-Dec-2016

 --------------------------------------------------------
 #p PBE1PBE/Def2SVP td=(nstates=5) density=(transition=1)
 --------------------------------------------------------

 --------------------------------
 TDDFT excited states in gaussian
 --------------------------------
 Symbolic Z-matrix:
 Charge =  0 Multiplicity = 1

                         Standard orientation:
 ---------------------------------------------------------------------
 Center     Atomic      Atomic             Coordinates (Angstroms)
 Number     Number       Type             X           Y           Z
 ---------------------------------------------------------------------
      1         12           0      -17.089156    0.586067    0.368547
      2          6           0      -15.997871   -2.349424   -1.135410
      3          6           0      -18.194568   -1.405107    2.984454
      4          6           0      -18.613567    3.356710    1.619926
      5          6           0      -16.067138    2.358396   -2.418965
      6          7           0      -17.140092   -1.634311    0.833892
      7          6           0      -16.597390   -2.669009    0.087240
      8          6           0      -16.857339   -4.101427    0.699186
      9          6           0      -17.854698   -3.719717    1.860757
     10          6           0      -17.772069   -2.149056    1.893043
     11          6           0      -19.326225   -4.140988    1.809331
     12          6           0      -15.534849   -4.765350    1.124456
     13          6           0      -15.035604   -5.905501    0.276537
     14          1           0      -14.349935   -7.069575    1.013664
     15          7           0      -18.077206    1.013967    2.140351
     16          6           0      -18.337627    0.060835    3.074909
     17          6           0      -19.067289    0.756810    4.152686
     18          6           0      -19.294429    2.085058    3.759808
     19          6           0      -18.669714    2.232808    2.502930
     20          6           0      -19.337776    0.088867    5.439572
     21          6           0      -20.058365    3.179637    4.445546
     22          8           0      -20.091639    4.371000    4.029425
     23          6           0      -20.852618    2.984416    5.617518
     24          7           0      -17.237712    2.540163   -0.243246
     25          6           0      -17.890038    3.515828    0.446026
     26          6           0      -17.866298    4.832315   -0.225503
     27          6           0      -16.996948    4.550997   -1.503359
     28          6           0      -16.816126    3.082602   -1.408822
     29          6           0      -19.154054    5.628340   -0.589591
     30          6           0      -15.662022    5.437539   -1.639202
     31          6           0      -14.316885    5.060237   -0.950444
     32          7           0      -16.253466    0.168598   -1.439111
     33          6           0      -15.857588    0.986788   -2.457728
     34          6           0      -15.113233    0.264352   -3.394336
     35          6           0      -15.236220   -1.099417   -2.923395
     36          6           0      -15.913809   -1.084311   -1.720551
     37          6           0      -14.354052    0.799156   -4.607209
     38          6           0      -14.761797   -2.424462   -3.202084
     39          8           0      -14.005517   -2.904769   -4.021651
     40          6           0      -15.459485   -3.339578   -2.135586
     41          6           0      -16.522499   -4.137931   -2.777687
     42          8           0      -17.753319   -4.029785   -2.583676
     43          8           0      -16.077350   -5.045416   -3.674000
     44          6           0      -17.023110   -6.078530   -4.218528
     45          1           0      -18.596571   -2.043253    3.773342
     46          1           0      -19.111734    4.271085    1.949435
     47          1           0      -15.566839    2.867252   -3.246141
     48          1           0      -17.532919   -4.694993    0.082364
     49          1           0      -17.400029   -4.108540    2.771854
     50          1           0      -19.961712   -3.268823    1.653933
     51          1           0      -19.587919   -4.443225    2.822296
     52          1           0      -19.570348   -4.909747    1.075364
     53          1           0      -15.738001   -5.192908    2.107003
     54          1           0      -14.790662   -3.980796    1.261422
     55          1           0      -14.313049   -5.494216   -0.428837
     56          1           0      -15.779200   -6.372616   -0.369347
     57          1           0      -18.791654    0.676079    6.176707
     58          1           0      -19.078205   -0.962828    5.567360
     59          1           0      -20.401319    0.156478    5.668354
     60          1           0      -21.413582    2.068767    5.432265
     61          1           0      -21.377949    3.899896    5.886514
     62          1           0      -20.233166    2.704903    6.469760
     63          1           0      -17.304586    5.394124    0.520217
     64          1           0      -17.602775    4.716351   -2.393498
     65          1           0      -19.235212    6.556604   -0.023977
     66          1           0      -20.051458    5.058194   -0.347004
     67          1           0      -19.246936    5.838318   -1.655073
     68          1           0      -15.970472    6.378239   -1.182588
     69          1           0      -15.600809    5.535464   -2.723172
     70          1           0      -14.286446    4.070926   -0.494625
     71          1           0      -13.887826    5.815362   -0.291200
     72          1           0      -13.600729    5.079529   -1.770887
     73          1           0      -14.680474    0.325282   -5.533541
     74          1           0      -13.306912    0.522759   -4.484980
     75          1           0      -14.358918    1.885279   -4.702640
     76          1           0      -14.735269   -4.097841   -1.837351
     77          1           0      -16.264078   -6.742562   -4.632328
     78          1           0      -17.728042   -5.712597   -4.964306
     79          1           0      -17.590996   -6.523800   -3.401031
     80         12           0       16.560910    0.735789    0.176302
     81          6           0       18.437336   -2.080403    1.358542
     82          6           0       14.197553   -1.316141   -0.816526
     83          6           0       15.397237    3.321764   -1.539226
     84          6           0       19.516567    2.745945    1.043542
     85          7           0       16.337331   -1.447788    0.311529
     86          6           0       17.220528   -2.432562    0.797046
     87          6           0       16.669565   -3.902490    0.663303
     88          6           0       15.210133   -3.540723   -0.015530
     89          6           0       15.199907   -2.025038   -0.187569
     90          6           0       14.998938   -4.265781   -1.413437
     91          6           0       16.616900   -4.736109    1.990805
     92          6           0       15.727052   -5.973028    1.961569
     93          1           0       16.481245   -7.310340    2.077200
     94          7           0       14.946953    0.986747   -0.937969
     95          6           0       14.003524    0.041977   -1.267002
     96          6           0       12.923539    0.592650   -2.058353
     97          6           0       13.303986    1.980389   -2.245609
     98          6           0       14.589389    2.153909   -1.479691
     99          6           0       11.713759   -0.096401   -2.484987
    100          6           0       12.587504    3.098030   -2.983451
    101          8           0       12.940057    4.244034   -2.973566
    102          6           0       11.421577    2.650553   -3.824479
    103          7           0       17.378944    2.740437   -0.250708
    104          6           0       16.642277    3.620213   -0.974875
    105          6           0       17.332389    5.009375   -1.030431
    106          6           0       18.566143    4.808783   -0.083253
    107          6           0       18.470558    3.348506    0.314795
    108          6           0       17.740496    5.577085   -2.432483
    109          6           0       18.615520    5.723129    1.191406
    110          6           0       19.071131    7.168199    0.890746
    111          7           0       18.555236    0.475451    0.986029
    112          6           0       19.560138    1.346925    1.337754
    113          6           0       20.577310    0.630502    1.998723
    114          6           0       20.253414   -0.674347    1.996672
    115          6           0       18.989976   -0.772770    1.338768
    116          6           0       21.762050    1.346721    2.633827
    117          6           0       20.625141   -2.057172    2.312725
    118          8           0       21.617155   -2.502620    2.829540
    119          6           0       19.426913   -3.024501    1.868388
    120          6           0       19.919219   -3.837622    0.713905
    121          8           0       19.936402   -3.620493   -0.476724
    122          8           0       20.356089   -5.018723    1.280271
    123          6           0       20.890589   -6.049924    0.359304
    124          1           0       13.386358   -1.920353   -1.227753
    125          1           0       15.041209    4.081138   -2.239578
    126          1           0       20.257457    3.494893    1.332758
    127          1           0       17.248209   -4.402156   -0.113794
    128          1           0       14.431051   -3.911358    0.651033
    129          1           0       13.990577   -4.677009   -1.457702
    130          1           0       15.704647   -5.036326   -1.722668
    131          1           0       14.982684   -3.532597   -2.219250
    132          1           0       16.306167   -3.955193    2.686085
    133          1           0       17.556948   -5.061176    2.437151
    134          1           0       15.167100   -5.985535    1.026900
    135          1           0       15.111650   -5.979373    2.860778
    136          1           0       10.978850    0.469582   -1.912604
    137          1           0       11.762270   -1.159512   -2.248813
    138          1           0       11.429618   -0.029549   -3.534979
    139          1           0       10.503257    2.742829   -3.244743
    140          1           0       11.641515    1.787593   -4.453661
    141          1           0       11.476535    3.316075   -4.685507
    142          1           0       16.700955    5.660078   -0.424737
    143          1           0       19.478678    4.848296   -0.678493
    144          1           0       18.798775    5.797516   -2.575298
    145          1           0       17.287255    6.566979   -2.480312
    146          1           0       17.452129    4.964689   -3.286827
    147          1           0       19.328543    5.308973    1.903389
    148          1           0       17.613732    5.660278    1.618614
    149          1           0       19.629213    7.204358   -0.045050
    150          1           0       19.655966    7.480405    1.755880
    151          1           0       18.252555    7.871414    0.734486
    152          1           0       22.172700    0.770552    3.463054
    153          1           0       21.442354    2.339824    2.949652
    154          1           0       22.521890    1.562459    1.882366
    155          1           0       19.082371   -3.646164    2.695123
    156          1           0       21.749851   -6.480628    0.873218
    157          1           0       21.198610   -5.667080   -0.613544
    158          1           0       20.028077   -6.716234    0.325124
 ---------------------------------------------------------------------

 SCF Done:  E(RPBE1PBE) =  -4067.39128228     A.U. after   16 cycles

 Excitation energies and oscillator strengths:

 Excited State   1:      Singlet-A      1.8599 eV  666.61 nm  f=0.3916  <S**2>=0.000
     310 -> 316       -0.16524
     311 -> 313        0.13079
     312 -> 314        0.68091
     312 <- 314       -0.10633
 This state for optimization and/or second-order correction.
 Total Energy, E(TD-HF/TD-DFT) =  -4067.32293108
 Copying the excited state density for this state as the 1-particle RhoCI density.

 Excited State   2:      Singlet-A      1.8656 eV  664.58 nm  f=0.3630  <S**2>=0.000
     309 -> 315        0.16716
     311 -> 313        0.67923
     312 -> 314       -0.13097
     311 <- 313       -0.10713

 Excited State   3:      Singlet-A      1.9271 eV  643.38 nm  f=0.0000  <S**2>=0.000
     312 -> 313        0.70710

 Excited State   4:      Singlet-A      2.0094 eV  617.03 nm  f=0.0000  <S**2>=0.000
     311 -> 314        0.70710

 Excited State   5:      Singlet-A      2.2251 eV  557.22 nm  f=0.1309  <S**2>=0.000
     309 -> 313        0.65909
     311 -> 315       -0.23851

 The electronic state is 1-A.
 Alpha  occ. eigenvalues --  -46.91976 -46.90966 -19.24705 -19.24479 -19.20066
 Alpha  occ. eigenvalues --  -19.19277 -19.19159 -19.18540 -19.18534 -19.18199
 Alpha  occ. eigenvalues --  -14.41690 -14.41498 -14.41435 -14.40858 -14.39262
 Alpha  occ. eigenvalues --  -14.39217 -14.38504 -14.38089 -10.35921 -10.35559
 Alpha  occ. eigenvalues --  -10.32396 -10.31882 -10.31618 -10.31386 -10.29252
 Alpha  occ. eigenvalues --  -10.28770 -10.28660 -10.28611 -10.28593 -10.28396
 Alpha  occ. eigenvalues --  -10.28284 -10.28174 -10.28101 -10.27947 -10.27846
 Alpha  occ. eigenvalues --  -10.27820 -10.27809 -10.27711 -10.26855 -10.26781
 Alpha  occ. eigenvalues --  -10.26724 -10.26673 -10.26429 -10.26418 -10.26316
 Alpha  occ. eigenvalues --  -10.26180 -10.26008 -10.26000 -10.25989 -10.25666
 Alpha  occ. eigenvalues --  -10.25496 -10.25486 -10.25344 -10.25330 -10.25278
 Alpha  occ. eigenvalues --  -10.25140 -10.24985 -10.24945 -10.24861 -10.24746
 Alpha  occ. eigenvalues --  -10.24696 -10.24685 -10.24576 -10.24514 -10.24421
 Alpha  occ. eigenvalues --  -10.24417 -10.24412 -10.24382 -10.24381 -10.24369
 Alpha  occ. eigenvalues --  -10.24344 -10.24296 -10.23804 -10.23640 -10.23526
 Alpha  occ. eigenvalues --  -10.23491 -10.23442 -10.23376 -10.23249 -10.23187
 Alpha  occ. eigenvalues --  -10.23006 -10.23005 -10.23000 -10.22929 -10.22446
 Alpha  occ. eigenvalues --  -10.22380  -3.14098  -3.13259  -1.86935  -1.86453
 Alpha  occ. eigenvalues --   -1.86345  -1.86111  -1.85637  -1.85486  -1.10392
 Alpha  occ. eigenvalues --   -1.09904  -1.06118  -1.05511  -1.04357  -1.02633
 Alpha  occ. eigenvalues --   -1.02237  -0.99906  -0.99559  -0.98792  -0.98456
 Alpha  occ. eigenvalues --   -0.97979  -0.97895  -0.97116  -0.96904  -0.96189
 Alpha  occ. eigenvalues --   -0.87516  -0.87335  -0.83303  -0.83211  -0.82760
 Alpha  occ. eigenvalues --   -0.82640  -0.82524  -0.82292  -0.81865  -0.81471
 Alpha  occ. eigenvalues --   -0.81357  -0.81178  -0.80489  -0.80362  -0.78658
 Alpha  occ. eigenvalues --   -0.78180  -0.77967  -0.77451  -0.77005  -0.76739
 Alpha  occ. eigenvalues --   -0.76431  -0.76212  -0.75331  -0.75031  -0.74904
 Alpha  occ. eigenvalues --   -0.74413  -0.72914  -0.72416  -0.71857  -0.71280
 Alpha  occ. eigenvalues --   -0.71170  -0.70912  -0.70542  -0.69831  -0.69678
 Alpha  occ. eigenvalues --   -0.69189  -0.67587  -0.67194  -0.65807  -0.65721
 Alpha  occ. eigenvalues --   -0.64522  -0.63948  -0.63156  -0.63113  -0.62470
 Alpha  occ. eigenvalues --   -0.62179  -0.61534  -0.61425  -0.59704  -0.59530
 Alpha  occ. eigenvalues --   -0.59514  -0.59243  -0.59126  -0.58940  -0.58800
 Alpha  occ. eigenvalues --   -0.58446  -0.56105  -0.56001  -0.54619  -0.54523
 Alpha  occ. eigenvalues --   -0.54208  -0.54058  -0.53749  -0.53343  -0.53295
 Alpha  occ. eigenvalues --   -0.52654  -0.52481  -0.52280  -0.51868  -0.51515
 Alpha  occ. eigenvalues --   -0.50802  -0.50689  -0.50149  -0.50145  -0.49579
 Alpha  occ. eigenvalues --   -0.49495  -0.49004  -0.48952  -0.48808  -0.48508
 Alpha  occ. eigenvalues --   -0.48430  -0.48254  -0.47862  -0.47290  -0.47290
 Alpha  occ. eigenvalues --   -0.47130  -0.47047  -0.46939  -0.46619  -0.46538
 Alpha  occ. eigenvalues --   -0.46512  -0.46230  -0.45908  -0.45694  -0.45460
 Alpha  occ. eigenvalues --   -0.45438  -0.45115  -0.44990  -0.44824  -0.44817
 Alpha  occ. eigenvalues --   -0.44413  -0.44375  -0.44231  -0.44226  -0.44046
 Alpha  occ. eigenvalues --   -0.44028  -0.43747  -0.43633  -0.43472  -0.43392
 Alpha  occ. eigenvalues --   -0.43072  -0.43064  -0.42839  -0.42640  -0.42634
 Alpha  occ. eigenvalues --   -0.42470  -0.42446  -0.42400  -0.41922  -0.41754
 Alpha  occ. eigenvalues --   -0.41462  -0.41413  -0.41211  -0.41019  -0.41005
 Alpha  occ. eigenvalues --   -0.40809  -0.40573  -0.40458  -0.40394  -0.40213
 Alpha  occ. eigenvalues --   -0.40205  -0.40105  -0.39979  -0.39951  -0.39908
 Alpha  occ. eigenvalues --   -0.39761  -0.39618  -0.39616  -0.39477  -0.39074
 Alpha  occ. eigenvalues --   -0.38814  -0.38720  -0.38632  -0.38607  -0.38573
 Alpha  occ. eigenvalues --   -0.38269  -0.38210  -0.37998  -0.37795  -0.37696
 Alpha  occ. eigenvalues --   -0.37619  -0.37415  -0.37379  -0.36912  -0.36714
 Alpha  occ. eigenvalues --   -0.36478  -0.36431  -0.36283  -0.36027  -0.35924
 Alpha  occ. eigenvalues --   -0.35772  -0.35667  -0.35607  -0.35355  -0.35204
 Alpha  occ. eigenvalues --   -0.34833  -0.34631  -0.34339  -0.33852  -0.33774
 Alpha  occ. eigenvalues --   -0.33254  -0.33089  -0.32867  -0.32762  -0.32066
 Alpha  occ. eigenvalues --   -0.31945  -0.31620  -0.31505  -0.31482  -0.31415
 Alpha  occ. eigenvalues --   -0.30646  -0.30551  -0.29561  -0.29390  -0.29113
 Alpha  occ. eigenvalues --   -0.28811  -0.28245  -0.27597  -0.26855  -0.26692
 Alpha  occ. eigenvalues --   -0.25762  -0.25742  -0.25664  -0.25470  -0.25341
 Alpha  occ. eigenvalues --   -0.25234  -0.25049  -0.24922  -0.20642  -0.20556
 Alpha  occ. eigenvalues --   -0.18736  -0.18584
 Alpha virt. eigenvalues --   -0.11114  -0.10962  -0.04909  -0.04707  -0.03544
 Alpha virt. eigenvalues --   -0.03297  -0.02060  -0.01760  -0.00223   0.00582
 Alpha virt. eigenvalues --    0.00807   0.00832   0.01404   0.01419   0.01897

 Mulliken charges:
               1
     1  Mg  12.000017
     2  C    6.003350
     3  C    5.997463
     4  C    5.996755
     5  C    5.999227
     6  N    7.000973
     7  C    5.995098
     8  C    6.002172
     9  C    5.998950
    10  C    6.004802
    11  C    5.999628
    12  C    6.000713
    13  C    6.000404
    14  H    0.998775
    15  N    6.999145
    16  C    6.007516
    17  C    6.005680
    18  C    6.001134
    19  C    6.006156
    20  C    5.998907
    21  C    6.002195
    22  O    8.004729
    23  C    5.999195
    24  N    6.998356
    25  C    6.007126
    26  C    5.997272
    27  C    6.002422
    28  C    5.993807
    29  C    6.000183
    30  C    6.000699
    31  C    6.000326
    32  N    7.000614
    33  C    5.995439
    34  C    5.994570
    35  C    5.999156
    36  C    5.994967
    37  C    6.000353
    38  C    5.997217
    39  O    7.994670
    40  C    5.999166
    41  C    5.999850
    42  O    7.998095
    43  O    8.000223
    44  C    6.000362
    45  H    1.001901
    46  H    1.001585
    47  H    0.997513
    48  H    0.999351
    49  H    1.000145
    50  H    0.999349
    51  H    0.999917
    52  H    1.002275
    53  H    0.998412
    54  H    0.999821
    55  H    1.000860
    56  H    1.000130
    57  H    1.003870
    58  H    1.003732
    59  H    1.004106
    60  H    1.000698
    61  H    1.002584
    62  H    1.001244
    63  H    0.999958
    64  H    0.999959
    65  H    1.000005
    66  H    0.999536
    67  H    1.001903
    68  H    0.997796
    69  H    1.000265
    70  H    1.000119
    71  H    0.998373
    72  H    1.000147
    73  H    0.996711
    74  H    0.996636
    75  H    0.996992
    76  H    0.998366
    77  H    0.999410
    78  H    0.999532
    79  H    0.998944
    80  Mg  11.998894
    81  C    6.023215
    82  C    5.994720
    83  C    5.983619
    84  C    6.007643
    85  N    7.010026
    86  C    5.970186
    87  C    6.014987
    88  C    5.986993
    89  C    6.026429
    90  C    5.999667
    91  C    6.002669
    92  C    5.998360
    93  H    1.000350
    94  N    6.995605
    95  C    6.037494
    96  C    6.016506
    97  C    6.017733
    98  C    6.027444
    99  C    5.995715
   100  C    6.014638
   101  O    8.028899
   102  C    5.991545
   103  N    6.998017
   104  C    6.031991
   105  C    5.988667
   106  C    6.009127
   107  C    5.970892
   108  C    5.999487
   109  C    6.006378
   110  C    5.998110
   111  N    7.000464
   112  C    5.969506
   113  C    5.972382
   114  C    5.999960
   115  C    5.962311
   116  C    6.000559
   117  C    5.981274
   118  O    7.971731
   119  C    5.994575
   120  C    6.000112
   121  O    7.991669
   122  O    7.999135
   123  C    6.001736
   124  H    1.009487
   125  H    1.004363
   126  H    0.989390
   127  H    0.995593
   128  H    1.004221
   129  H    1.000129
   130  H    1.011145
   131  H    0.994468
   132  H    0.998361
   133  H    1.004871
   134  H    0.993267
   135  H    0.997854
   136  H    1.016388
   137  H    1.016694
   138  H    1.018189
   139  H    1.010379
   140  H    1.006713
   141  H    1.014089
   142  H    0.999897
   143  H    1.000448
   144  H    1.008401
   145  H    1.000555
   146  H    0.995428
   147  H    1.005231
   148  H    0.991463
   149  H    0.997277
   150  H    0.999948
   151  H    0.993316
   152  H    0.986425
   153  H    0.983968
   154  H    0.980391
   155  H    0.991844
   156  H    0.997513
   157  H    0.996878
   158  H    0.993994
 Sum of Mulliken charges = 624.00000

 Dipole moment (field-independent basis, Debye):
    X=             -9.8234    Y=              1.9217    Z=             -3.2952  Tot=             10.5380
 Quadrupole moment (field-independent basis, Debye-Ang):
   XX=           -262.9894   YY=             -2.4942   ZZ=              3.4234
   XY=             13.4852   XZ=           -110.3801   YZ=             -3.6892

 Normal termination of Gaussian 16 at Thu Oct 14 03:37:48 2021.
