 Gaussian 16, Revision A.03,
 Gaussian 16:  ES64L-G16RevA.03 25-Dec-2016

 --------------------------------------------------------
 #p PBE1PBE/Def2SVP td=(nstates=5) density=(transition=1)
 --------------------------------------------------------

 --------------------------------
 TDDFT excited states in gaussian
 --------------------------------
 Symbolic Z-matrix:
 Charge =  0 Multiplicity = 1

                         Standard orientation:
 ---------------------------------------------------------------------
 Center     Atomic      Atomic             Coordinates (Angstroms)
 Number     Number       Type             X           Y           Z
 ---------------------------------------------------------------------
      1         12           0        4.910945   -0.610913    0.000328
      2          6           0        2.892342    2.079873   -1.078929
      3          6           0        7.535284    1.380803    0.143002
      4          6           0        6.862382   -3.411797    0.140943
      5          6           0        2.200024   -2.812238   -1.216335
      6          7           0        5.148521    1.497133   -0.489660
      7          6           0        4.180892    2.420571   -0.663562
      8          6           0        4.790319    3.827041   -0.502280
      9          6           0        6.213746    3.607702   -0.100923
     10          6           0        6.359164    2.057837   -0.181109
     11          6           0        7.230559    4.508035   -0.915032
     12          6           0        4.041199    4.866756    0.396705
     13          6           0        4.810073    5.933399    1.288397
     14          1           0        4.308551    7.384913    1.288884
     15          7           0        6.900999   -0.930521    0.372604
     16          6           0        7.850660    0.065648    0.401798
     17          6           0        9.108161   -0.541320    0.734026
     18          6           0        8.984557   -1.985154    0.710636
     19          6           0        7.560918   -2.162263    0.348696
     20          6           0       10.286786    0.334920    0.871117
     21          6           0       10.012598   -3.094677    1.043098
     22          8           0        9.718909   -4.237817    0.918695
     23          6           0       11.282567   -2.759063    1.754924
     24          7           0        4.555811   -2.801987   -0.537981
     25          6           0        5.532525   -3.685017   -0.231223
     26          6           0        5.089034   -5.161655   -0.482891
     27          6           0        3.589897   -4.997162   -0.879166
     28          6           0        3.400322   -3.460242   -0.906463
     29          6           0        5.875664   -5.909566   -1.526288
     30          6           0        2.505735   -5.678138    0.027398
     31          6           0        2.133674   -5.039291    1.322590
     32          7           0        2.936016   -0.527375   -0.937610
     33          6           0        2.007264   -1.464867   -1.288333
     34          6           0        0.791796   -0.803391   -1.695947
     35          6           0        1.053158    0.591213   -1.646253
     36          6           0        2.392829    0.700003   -1.221202
     37          6           0       -0.439327   -1.422884   -2.256962
     38          6           0        0.531602    1.905236   -1.892675
     39          8           0       -0.562661    2.322673   -2.254066
     40          6           0        1.680427    2.935051   -1.490129
     41          6           0        1.940278    3.982387   -2.559746
     42          8           0        2.377383    3.731262   -3.653097
     43          8           0        1.638996    5.236330   -2.052475
     44          6           0        1.824461    6.313168   -3.025809
     45          1           0        8.402573    1.987827    0.412373
     46          1           0        7.540547   -4.259823    0.254349
     47          1           0        1.359083   -3.458373   -1.476320
     48          1           0        4.660052    4.169830   -1.528754
     49          1           0        6.322687    3.966251    0.923007
     50          1           0        6.674717    5.221928   -1.522676
     51          1           0        7.920183    3.840256   -1.431283
     52          1           0        7.788023    5.171611   -0.253711
     53          1           0        3.425659    4.290747    1.088101
     54          1           0        3.319065    5.451130   -0.174098
     55          1           0        5.837241    5.895393    0.925104
     56          1           0        4.825529    5.585266    2.321262
     57          1           0       11.122069   -0.235184    0.465067
     58          1           0       10.462962    0.466257    1.938082
     59          1           0       10.319763    1.332051    0.431778
     60          1           0       11.971971   -2.592651    0.928230
     61          1           0       11.514697   -3.555624    2.462485
     62          1           0       11.275971   -1.809232    2.290054
     63          1           0        5.054005   -5.738169    0.441722
     64          1           0        3.269237   -5.247280   -1.889975
     65          1           0        6.774489   -5.363552   -1.815720
     66          1           0        5.311060   -6.046960   -2.448863
     67          1           0        6.138834   -6.861317   -1.065424
     68          1           0        2.813393   -6.697043    0.262764
     69          1           0        1.634249   -5.877535   -0.596594
     70          1           0        2.945248   -4.395085    1.661442
     71          1           0        1.950648   -5.638616    2.214727
     72          1           0        1.190470   -4.530255    1.121698
     73          1           0       -0.288407   -1.994281   -3.172385
     74          1           0       -1.006334   -0.595550   -2.684452
     75          1           0       -0.985449   -1.992877   -1.504815
     76          1           0        1.339086    3.410138   -0.570192
     77          1           0        2.666176    6.694398   -2.448470
     78          1           0        0.914029    6.902810   -2.921031
     79          1           0        2.044251    5.951680   -4.030590
     80         12           0       -4.869138   -0.739473    0.218398
     81          6           0       -2.976548    2.214423    0.772312
     82          6           0       -7.619515    1.417768   -0.323591
     83          6           0       -6.805168   -3.359575    0.041802
     84          6           0       -2.077310   -2.625930    1.080702
     85          7           0       -5.264043    1.603044    0.233071
     86          6           0       -4.271747    2.539265    0.390968
     87          6           0       -4.748936    3.962224    0.154730
     88          6           0       -6.293559    3.667016   -0.071624
     89          6           0       -6.413429    2.135461   -0.097064
     90          6           0       -7.148863    4.422498    0.941251
     91          6           0       -4.051635    4.575496   -1.079447
     92          6           0       -3.690560    6.109648   -1.056525
     93          1           0       -4.442653    7.020293   -0.057579
     94          7           0       -6.923339   -0.961637   -0.174895
     95          6           0       -7.878686    0.049195   -0.284608
     96          6           0       -9.184119   -0.582344   -0.534241
     97          6           0       -8.931394   -1.992942   -0.527532
     98          6           0       -7.487569   -2.122685   -0.252656
     99          6           0      -10.407689    0.157343   -0.653518
    100          6           0       -9.920315   -3.135976   -0.733118
    101          8           0       -9.567452   -4.318726   -0.601443
    102          6           0      -11.275130   -2.876713   -1.264696
    103          7           0       -4.516838   -2.712539    0.621166
    104          6           0       -5.462780   -3.622134    0.372719
    105          6           0       -4.960186   -5.062914    0.712469
    106          6           0       -3.421962   -4.829355    0.847569
    107          6           0       -3.292793   -3.338626    0.874952
    108          6           0       -5.671181   -5.721491    1.949086
    109          6           0       -2.796190   -5.434521   -0.466735
    110          6           0       -2.534807   -4.519731   -1.712611
    111          7           0       -2.900409   -0.352706    0.706278
    112          6           0       -1.874782   -1.251540    1.051086
    113          6           0       -0.671006   -0.464384    1.416713
    114          6           0       -1.096110    0.858149    1.369679
    115          6           0       -2.397550    0.932878    0.920384
    116          6           0        0.482169   -1.119835    2.009163
    117          6           0       -0.652871    2.205092    1.720862
    118          8           0        0.419187    2.541531    2.210964
    119          6           0       -1.880359    3.170282    1.369434
    120          6           0       -2.324207    3.930644    2.562991
    121          8           0       -3.225924    3.610676    3.332178
    122          8           0       -1.554478    5.104357    2.670680
    123          6           0       -1.722802    6.019949    3.776429
    124          1           0       -8.448330    1.994117   -0.740885
    125          1           0       -7.391670   -4.278863   -0.022499
    126          1           0       -1.263906   -3.323889    1.288295
    127          1           0       -4.584089    4.609290    1.016647
    128          1           0       -6.551567    4.146249   -1.015617
    129          1           0       -7.915323    5.064118    0.507969
    130          1           0       -6.610071    5.041457    1.658713
    131          1           0       -7.723145    3.668078    1.480620
    132          1           0       -4.638046    4.402260   -1.981704
    133          1           0       -3.161175    3.948118   -1.132204
    134          1           0       -3.935213    6.569810   -2.013280
    135          1           0       -2.601136    6.142559   -1.068740
    136          1           0      -10.869408   -0.167743   -1.586070
    137          1           0      -10.245508    1.215407   -0.450123
    138          1           0      -10.923139   -0.182793    0.245212
    139          1           0      -11.941410   -2.399413   -0.545481
    140          1           0      -11.749071   -3.823847   -1.521705
    141          1           0      -11.179865   -2.141317   -2.063062
    142          1           0       -5.287329   -5.556514   -0.202676
    143          1           0       -3.002689   -5.365707    1.699197
    144          1           0       -6.482081   -6.367567    1.612481
    145          1           0       -5.960463   -4.907073    2.612484
    146          1           0       -4.907157   -6.317949    2.447410
    147          1           0       -3.291501   -6.377651   -0.698421
    148          1           0       -1.753340   -5.588437   -0.187879
    149          1           0       -2.883882   -5.128796   -2.545946
    150          1           0       -1.476998   -4.305854   -1.870912
    151          1           0       -3.091628   -3.583946   -1.747049
    152          1           0        0.135488   -1.773414    2.808614
    153          1           0        1.088879   -0.331038    2.455067
    154          1           0        1.129478   -1.542634    1.241310
    155          1           0       -1.452214    3.861101    0.642438
    156          1           0       -1.008276    5.859825    4.583473
    157          1           0       -2.774495    6.139678    4.037073
    158          1           0       -1.545666    6.972157    3.275590
 ---------------------------------------------------------------------

 SCF Done:  E(RPBE1PBE) =  -4067.36879418     A.U. after   16 cycles

 Excitation energies and oscillator strengths:

 Excited State   1:      Singlet-A      1.5261 eV  812.41 nm  f=0.0472  <S**2>=0.000
     312 -> 313        0.69199
     312 -> 314        0.11240
 This state for optimization and/or second-order correction.
 Total Energy, E(TD-HF/TD-DFT) =  -4067.31271018
 Copying the excited state density for this state as the 1-particle RhoCI density.

 Excited State   2:      Singlet-A      1.7663 eV  701.96 nm  f=0.4282  <S**2>=0.000
     311 -> 313        0.52796
     311 -> 314       -0.31389
     312 -> 313        0.10452
     312 -> 314       -0.32225

 Excited State   3:      Singlet-A      1.8629 eV  665.55 nm  f=0.4312  <S**2>=0.000
     311 -> 313        0.16089
     311 -> 314        0.61213
     312 -> 314       -0.28322

 Excited State   4:      Singlet-A      1.8976 eV  653.37 nm  f=0.0058  <S**2>=0.000
     309 -> 315        0.12530
     310 -> 316        0.13395
     311 -> 313        0.41228
     311 -> 314        0.14525
     312 -> 314        0.52998

 Excited State   5:      Singlet-A      2.1501 eV  576.64 nm  f=0.0108  <S**2>=0.000
     309 -> 313        0.21999
     310 -> 313        0.62988
     310 -> 314       -0.10354
     311 -> 315       -0.11811
     311 -> 316       -0.10363

 The electronic state is 1-A.
 Alpha  occ. eigenvalues --  -46.93156 -46.91556 -19.25358 -19.24412 -19.20129
 Alpha  occ. eigenvalues --  -19.19789 -19.19584 -19.19535 -19.19002 -19.18558
 Alpha  occ. eigenvalues --  -14.41493 -14.41084 -14.41029 -14.40710 -14.38926
 Alpha  occ. eigenvalues --  -14.38881 -14.38345 -14.38322 -10.36149 -10.35983
 Alpha  occ. eigenvalues --  -10.32614 -10.32460 -10.32001 -10.31924 -10.29034
 Alpha  occ. eigenvalues --  -10.28569 -10.28485 -10.28482 -10.28370 -10.28262
 Alpha  occ. eigenvalues --  -10.28254 -10.28157 -10.28087 -10.27769 -10.27650
 Alpha  occ. eigenvalues --  -10.27561 -10.27438 -10.26838 -10.26824 -10.26592
 Alpha  occ. eigenvalues --  -10.26560 -10.26202 -10.26083 -10.26065 -10.26052
 Alpha  occ. eigenvalues --  -10.26051 -10.25802 -10.25764 -10.25469 -10.25415
 Alpha  occ. eigenvalues --  -10.25405 -10.25356 -10.25219 -10.25172 -10.25090
 Alpha  occ. eigenvalues --  -10.25026 -10.25014 -10.24879 -10.24737 -10.24635
 Alpha  occ. eigenvalues --  -10.24621 -10.24513 -10.24473 -10.24393 -10.24226
 Alpha  occ. eigenvalues --  -10.24225 -10.24116 -10.24080 -10.23897 -10.23794
 Alpha  occ. eigenvalues --  -10.23734 -10.23718 -10.23687 -10.23640 -10.23461
 Alpha  occ. eigenvalues --  -10.23424 -10.23137 -10.22916 -10.22839 -10.22603
 Alpha  occ. eigenvalues --  -10.22500 -10.22429 -10.22338 -10.22335 -10.22275
 Alpha  occ. eigenvalues --  -10.22164  -3.15051  -3.13679  -1.87859  -1.87433
 Alpha  occ. eigenvalues --   -1.87264  -1.86527  -1.86068  -1.85890  -1.10968
 Alpha  occ. eigenvalues --   -1.09129  -1.07430  -1.04416  -1.04020  -1.03518
 Alpha  occ. eigenvalues --   -1.03289  -1.01789  -0.98911  -0.98550  -0.98219
 Alpha  occ. eigenvalues --   -0.97609  -0.97517  -0.96942  -0.96295  -0.95808
 Alpha  occ. eigenvalues --   -0.85960  -0.85732  -0.83669  -0.83155  -0.83104
 Alpha  occ. eigenvalues --   -0.82671  -0.82376  -0.82297  -0.81518  -0.81252
 Alpha  occ. eigenvalues --   -0.81218  -0.80868  -0.80344  -0.80111  -0.78225
 Alpha  occ. eigenvalues --   -0.77926  -0.77694  -0.77397  -0.76531  -0.76397
 Alpha  occ. eigenvalues --   -0.76019  -0.75959  -0.74913  -0.74797  -0.74544
 Alpha  occ. eigenvalues --   -0.74490  -0.72800  -0.72380  -0.71394  -0.71331
 Alpha  occ. eigenvalues --   -0.71014  -0.70776  -0.69974  -0.69741  -0.68872
 Alpha  occ. eigenvalues --   -0.68832  -0.66563  -0.66284  -0.65660  -0.65462
 Alpha  occ. eigenvalues --   -0.63925  -0.63623  -0.63479  -0.62745  -0.62459
 Alpha  occ. eigenvalues --   -0.61945  -0.61125  -0.60703  -0.59260  -0.59037
 Alpha  occ. eigenvalues --   -0.58828  -0.58728  -0.58699  -0.58483  -0.58388
 Alpha  occ. eigenvalues --   -0.58101  -0.56162  -0.55865  -0.54492  -0.54355
 Alpha  occ. eigenvalues --   -0.53821  -0.53573  -0.53175  -0.53135  -0.52747
 Alpha  occ. eigenvalues --   -0.52391  -0.52313  -0.52122  -0.51783  -0.51393
 Alpha  occ. eigenvalues --   -0.50555  -0.50364  -0.50292  -0.49729  -0.49724
 Alpha  occ. eigenvalues --   -0.49548  -0.49489  -0.48933  -0.48713  -0.48555
 Alpha  occ. eigenvalues --   -0.48200  -0.47965  -0.47904  -0.47594  -0.47482
 Alpha  occ. eigenvalues --   -0.47349  -0.47335  -0.47095  -0.47056  -0.46829
 Alpha  occ. eigenvalues --   -0.46311  -0.46039  -0.45809  -0.45631  -0.45530
 Alpha  occ. eigenvalues --   -0.45350  -0.45212  -0.44910  -0.44899  -0.44652
 Alpha  occ. eigenvalues --   -0.44579  -0.44423  -0.44122  -0.44068  -0.43879
 Alpha  occ. eigenvalues --   -0.43812  -0.43738  -0.43572  -0.43471  -0.43247
 Alpha  occ. eigenvalues --   -0.43092  -0.42972  -0.42870  -0.42760  -0.42623
 Alpha  occ. eigenvalues --   -0.42369  -0.42185  -0.42000  -0.41792  -0.41718
 Alpha  occ. eigenvalues --   -0.41648  -0.41410  -0.41156  -0.40984  -0.40611
 Alpha  occ. eigenvalues --   -0.40585  -0.40443  -0.40293  -0.40163  -0.40066
 Alpha  occ. eigenvalues --   -0.39967  -0.39454  -0.39310  -0.39192  -0.39084
 Alpha  occ. eigenvalues --   -0.38972  -0.38897  -0.38685  -0.38574  -0.38488
 Alpha  occ. eigenvalues --   -0.38442  -0.38235  -0.38173  -0.38052  -0.37965
 Alpha  occ. eigenvalues --   -0.37913  -0.37776  -0.37650  -0.37541  -0.37294
 Alpha  occ. eigenvalues --   -0.37238  -0.37056  -0.37051  -0.36751  -0.36465
 Alpha  occ. eigenvalues --   -0.36420  -0.36304  -0.35978  -0.35856  -0.35710
 Alpha  occ. eigenvalues --   -0.35496  -0.35219  -0.35198  -0.35033  -0.34940
 Alpha  occ. eigenvalues --   -0.34708  -0.33964  -0.33726  -0.33710  -0.32899
 Alpha  occ. eigenvalues --   -0.32810  -0.32487  -0.32428  -0.32169  -0.32040
 Alpha  occ. eigenvalues --   -0.31776  -0.31681  -0.31362  -0.30804  -0.30757
 Alpha  occ. eigenvalues --   -0.30507  -0.30373  -0.29374  -0.28938  -0.28748
 Alpha  occ. eigenvalues --   -0.28652  -0.28525  -0.28363  -0.26374  -0.26355
 Alpha  occ. eigenvalues --   -0.26196  -0.25686  -0.25598  -0.25524  -0.25445
 Alpha  occ. eigenvalues --   -0.25180  -0.25019  -0.24315  -0.20568  -0.20393
 Alpha  occ. eigenvalues --   -0.18509  -0.18075
 Alpha virt. eigenvalues --   -0.10959  -0.10310  -0.05005  -0.04761  -0.03991
 Alpha virt. eigenvalues --   -0.03379  -0.02051  -0.01607  -0.01309   0.00564
 Alpha virt. eigenvalues --    0.00705   0.01040   0.01124   0.01550   0.01914

 Mulliken charges:
               1
     1  Mg  12.000836
     2  C    6.004274
     3  C    6.002196
     4  C    5.998348
     5  C    6.000391
     6  N    7.003173
     7  C    5.996876
     8  C    6.000509
     9  C    5.998928
    10  C    6.001625
    11  C    5.999803
    12  C    5.999640
    13  C    5.999407
    14  H    1.001989
    15  N    6.999145
    16  C    6.002528
    17  C    6.002910
    18  C    6.001676
    19  C    6.003303
    20  C    5.999007
    21  C    6.001776
    22  O    8.003021
    23  C    5.999409
    24  N    6.998907
    25  C    6.003376
    26  C    5.998764
    27  C    6.000136
    28  C    5.998309
    29  C    5.999705
    30  C    6.000046
    31  C    5.999990
    32  N    7.000178
    33  C    5.996476
    34  C    5.998292
    35  C    6.000040
    36  C    5.997024
    37  C    5.999237
    38  C    6.001768
    39  O    8.005179
    40  C    5.998932
    41  C    6.000229
    42  O    8.000581
    43  O    8.000194
    44  C    5.999914
    45  H    1.002301
    46  H    1.001100
    47  H    0.999959
    48  H    1.000869
    49  H    1.001125
    50  H    1.001679
    51  H    1.000030
    52  H    1.001097
    53  H    1.000216
    54  H    1.000943
    55  H    0.999631
    56  H    1.000265
    57  H    1.002381
    58  H    1.002635
    59  H    1.002166
    60  H    1.001247
    61  H    1.001952
    62  H    1.000488
    63  H    1.000801
    64  H    1.000922
    65  H    0.999485
    66  H    1.001350
    67  H    1.000815
    68  H    0.999991
    69  H    1.001156
    70  H    0.998607
    71  H    1.000529
    72  H    1.000675
    73  H    1.001288
    74  H    1.000157
    75  H    0.998795
    76  H    1.000732
    77  H    0.999746
    78  H    1.001154
    79  H    1.000432
    80  Mg  11.998279
    81  C    5.998198
    82  C    5.998863
    83  C    6.003590
    84  C    6.000291
    85  N    6.999113
    86  C    6.000043
    87  C    5.998625
    88  C    6.002552
    89  C    5.994760
    90  C    6.000374
    91  C    5.999660
    92  C    6.000408
    93  H    1.000003
    94  N    7.001265
    95  C    5.994103
    96  C    5.996883
    97  C    5.997482
    98  C    5.995048
    99  C    6.000713
   100  C    5.997652
   101  O    7.995384
   102  C    6.000920
   103  N    7.002100
   104  C    5.993751
   105  C    6.000830
   106  C    6.000178
   107  C    5.999563
   108  C    6.000456
   109  C    6.000140
   110  C    5.999501
   111  N    7.001260
   112  C    6.001423
   113  C    6.007790
   114  C    5.999524
   115  C    5.999956
   116  C    5.998644
   117  C    6.002047
   118  O    8.001853
   119  C    5.999935
   120  C    6.000417
   121  O    8.001621
   122  O    7.999535
   123  C    5.999730
   124  H    0.996857
   125  H    0.998624
   126  H    0.999357
   127  H    0.998423
   128  H    0.997962
   129  H    0.998580
   130  H    0.997227
   131  H    1.000207
   132  H    1.000616
   133  H    0.998859
   134  H    0.999608
   135  H    0.998188
   136  H    0.996844
   137  H    0.997576
   138  H    0.996886
   139  H    0.998352
   140  H    0.997252
   141  H    0.999069
   142  H    0.999495
   143  H    0.998464
   144  H    0.999603
   145  H    0.999649
   146  H    0.997706
   147  H    1.000089
   148  H    0.998404
   149  H    1.000424
   150  H    0.998468
   151  H    1.001067
   152  H    1.003620
   153  H    1.000920
   154  H    1.002391
   155  H    0.999595
   156  H    0.999431
   157  H    1.000932
   158  H    1.000026
 Sum of Mulliken charges = 624.00000

 Dipole moment (field-independent basis, Debye):
    X=              4.0188    Y=              0.2899    Z=              0.2752  Tot=              4.0386
 Quadrupole moment (field-independent basis, Debye-Ang):
   XX=             -6.0984   YY=             -0.3539   ZZ=              0.5475
   XY=             -2.6807   XZ=              0.0812   YZ=             -0.4659

 Normal termination of Gaussian 16 at Thu Oct 14 08:43:31 2021.
