 Gaussian 16, Revision A.03,
 Gaussian 16:  ES64L-G16RevA.03 25-Dec-2016

 --------------------------------------------------------
 #p PBE1PBE/Def2SVP td=(nstates=5) density=(transition=1)
 --------------------------------------------------------

 --------------------------------
 TDDFT excited states in gaussian
 --------------------------------
 Symbolic Z-matrix:
 Charge =  0 Multiplicity = 1

                         Standard orientation:
 ---------------------------------------------------------------------
 Center     Atomic      Atomic             Coordinates (Angstroms)
 Number     Number       Type             X           Y           Z
 ---------------------------------------------------------------------
      1         12           0      -17.806490   -0.818915    0.066593
      2          6           0      -17.487004    2.661887   -0.562819
      3          6           0      -16.739313   -0.073153    3.355512
      4          6           0      -17.704844   -4.019947    0.689006
      5          6           0      -18.550486   -1.304368   -3.296054
      6          7           0      -17.162034    1.117376    1.282737
      7          6           0      -17.235841    2.391678    0.775983
      8          6           0      -16.966579    3.465605    1.816418
      9          6           0      -16.600674    2.527913    3.045683
     10          6           0      -16.882672    1.097296    2.561446
     11          6           0      -15.198562    2.830558    3.565974
     12          6           0      -18.226592    4.327109    2.052431
     13          6           0      -18.044237    5.865175    2.345045
     14          1           0      -16.665241    6.352512    2.848715
     15          7           0      -17.367851   -1.912128    1.809080
     16          6           0      -16.874553   -1.418070    3.017000
     17          6           0      -16.694136   -2.554155    3.934645
     18          6           0      -17.074410   -3.713704    3.183286
     19          6           0      -17.441593   -3.202641    1.848741
     20          6           0      -16.155001   -2.420973    5.257552
     21          6           0      -17.086076   -5.172461    3.628985
     22          8           0      -17.349779   -6.083875    2.828651
     23          6           0      -16.957831   -5.526981    5.058386
     24          7           0      -17.987213   -2.443163   -1.161612
     25          6           0      -18.007594   -3.672884   -0.640782
     26          6           0      -18.198472   -4.752260   -1.755409
     27          6           0      -18.655529   -3.872424   -2.962025
     28          6           0      -18.383784   -2.474510   -2.501921
     29          6           0      -16.939835   -5.660520   -1.999039
     30          6           0      -20.202954   -4.138396   -3.103266
     31          6           0      -21.235797   -3.195391   -2.395210
     32          7           0      -18.093008    0.384774   -1.586450
     33          6           0      -18.382729    0.021061   -2.914034
     34          6           0      -18.387176    1.252383   -3.742406
     35          6           0      -17.990581    2.257743   -2.868345
     36          6           0      -17.847758    1.760008   -1.590434
     37          6           0      -18.458966    1.162166   -5.190553
     38          6           0      -17.586586    3.661596   -2.862814
     39          8           0      -17.517227    4.429276   -3.815996
     40          6           0      -17.207474    3.997110   -1.344418
     41          6           0      -15.810341    4.482594   -1.234627
     42          8           0      -14.822896    3.798158   -0.982395
     43          8           0      -15.790797    5.873909   -1.448034
     44          6           0      -14.552581    6.619567   -1.459793
     45          1           0      -16.658959    0.086390    4.433165
     46          1           0      -17.708929   -5.102626    0.833919
     47          1           0      -18.835984   -1.579118   -4.313341
     48          1           0      -16.134992    4.115866    1.543667
     49          1           0      -17.241123    2.851186    3.865850
     50          1           0      -15.144650    3.076092    4.626010
     51          1           0      -14.653215    3.619121    3.047397
     52          1           0      -14.636288    1.898814    3.491332
     53          1           0      -18.827721    3.919830    2.865280
     54          1           0      -18.761280    4.150662    1.118470
     55          1           0      -18.705322    6.177160    3.152892
     56          1           0      -18.490776    6.369541    1.488134
     57          1           0      -16.864293   -2.910457    5.925257
     58          1           0      -15.826749   -1.398914    5.444144
     59          1           0      -15.212935   -2.955854    5.133003
     60          1           0      -15.950191   -5.391005    5.452324
     61          1           0      -17.185009   -6.584789    5.189410
     62          1           0      -17.560359   -4.819886    5.627812
     63          1           0      -18.980766   -5.334861   -1.268842
     64          1           0      -18.174376   -4.176416   -3.891979
     65          1           0      -17.040639   -6.593809   -1.444887
     66          1           0      -16.067212   -5.056590   -1.752348
     67          1           0      -16.925692   -5.866767   -3.069125
     68          1           0      -20.398075   -5.202029   -2.964998
     69          1           0      -20.408667   -3.823823   -4.126844
     70          1           0      -21.959472   -3.891851   -1.972721
     71          1           0      -21.763344   -2.541245   -3.090588
     72          1           0      -20.852270   -2.595580   -1.570549
     73          1           0      -17.736951    0.419160   -5.526874
     74          1           0      -18.149129    2.134441   -5.575017
     75          1           0      -19.491305    1.067203   -5.526149
     76          1           0      -17.890478    4.808797   -1.091968
     77          1           0      -14.155380    6.783061   -2.461296
     78          1           0      -13.869193    6.267884   -0.686728
     79          1           0      -14.879505    7.556110   -1.007107
     80         12           0       17.717049   -0.676646    0.231483
     81          6           0       15.756342    2.208176    0.467214
     82          6           0       20.510364    1.345561    0.353135
     83          6           0       19.641503   -3.339393   -0.694432
     84          6           0       14.854214   -2.469334   -0.532343
     85          7           0       18.026147    1.475049    0.479463
     86          6           0       17.101648    2.400178    0.767129
     87          6           0       17.666900    3.741702    1.256203
     88          6           0       19.213501    3.524551    1.038769
     89          6           0       19.316336    1.940495    0.670915
     90          6           0       19.910262    4.410792   -0.016122
     91          6           0       17.280436    4.112461    2.688164
     92          6           0       17.276597    5.630641    2.943492
     93          1           0       17.666108    6.584657    1.805497
     94          7           0       19.782493   -1.008712   -0.017075
     95          6           0       20.804161   -0.044591    0.144274
     96          6           0       22.082325   -0.699825   -0.048056
     97          6           0       21.847002   -2.074548   -0.424988
     98          6           0       20.392800   -2.210931   -0.359113
     99          6           0       23.372446    0.022464    0.227186
    100          6           0       22.872827   -3.268684   -0.678110
    101          8           0       22.538768   -4.415744   -0.850593
    102          6           0       24.339214   -2.896444   -0.712793
    103          7           0       17.314476   -2.574278   -0.590219
    104          6           0       18.256802   -3.524113   -0.856536
    105          6           0       17.618246   -4.881707   -1.329696
    106          6           0       16.128289   -4.572444   -1.193483
    107          6           0       16.105809   -3.120948   -0.752726
    108          6           0       18.040903   -5.563543   -2.693026
    109          6           0       15.453387   -5.509233   -0.164285
    110          6           0       15.560310   -5.167786    1.338508
    111          7           0       15.653431   -0.329426    0.137919
    112          6           0       14.602260   -1.148341   -0.183929
    113          6           0       13.362950   -0.449224   -0.115558
    114          6           0       13.763037    0.938401    0.142567
    115          6           0       15.098948    0.929233    0.252750
    116          6           0       11.980187   -0.898892   -0.290516
    117          6           0       13.306011    2.318855    0.222912
    118          8           0       12.158028    2.775610    0.240885
    119          6           0       14.555841    3.220836    0.444184
    120          6           0       14.676595    4.234133   -0.599019
    121          8           0       15.098858    4.053111   -1.736193
    122          8           0       14.033943    5.376550   -0.192572
    123          6           0       13.644715    6.391498   -1.190800
    124          1           0       21.332741    2.063929    0.375796
    125          1           0       20.245622   -4.241394   -0.812032
    126          1           0       13.941723   -3.051357   -0.677207
    127          1           0       17.421095    4.553735    0.572266
    128          1           0       19.787813    3.546752    1.964241
    129          1           0       20.727470    4.815213    0.580871
    130          1           0       19.243703    5.203844   -0.354206
    131          1           0       20.226934    3.811536   -0.869854
    132          1           0       17.920794    3.627318    3.423841
    133          1           0       16.278259    3.746592    2.913108
    134          1           0       17.984914    5.693968    3.769812
    135          1           0       16.338920    5.966028    3.388939
    136          1           0       23.095515    1.067528    0.366417
    137          1           0       24.042793   -0.111758   -0.622033
    138          1           0       23.894633   -0.356294    1.107082
    139          1           0       24.701915   -2.387734   -1.606561
    140          1           0       24.914357   -3.801431   -0.517093
    141          1           0       24.421315   -2.240040    0.153448
    142          1           0       17.976662   -5.554210   -0.550683
    143          1           0       15.695971   -4.709125   -2.184047
    144          1           0       17.208862   -5.878809   -3.321537
    145          1           0       18.583546   -6.478496   -2.457459
    146          1           0       18.728627   -4.886561   -3.200686
    147          1           0       15.872576   -6.495834   -0.358020
    148          1           0       14.406725   -5.541723   -0.468273
    149          1           0       15.739502   -6.127689    1.822168
    150          1           0       14.636331   -4.770513    1.758044
    151          1           0       16.307013   -4.410787    1.575670
    152          1           0       11.376919   -0.413677    0.475980
    153          1           0       11.825052   -1.976712   -0.241213
    154          1           0       11.563643   -0.470796   -1.202466
    155          1           0       14.396110    3.651961    1.432361
    156          1           0       13.981730    6.132078   -2.195007
    157          1           0       14.129419    7.328444   -0.915302
    158          1           0       12.560525    6.375814   -1.085212
 ---------------------------------------------------------------------

 SCF Done:  E(RPBE1PBE) =  -4067.39053711     A.U. after   16 cycles

 Excitation energies and oscillator strengths:

 Excited State   1:      Singlet-A      1.8421 eV  673.05 nm  f=0.0000  <S**2>=0.000
     312 -> 313        0.70710
 This state for optimization and/or second-order correction.
 Total Energy, E(TD-HF/TD-DFT) =  -4067.32284023
 Copying the excited state density for this state as the 1-particle RhoCI density.

 Excited State   2:      Singlet-A      1.8755 eV  661.09 nm  f=0.3966  <S**2>=0.000
     310 -> 316       -0.17470
     311 -> 313        0.69076
     311 <- 313       -0.10930

 Excited State   3:      Singlet-A      1.8853 eV  657.63 nm  f=0.3588  <S**2>=0.000
     309 -> 315       -0.18509
     312 -> 314        0.68857
     312 <- 314       -0.10055

 Excited State   4:      Singlet-A      2.1352 eV  580.67 nm  f=0.0000  <S**2>=0.000
     311 -> 314        0.70710

 Excited State   5:      Singlet-A      2.1488 eV  576.99 nm  f=0.1388  <S**2>=0.000
     310 -> 313        0.66654
     311 -> 316        0.21034

 The electronic state is 1-A.
 Alpha  occ. eigenvalues --  -46.91884 -46.91656 -19.24617 -19.24545 -19.20062
 Alpha  occ. eigenvalues --  -19.20047 -19.19625 -19.19197 -19.18993 -19.18787
 Alpha  occ. eigenvalues --  -14.41691 -14.41463 -14.41411 -14.40953 -14.39176
 Alpha  occ. eigenvalues --  -14.39079 -14.38689 -14.37911 -10.36421 -10.35645
 Alpha  occ. eigenvalues --  -10.33259 -10.32605 -10.32277 -10.32229 -10.28659
 Alpha  occ. eigenvalues --  -10.28591 -10.28588 -10.28521 -10.28439 -10.28431
 Alpha  occ. eigenvalues --  -10.28383 -10.28365 -10.28080 -10.28000 -10.27971
 Alpha  occ. eigenvalues --  -10.27835 -10.27744 -10.27507 -10.27109 -10.26721
 Alpha  occ. eigenvalues --  -10.26590 -10.26507 -10.26374 -10.26326 -10.26218
 Alpha  occ. eigenvalues --  -10.26142 -10.25968 -10.25863 -10.25773 -10.25770
 Alpha  occ. eigenvalues --  -10.25584 -10.25490 -10.25465 -10.25450 -10.25238
 Alpha  occ. eigenvalues --  -10.25221 -10.25094 -10.25079 -10.24992 -10.24986
 Alpha  occ. eigenvalues --  -10.24949 -10.24796 -10.24746 -10.24712 -10.24637
 Alpha  occ. eigenvalues --  -10.24579 -10.24406 -10.24338 -10.24227 -10.24131
 Alpha  occ. eigenvalues --  -10.24102 -10.23977 -10.23626 -10.23552 -10.23454
 Alpha  occ. eigenvalues --  -10.23445 -10.23314 -10.23237 -10.23226 -10.23108
 Alpha  occ. eigenvalues --  -10.22871 -10.22749 -10.22699 -10.22668 -10.22551
 Alpha  occ. eigenvalues --  -10.22539  -3.14009  -3.13761  -1.86858  -1.86603
 Alpha  occ. eigenvalues --   -1.86397  -1.86219  -1.86132  -1.85991  -1.09838
 Alpha  occ. eigenvalues --   -1.09355  -1.06252  -1.04476  -1.03743  -1.03645
 Alpha  occ. eigenvalues --   -1.02021  -1.01449  -0.99252  -0.99033  -0.98568
 Alpha  occ. eigenvalues --   -0.97967  -0.97739  -0.97138  -0.96157  -0.95621
 Alpha  occ. eigenvalues --   -0.86462  -0.86349  -0.83929  -0.83444  -0.83038
 Alpha  occ. eigenvalues --   -0.82888  -0.82708  -0.82438  -0.81564  -0.81389
 Alpha  occ. eigenvalues --   -0.81091  -0.80706  -0.80606  -0.80402  -0.78474
 Alpha  occ. eigenvalues --   -0.78307  -0.77681  -0.77589  -0.76656  -0.76581
 Alpha  occ. eigenvalues --   -0.76227  -0.76081  -0.75316  -0.75164  -0.74787
 Alpha  occ. eigenvalues --   -0.74531  -0.73062  -0.72438  -0.71441  -0.71410
 Alpha  occ. eigenvalues --   -0.71171  -0.71128  -0.70203  -0.70059  -0.69376
 Alpha  occ. eigenvalues --   -0.69105  -0.66889  -0.66604  -0.65735  -0.65530
 Alpha  occ. eigenvalues --   -0.64154  -0.63628  -0.63177  -0.62842  -0.62330
 Alpha  occ. eigenvalues --   -0.62113  -0.61015  -0.60446  -0.59318  -0.59247
 Alpha  occ. eigenvalues --   -0.59165  -0.59112  -0.58975  -0.58936  -0.58743
 Alpha  occ. eigenvalues --   -0.58279  -0.56089  -0.55976  -0.54739  -0.54279
 Alpha  occ. eigenvalues --   -0.53900  -0.53658  -0.53593  -0.53549  -0.52838
 Alpha  occ. eigenvalues --   -0.52550  -0.52427  -0.52297  -0.51970  -0.51725
 Alpha  occ. eigenvalues --   -0.50797  -0.50399  -0.50044  -0.49981  -0.49758
 Alpha  occ. eigenvalues --   -0.49681  -0.49184  -0.48783  -0.48396  -0.48242
 Alpha  occ. eigenvalues --   -0.48163  -0.47811  -0.47781  -0.47680  -0.47448
 Alpha  occ. eigenvalues --   -0.47324  -0.47250  -0.46872  -0.46773  -0.46684
 Alpha  occ. eigenvalues --   -0.46396  -0.46298  -0.46246  -0.46136  -0.45945
 Alpha  occ. eigenvalues --   -0.45502  -0.45302  -0.45136  -0.45125  -0.44756
 Alpha  occ. eigenvalues --   -0.44433  -0.44286  -0.44198  -0.44088  -0.44057
 Alpha  occ. eigenvalues --   -0.43932  -0.43654  -0.43636  -0.43600  -0.43427
 Alpha  occ. eigenvalues --   -0.43158  -0.43086  -0.42951  -0.42890  -0.42754
 Alpha  occ. eigenvalues --   -0.42659  -0.42310  -0.42202  -0.42033  -0.41776
 Alpha  occ. eigenvalues --   -0.41606  -0.41418  -0.41249  -0.40987  -0.40879
 Alpha  occ. eigenvalues --   -0.40861  -0.40722  -0.40513  -0.40377  -0.40174
 Alpha  occ. eigenvalues --   -0.39991  -0.39772  -0.39697  -0.39392  -0.39372
 Alpha  occ. eigenvalues --   -0.39052  -0.39036  -0.38941  -0.38778  -0.38729
 Alpha  occ. eigenvalues --   -0.38631  -0.38452  -0.38440  -0.38228  -0.38200
 Alpha  occ. eigenvalues --   -0.38128  -0.37991  -0.37873  -0.37723  -0.37631
 Alpha  occ. eigenvalues --   -0.37481  -0.37454  -0.37238  -0.36836  -0.36780
 Alpha  occ. eigenvalues --   -0.36628  -0.36331  -0.36028  -0.35928  -0.35887
 Alpha  occ. eigenvalues --   -0.35722  -0.35536  -0.35381  -0.35179  -0.35092
 Alpha  occ. eigenvalues --   -0.34814  -0.34788  -0.34191  -0.33474  -0.33423
 Alpha  occ. eigenvalues --   -0.33317  -0.32794  -0.32684  -0.32678  -0.32392
 Alpha  occ. eigenvalues --   -0.32119  -0.31721  -0.31679  -0.31188  -0.31003
 Alpha  occ. eigenvalues --   -0.30707  -0.30593  -0.29540  -0.29259  -0.29041
 Alpha  occ. eigenvalues --   -0.28958  -0.28658  -0.28471  -0.26595  -0.26580
 Alpha  occ. eigenvalues --   -0.26328  -0.25823  -0.25750  -0.25721  -0.25645
 Alpha  occ. eigenvalues --   -0.25176  -0.25085  -0.24375  -0.20744  -0.20493
 Alpha  occ. eigenvalues --   -0.18877  -0.18416
 Alpha virt. eigenvalues --   -0.11271  -0.10653  -0.05139  -0.04862  -0.03954
 Alpha virt. eigenvalues --   -0.03616  -0.02160  -0.01913  -0.00162   0.00288
 Alpha virt. eigenvalues --    0.00566   0.00710   0.01100   0.01111   0.01646

 Mulliken charges:
               1
     1  Mg  12.000000
     2  C    6.000000
     3  C    6.000000
     4  C    6.000000
     5  C    6.000000
     6  N    7.000000
     7  C    6.000000
     8  C    6.000000
     9  C    6.000000
    10  C    6.000000
    11  C    6.000000
    12  C    6.000000
    13  C    6.000000
    14  H    1.000000
    15  N    7.000000
    16  C    6.000000
    17  C    6.000000
    18  C    6.000000
    19  C    6.000000
    20  C    6.000000
    21  C    6.000000
    22  O    8.000000
    23  C    6.000000
    24  N    7.000000
    25  C    6.000000
    26  C    6.000000
    27  C    6.000000
    28  C    6.000000
    29  C    6.000000
    30  C    6.000000
    31  C    6.000000
    32  N    7.000000
    33  C    6.000000
    34  C    6.000000
    35  C    6.000000
    36  C    6.000000
    37  C    6.000000
    38  C    6.000000
    39  O    8.000000
    40  C    6.000000
    41  C    6.000000
    42  O    8.000000
    43  O    8.000000
    44  C    6.000000
    45  H    1.000000
    46  H    1.000000
    47  H    1.000000
    48  H    1.000000
    49  H    1.000000
    50  H    1.000000
    51  H    1.000000
    52  H    1.000000
    53  H    1.000000
    54  H    1.000000
    55  H    1.000000
    56  H    1.000000
    57  H    1.000000
    58  H    1.000000
    59  H    1.000000
    60  H    1.000000
    61  H    1.000000
    62  H    1.000000
    63  H    1.000000
    64  H    1.000000
    65  H    1.000000
    66  H    1.000000
    67  H    1.000000
    68  H    1.000000
    69  H    1.000000
    70  H    1.000000
    71  H    1.000000
    72  H    1.000000
    73  H    1.000000
    74  H    1.000000
    75  H    1.000000
    76  H    1.000000
    77  H    1.000000
    78  H    1.000000
    79  H    1.000000
    80  Mg  12.000000
    81  C    6.000000
    82  C    6.000000
    83  C    6.000000
    84  C    6.000000
    85  N    7.000000
    86  C    6.000000
    87  C    6.000000
    88  C    6.000000
    89  C    6.000000
    90  C    6.000000
    91  C    6.000000
    92  C    6.000000
    93  H    1.000000
    94  N    7.000000
    95  C    6.000000
    96  C    6.000000
    97  C    6.000000
    98  C    6.000000
    99  C    6.000000
   100  C    6.000000
   101  O    8.000000
   102  C    6.000000
   103  N    7.000000
   104  C    6.000000
   105  C    6.000000
   106  C    6.000000
   107  C    6.000000
   108  C    6.000000
   109  C    6.000000
   110  C    6.000000
   111  N    7.000000
   112  C    6.000000
   113  C    6.000000
   114  C    6.000000
   115  C    6.000000
   116  C    6.000000
   117  C    6.000000
   118  O    8.000000
   119  C    6.000000
   120  C    6.000000
   121  O    8.000000
   122  O    8.000000
   123  C    6.000000
   124  H    1.000000
   125  H    1.000000
   126  H    1.000000
   127  H    1.000000
   128  H    1.000000
   129  H    1.000000
   130  H    1.000000
   131  H    1.000000
   132  H    1.000000
   133  H    1.000000
   134  H    1.000000
   135  H    1.000000
   136  H    1.000000
   137  H    1.000000
   138  H    1.000000
   139  H    1.000000
   140  H    1.000000
   141  H    1.000000
   142  H    1.000000
   143  H    1.000000
   144  H    1.000000
   145  H    1.000000
   146  H    1.000000
   147  H    1.000000
   148  H    1.000000
   149  H    1.000000
   150  H    1.000000
   151  H    1.000000
   152  H    1.000000
   153  H    1.000000
   154  H    1.000000
   155  H    1.000000
   156  H    1.000000
   157  H    1.000000
   158  H    1.000000
 Sum of Mulliken charges = 624.00000

 Dipole moment (field-independent basis, Debye):
    X=              0.0000    Y=             -0.0000    Z=             -0.0000  Tot=              0.0000
 Quadrupole moment (field-independent basis, Debye-Ang):
   XX=              0.0000   YY=              0.0000   ZZ=             -0.0000
   XY=             -0.0000   XZ=              0.0000   YZ=              0.0000

 Normal termination of Gaussian 16 at Thu Oct 14 11:58:56 2021.
