 Gaussian 16, Revision A.03,
 Gaussian 16:  ES64L-G16RevA.03 25-Dec-2016

 --------------------------------------------------------
 #p PBE1PBE/Def2SVP td=(nstates=5) density=(transition=1)
 --------------------------------------------------------

 --------------------------------
 TDDFT excited states in gaussian
 --------------------------------
 Symbolic Z-matrix:
 Charge =  0 Multiplicity = 1

                         Standard orientation:
 ---------------------------------------------------------------------
 Center     Atomic      Atomic             Coordinates (Angstroms)
 Number     Number       Type             X           Y           Z
 ---------------------------------------------------------------------
      1         12           0        5.001094   -0.657692   -0.251498
      2          6           0        3.218659    2.277184   -1.399454
      3          6           0        7.650815    1.189840   -0.306186
      4          6           0        6.478270   -3.500672    0.521779
      5          6           0        2.109089   -2.713943   -1.037488
      6          7           0        5.338836    1.571656   -0.691638
      7          6           0        4.523697    2.589089   -1.142444
      8          6           0        5.311524    3.834061   -1.338013
      9          6           0        6.771475    3.324970   -1.452007
     10          6           0        6.599381    1.923213   -0.820774
     11          6           0        7.297310    3.215174   -2.900018
     12          6           0        5.182528    4.741086   -0.076429
     13          6           0        4.950448    6.279685   -0.338075
     14          1           0        4.348832    7.193752    0.802349
     15          7           0        6.915209   -1.065470    0.122504
     16          6           0        7.867625   -0.172448    0.168359
     17          6           0        9.078505   -0.825658    0.628541
     18          6           0        8.662017   -2.133698    0.970966
     19          6           0        7.307437   -2.274314    0.509889
     20          6           0       10.382252   -0.030249    0.822381
     21          6           0        9.502406   -3.193773    1.626705
     22          8           0        9.045547   -4.277160    1.838643
     23          6           0       10.875751   -2.845771    2.100731
     24          7           0        4.394308   -2.889034   -0.547543
     25          6           0        5.206845   -3.767914    0.035541
     26          6           0        4.559923   -5.089179    0.219530
     27          6           0        3.191272   -4.842396   -0.490611
     28          6           0        3.182498   -3.357552   -0.741377
     29          6           0        5.351357   -6.366409   -0.239340
     30          6           0        1.989880   -5.361200    0.392223
     31          6           0        1.247505   -6.666707   -0.007739
     32          7           0        3.131833   -0.390509   -1.014169
     33          6           0        2.028709   -1.249743   -1.216368
     34          6           0        0.873601   -0.461516   -1.693316
     35          6           0        1.307434    0.856426   -1.744828
     36          6           0        2.645112    0.879439   -1.388196
     37          6           0       -0.470566   -1.054087   -2.181331
     38          6           0        0.828564    2.235517   -2.082112
     39          8           0       -0.238807    2.693609   -2.415329
     40          6           0        2.114621    3.203327   -2.035822
     41          6           0        1.829739    4.426164   -1.379376
     42          8           0        2.026459    4.582717   -0.166185
     43          8           0        1.274409    5.439503   -2.154459
     44          6           0        1.139092    6.808080   -1.567815
     45          1           0        8.608297    1.709093   -0.236798
     46          1           0        6.949576   -4.432974    0.839501
     47          1           0        1.229158   -3.315985   -1.269273
     48          1           0        5.061685    4.284204   -2.299125
     49          1           0        7.531920    3.908356   -0.933252
     50          1           0        8.167864    3.856715   -3.039824
     51          1           0        6.487678    3.535113   -3.555283
     52          1           0        7.553981    2.203486   -3.215452
     53          1           0        6.131392    4.621383    0.446797
     54          1           0        4.393156    4.295561    0.528623
     55          1           0        4.341485    6.371309   -1.237038
     56          1           0        5.959584    6.626336   -0.563899
     57          1           0       10.621949   -0.017920    1.886420
     58          1           0       10.391406    0.979026    0.412254
     59          1           0       11.225034   -0.587380    0.414207
     60          1           0       10.867925   -2.077266    2.873229
     61          1           0       11.542275   -2.378859    1.375667
     62          1           0       11.315683   -3.725258    2.571569
     63          1           0        4.367794   -5.214282    1.285153
     64          1           0        3.217279   -5.287855   -1.485327
     65          1           0        6.343393   -6.021100   -0.528558
     66          1           0        4.881765   -7.004506   -0.988781
     67          1           0        5.434361   -7.041414    0.612637
     68          1           0        1.209527   -4.599836    0.407055
     69          1           0        2.349560   -5.279051    1.417878
     70          1           0        1.110044   -7.297750    0.870170
     71          1           0        1.816422   -7.185969   -0.779161
     72          1           0        0.252248   -6.440511   -0.392238
     73          1           0       -0.663019   -1.957070   -1.602628
     74          1           0       -0.357135   -1.392964   -3.211349
     75          1           0       -1.293291   -0.346463   -2.076307
     76          1           0        2.412726    3.410108   -3.063252
     77          1           0        2.115871    7.230481   -1.327860
     78          1           0        0.358898    6.842554   -0.808362
     79          1           0        0.871696    7.470078   -2.391344
     80         12           0       -4.798496   -0.545330    0.043395
     81          6           0       -2.980424    2.252809    1.086073
     82          6           0       -7.598841    1.465649   -0.100707
     83          6           0       -6.740335   -3.333359   -0.284045
     84          6           0       -2.079550   -2.525546    0.867445
     85          7           0       -5.155028    1.589268    0.364651
     86          6           0       -4.238065    2.544156    0.566344
     87          6           0       -4.752042    3.978333    0.373071
     88          6           0       -6.296377    3.730253    0.173342
     89          6           0       -6.395906    2.109569    0.036946
     90          6           0       -7.246747    4.279823    1.258912
     91          6           0       -4.086714    4.745572   -0.769737
     92          6           0       -4.104563    6.271857   -0.569206
     93          1           0       -4.776450    6.857358    0.680856
     94          7           0       -6.849833   -0.904638   -0.274441
     95          6           0       -7.860308    0.079700   -0.371341
     96          6           0       -9.115386   -0.583962   -0.661782
     97          6           0       -8.897529   -2.012181   -0.655080
     98          6           0       -7.458042   -2.145071   -0.436311
     99          6           0      -10.351149    0.206426   -0.993523
    100          6           0       -9.892400   -3.212692   -0.988777
    101          8           0       -9.545846   -4.364941   -1.085301
    102          6           0      -11.348945   -2.844972   -1.171303
    103          7           0       -4.486554   -2.606049    0.350627
    104          6           0       -5.415088   -3.578057    0.117997
    105          6           0       -4.825386   -5.024045    0.307910
    106          6           0       -3.358348   -4.710775    0.597447
    107          6           0       -3.314907   -3.194342    0.610029
    108          6           0       -5.495665   -6.068146    1.289127
    109          6           0       -2.432267   -5.315862   -0.483551
    110          6           0       -2.231557   -4.548580   -1.809220
    111          7           0       -2.823047   -0.271487    0.684058
    112          6           0       -1.825503   -1.164321    0.978884
    113          6           0       -0.637106   -0.494343    1.388970
    114          6           0       -1.041803    0.913955    1.460518
    115          6           0       -2.320840    0.957350    1.061692
    116          6           0        0.696817   -0.996119    1.726189
    117          6           0       -0.648177    2.250634    1.883994
    118          8           0        0.452516    2.675494    2.251119
    119          6           0       -1.865243    3.196472    1.663206
    120          6           0       -2.257626    3.862347    2.901055
    121          8           0       -2.904217    3.363224    3.815953
    122          8           0       -1.601052    5.063935    2.992763
    123          6           0       -1.486413    5.736913    4.301211
    124          1           0       -8.432292    2.171482   -0.095412
    125          1           0       -7.309486   -4.221217   -0.567188
    126          1           0       -1.191249   -3.138063    1.035145
    127          1           0       -4.699724    4.551270    1.298595
    128          1           0       -6.659301    4.030528   -0.808975
    129          1           0       -7.936244    4.853221    0.639560
    130          1           0       -6.708903    4.929397    1.949065
    131          1           0       -7.708544    3.462030    1.812272
    132          1           0       -4.529244    4.506232   -1.735929
    133          1           0       -3.042516    4.446483   -0.864684
    134          1           0       -4.621528    6.584484   -1.476697
    135          1           0       -3.111267    6.708732   -0.681678
    136          1           0      -10.103711    1.242295   -0.761180
    137          1           0      -11.180353   -0.160086   -0.388012
    138          1           0      -10.652838    0.109195   -2.037498
    139          1           0      -11.919931   -2.614309   -0.271341
    140          1           0      -11.822514   -3.644558   -1.740937
    141          1           0      -11.276325   -1.962919   -1.807454
    142          1           0       -4.974183   -5.434091   -0.690741
    143          1           0       -3.142132   -5.137420    1.576233
    144          1           0       -4.802939   -6.565724    1.966812
    145          1           0       -5.928483   -6.866097    0.686603
    146          1           0       -6.309380   -5.558884    1.806336
    147          1           0       -2.833096   -6.309631   -0.679496
    148          1           0       -1.474833   -5.451408    0.020347
    149          1           0       -2.254398   -5.322439   -2.576077
    150          1           0       -1.260290   -4.059895   -1.882712
    151          1           0       -2.947149   -3.744250   -1.976078
    152          1           0        1.425206   -0.317153    1.284221
    153          1           0        0.912905   -2.014669    1.403611
    154          1           0        0.886104   -0.859500    2.791052
    155          1           0       -1.519258    3.895129    0.901595
    156          1           0       -2.017399    5.200409    5.088311
    157          1           0       -1.947266    6.720601    4.208058
    158          1           0       -0.405410    5.736572    4.436472
 ---------------------------------------------------------------------

 SCF Done:  E(RPBE1PBE) =  -4067.35949799     A.U. after   17 cycles

 Excitation energies and oscillator strengths:

 Excited State   1:      Singlet-A      1.4935 eV  830.17 nm  f=0.0324  <S**2>=0.000
     312 -> 313        0.70154
 This state for optimization and/or second-order correction.
 Total Energy, E(TD-HF/TD-DFT) =  -4067.30461392
 Copying the excited state density for this state as the 1-particle RhoCI density.

 Excited State   2:      Singlet-A      1.7872 eV  693.73 nm  f=0.5615  <S**2>=0.000
     311 -> 313        0.49006
     311 -> 314       -0.31071
     312 -> 314        0.38910

 Excited State   3:      Singlet-A      1.8761 eV  660.86 nm  f=0.3036  <S**2>=0.000
     311 -> 313        0.10437
     311 -> 314        0.60715
     312 -> 314        0.32994

 Excited State   4:      Singlet-A      1.8996 eV  652.68 nm  f=0.0211  <S**2>=0.000
     309 -> 316       -0.10485
     310 -> 313       -0.26453
     310 -> 315       -0.10698
     311 -> 313        0.44854
     311 -> 314        0.16552
     312 -> 314       -0.42616

 Excited State   5:      Singlet-A      1.9329 eV  641.43 nm  f=0.0026  <S**2>=0.000
     310 -> 313        0.65267
     311 -> 313        0.17869
     312 -> 314       -0.17823

 The electronic state is 1-A.
 Alpha  occ. eigenvalues --  -46.92768 -46.91109 -19.24570 -19.23843 -19.20174
 Alpha  occ. eigenvalues --  -19.19644 -19.19188 -19.18526 -19.18499 -19.18077
 Alpha  occ. eigenvalues --  -14.41221 -14.41129 -14.40912 -14.39725 -14.39670
 Alpha  occ. eigenvalues --  -14.39186 -14.38564 -14.37330 -10.35256 -10.34922
 Alpha  occ. eigenvalues --  -10.33371 -10.32843 -10.31979 -10.31326 -10.28913
 Alpha  occ. eigenvalues --  -10.28483 -10.28442 -10.28120 -10.28059 -10.28000
 Alpha  occ. eigenvalues --  -10.27962 -10.27893 -10.27831 -10.27813 -10.27799
 Alpha  occ. eigenvalues --  -10.27525 -10.27426 -10.27408 -10.26990 -10.26620
 Alpha  occ. eigenvalues --  -10.26575 -10.26267 -10.26047 -10.25912 -10.25893
 Alpha  occ. eigenvalues --  -10.25843 -10.25747 -10.25702 -10.25612 -10.25338
 Alpha  occ. eigenvalues --  -10.25321 -10.25287 -10.25245 -10.24973 -10.24957
 Alpha  occ. eigenvalues --  -10.24879 -10.24866 -10.24775 -10.24730 -10.24690
 Alpha  occ. eigenvalues --  -10.24651 -10.24590 -10.24544 -10.24478 -10.24273
 Alpha  occ. eigenvalues --  -10.24059 -10.24013 -10.23905 -10.23889 -10.23700
 Alpha  occ. eigenvalues --  -10.23645 -10.23644 -10.23445 -10.23426 -10.23301
 Alpha  occ. eigenvalues --  -10.23246 -10.23234 -10.23213 -10.23193 -10.23068
 Alpha  occ. eigenvalues --  -10.23062 -10.23058 -10.22950 -10.22796 -10.22281
 Alpha  occ. eigenvalues --  -10.21839  -3.14881  -3.13222  -1.87706  -1.87261
 Alpha  occ. eigenvalues --   -1.87106  -1.86063  -1.85593  -1.85451  -1.09135
 Alpha  occ. eigenvalues --   -1.08802  -1.06660  -1.05883  -1.05842  -1.02659
 Alpha  occ. eigenvalues --   -1.00860  -1.00754  -1.00278  -0.99637  -0.99399
 Alpha  occ. eigenvalues --   -0.98595  -0.97374  -0.96539  -0.95898  -0.95095
 Alpha  occ. eigenvalues --   -0.85735  -0.85637  -0.83430  -0.83293  -0.83252
 Alpha  occ. eigenvalues --   -0.82427  -0.82328  -0.81925  -0.81919  -0.81737
 Alpha  occ. eigenvalues --   -0.80864  -0.80230  -0.79834  -0.79535  -0.78573
 Alpha  occ. eigenvalues --   -0.77855  -0.77449  -0.77277  -0.76341  -0.76158
 Alpha  occ. eigenvalues --   -0.76022  -0.75696  -0.75239  -0.74774  -0.74681
 Alpha  occ. eigenvalues --   -0.73963  -0.72872  -0.71930  -0.71458  -0.71155
 Alpha  occ. eigenvalues --   -0.71032  -0.70478  -0.70434  -0.69719  -0.69631
 Alpha  occ. eigenvalues --   -0.68898  -0.67260  -0.66306  -0.65520  -0.65054
 Alpha  occ. eigenvalues --   -0.64045  -0.63605  -0.63260  -0.62375  -0.62231
 Alpha  occ. eigenvalues --   -0.61540  -0.61436  -0.60380  -0.60161  -0.59919
 Alpha  occ. eigenvalues --   -0.59584  -0.58916  -0.58775  -0.58540  -0.58384
 Alpha  occ. eigenvalues --   -0.57718  -0.55836  -0.55615  -0.55354  -0.54597
 Alpha  occ. eigenvalues --   -0.53795  -0.53622  -0.53032  -0.52948  -0.52558
 Alpha  occ. eigenvalues --   -0.52187  -0.52147  -0.51860  -0.51738  -0.51288
 Alpha  occ. eigenvalues --   -0.51068  -0.50313  -0.50059  -0.49994  -0.49508
 Alpha  occ. eigenvalues --   -0.49086  -0.48850  -0.48598  -0.48351  -0.47891
 Alpha  occ. eigenvalues --   -0.47677  -0.47346  -0.47285  -0.47070  -0.46966
 Alpha  occ. eigenvalues --   -0.46872  -0.46804  -0.46593  -0.46580  -0.46221
 Alpha  occ. eigenvalues --   -0.46166  -0.45969  -0.45907  -0.45695  -0.45199
 Alpha  occ. eigenvalues --   -0.44979  -0.44940  -0.44840  -0.44666  -0.44389
 Alpha  occ. eigenvalues --   -0.44348  -0.44191  -0.43904  -0.43861  -0.43730
 Alpha  occ. eigenvalues --   -0.43606  -0.43558  -0.43391  -0.43343  -0.43103
 Alpha  occ. eigenvalues --   -0.42988  -0.42847  -0.42595  -0.42533  -0.42366
 Alpha  occ. eigenvalues --   -0.42283  -0.42223  -0.42162  -0.41991  -0.41718
 Alpha  occ. eigenvalues --   -0.41346  -0.41166  -0.40936  -0.40859  -0.40771
 Alpha  occ. eigenvalues --   -0.40571  -0.40425  -0.40368  -0.40234  -0.40000
 Alpha  occ. eigenvalues --   -0.39853  -0.39770  -0.39550  -0.39458  -0.39290
 Alpha  occ. eigenvalues --   -0.39123  -0.38934  -0.38814  -0.38678  -0.38453
 Alpha  occ. eigenvalues --   -0.38219  -0.38163  -0.38146  -0.38023  -0.37816
 Alpha  occ. eigenvalues --   -0.37676  -0.37598  -0.37483  -0.37268  -0.37260
 Alpha  occ. eigenvalues --   -0.37202  -0.36971  -0.36922  -0.36768  -0.36691
 Alpha  occ. eigenvalues --   -0.36239  -0.36144  -0.35913  -0.35733  -0.35430
 Alpha  occ. eigenvalues --   -0.35365  -0.35312  -0.35253  -0.35174  -0.35105
 Alpha  occ. eigenvalues --   -0.34791  -0.34716  -0.34638  -0.34333  -0.33280
 Alpha  occ. eigenvalues --   -0.33150  -0.32852  -0.32647  -0.32146  -0.32088
 Alpha  occ. eigenvalues --   -0.31899  -0.31493  -0.31177  -0.31063  -0.30745
 Alpha  occ. eigenvalues --   -0.30534  -0.29907  -0.28979  -0.28828  -0.28371
 Alpha  occ. eigenvalues --   -0.28290  -0.27776  -0.27417  -0.27169  -0.26542
 Alpha  occ. eigenvalues --   -0.26138  -0.26085  -0.26005  -0.25896  -0.25520
 Alpha  occ. eigenvalues --   -0.24762  -0.24646  -0.23589  -0.20493  -0.19928
 Alpha  occ. eigenvalues --   -0.19084  -0.18325
 Alpha virt. eigenvalues --   -0.11433  -0.10680  -0.04422  -0.03997  -0.03380
 Alpha virt. eigenvalues --   -0.02876  -0.01809  -0.01268  -0.00356   0.00128
 Alpha virt. eigenvalues --    0.00350   0.01187   0.01399   0.01640   0.02194

 Mulliken charges:
               1
     1  Mg  11.999265
     2  C    5.997174
     3  C    5.997476
     4  C    6.000741
     5  C    5.998685
     6  N    6.997139
     7  C    6.002245
     8  C    5.999523
     9  C    6.000511
    10  C    5.998844
    11  C    6.000749
    12  C    6.000160
    13  C    6.000167
    14  H    0.998733
    15  N    7.000989
    16  C    5.997659
    17  C    5.997329
    18  C    5.998941
    19  C    5.996836
    20  C    6.000466
    21  C    5.998491
    22  O    7.997358
    23  C    6.000766
    24  N    7.000049
    25  C    5.997203
    26  C    6.001332
    27  C    5.999237
    28  C    6.001681
    29  C    6.000112
    30  C    6.000377
    31  C    6.000002
    32  N    7.000217
    33  C    6.004330
    34  C    6.002129
    35  C    5.997785
    36  C    6.003054
    37  C    6.001126
    38  C    5.999441
    39  O    7.997768
    40  C    6.000592
    41  C    5.999746
    42  O    8.000084
    43  O    7.999754
    44  C    6.000197
    45  H    0.997664
    46  H    0.998741
    47  H    0.999545
    48  H    0.999170
    49  H    0.999146
    50  H    0.998912
    51  H    0.998344
    52  H    0.999861
    53  H    1.000640
    54  H    0.999692
    55  H    0.999609
    56  H    1.000017
    57  H    0.997797
    58  H    0.998350
    59  H    0.997801
    60  H    0.999079
    61  H    0.999216
    62  H    0.998094
    63  H    0.999322
    64  H    0.999504
    65  H    1.000467
    66  H    0.998597
    67  H    0.999235
    68  H    0.999033
    69  H    1.000400
    70  H    0.999759
    71  H    1.000211
    72  H    0.998733
    73  H    1.000281
    74  H    0.998748
    75  H    0.999611
    76  H    0.999514
    77  H    1.000195
    78  H    0.999248
    79  H    0.999470
    80  Mg  12.001493
    81  C    6.001841
    82  C    6.000407
    83  C    5.997872
    84  C    5.998851
    85  N    7.000938
    86  C    5.998252
    87  C    6.000891
    88  C    5.999789
    89  C    6.002788
    90  C    5.999429
    91  C    6.000224
    92  C    5.999640
    93  H    0.999986
    94  N    6.999480
    95  C    6.003980
    96  C    6.002917
    97  C    6.001695
    98  C    6.004260
    99  C    5.999424
   100  C    6.001887
   101  O    8.003074
   102  C    5.999428
   103  N    6.998112
   104  C    6.005573
   105  C    5.998746
   106  C    5.999793
   107  C    6.000993
   108  C    5.999986
   109  C    6.000221
   110  C    5.999884
   111  N    6.998907
   112  C    6.000441
   113  C    5.993505
   114  C    6.001116
   115  C    5.999657
   116  C    6.001986
   117  C    5.999252
   118  O    7.999463
   119  C    6.000026
   120  C    5.999405
   121  O    7.999373
   122  O    8.000236
   123  C    5.999954
   124  H    1.002331
   125  H    1.001465
   126  H    1.000889
   127  H    1.000835
   128  H    1.000686
   129  H    1.000841
   130  H    1.001999
   131  H    0.999859
   132  H    0.999637
   133  H    1.001195
   134  H    1.000049
   135  H    1.001138
   136  H    1.001952
   137  H    1.002599
   138  H    1.002903
   139  H    1.001451
   140  H    1.002181
   141  H    1.000319
   142  H    1.001087
   143  H    1.001221
   144  H    1.001922
   145  H    1.000850
   146  H    1.000030
   147  H    0.999965
   148  H    1.001676
   149  H    1.000181
   150  H    1.001485
   151  H    0.998907
   152  H    0.998470
   153  H    0.998341
   154  H    0.997235
   155  H    1.000369
   156  H    0.999840
   157  H    0.999763
   158  H    1.000686
 Sum of Mulliken charges = 624.00000

 Dipole moment (field-independent basis, Debye):
    X=             -3.3724    Y=             -0.1613    Z=             -0.2128  Tot=              3.3830
 Quadrupole moment (field-independent basis, Debye-Ang):
   XX=              3.0367   YY=              0.2698   ZZ=             -0.4081
   XY=              3.2457   XZ=              0.1107   YZ=              0.7575

 Normal termination of Gaussian 16 at Thu Oct 14 19:49:13 2021.
