 Gaussian 16, Revision A.03,
 Gaussian 16:  ES64L-G16RevA.03 25-Dec-2016

 --------------------------------------------------------
 #p PBE1PBE/Def2SVP td=(nstates=5) density=(transition=1)
 --------------------------------------------------------

 --------------------------------
 TDDFT excited states in gaussian
 --------------------------------
 Symbolic Z-matrix:
 Charge =  0 Multiplicity = 1

                         Standard orientation:
 ---------------------------------------------------------------------
 Center     Atomic      Atomic             Coordinates (Angstroms)
 Number     Number       Type             X           Y           Z
 ---------------------------------------------------------------------
      1         12           0      -23.841947    0.531495    0.236289
      2          6           0      -22.521943   -2.207466   -1.559793
      3          6           0      -22.732809    2.653553   -2.201916
      4          6           0      -24.491220    3.036624    2.279046
      5          6           0      -24.503374   -1.705327    2.909301
      6          7           0      -22.846996    0.205324   -1.723458
      7          6           0      -22.442606   -0.952106   -2.208221
      8          6           0      -22.134739   -0.768548   -3.683322
      9          6           0      -21.769648    0.762389   -3.786830
     10          6           0      -22.483651    1.276255   -2.481333
     11          6           0      -20.212119    0.975947   -3.897490
     12          6           0      -23.359701   -1.062158   -4.587051
     13          6           0      -23.031135   -1.394150   -6.108804
     14          1           0      -21.598383   -1.386413   -6.648545
     15          7           0      -23.834497    2.524570   -0.009224
     16          6           0      -23.405073    3.274735   -1.133939
     17          6           0      -23.676035    4.706525   -0.866231
     18          6           0      -24.120572    4.818864    0.500002
     19          6           0      -24.184209    3.439415    1.029781
     20          6           0      -23.496492    5.786333   -1.874146
     21          6           0      -24.537846    6.050207    1.394764
     22          8           0      -24.991044    5.952144    2.543250
     23          6           0      -24.243618    7.431246    0.884959
     24          7           0      -24.315829    0.661459    2.368708
     25          6           0      -24.587394    1.799366    2.950579
     26          6           0      -25.023189    1.698522    4.385509
     27          6           0      -25.026327    0.146672    4.618015
     28          6           0      -24.680365   -0.365669    3.183800
     29          6           0      -24.170999    2.580466    5.302818
     30          6           0      -26.354245   -0.423039    5.100928
     31          6           0      -26.282783   -1.550547    6.192178
     32          7           0      -23.662354   -1.589804    0.656405
     33          6           0      -24.021711   -2.348726    1.787446
     34          6           0      -23.875755   -3.728904    1.475423
     35          6           0      -23.129725   -3.750922    0.254049
     36          6           0      -23.073697   -2.462803   -0.214655
     37          6           0      -24.443020   -4.871423    2.268079
     38          6           0      -22.525654   -4.539689   -0.846581
     39          8           0      -22.376985   -5.738975   -0.956437
     40          6           0      -21.901462   -3.507962   -1.901905
     41          6           0      -21.934687   -4.078920   -3.281760
     42          8           0      -22.907264   -4.396558   -3.900524
     43          8           0      -20.635472   -4.307900   -3.772125
     44          6           0      -20.473266   -5.436298   -4.713324
     45          1           0      -22.242845    3.398894   -2.832559
     46          1           0      -24.865224    3.780011    2.985261
     47          1           0      -24.789706   -2.373721    3.724081
     48          1           0      -21.393993   -1.545126   -3.873618
     49          1           0      -22.232838    1.227203   -4.657827
     50          1           0      -19.696413    0.016866   -3.862950
     51          1           0      -19.955844    1.452972   -2.951490
     52          1           0      -19.883054    1.474992   -4.809042
     53          1           0      -23.944071   -0.141870   -4.550258
     54          1           0      -23.918167   -1.870337   -4.114891
     55          1           0      -23.633339   -0.683245   -6.676591
     56          1           0      -23.479837   -2.373051   -6.279425
     57          1           0      -23.314980    5.517723   -2.914197
     58          1           0      -22.640851    6.422916   -1.650635
     59          1           0      -24.444213    6.324558   -1.844809
     60          1           0      -25.029058    7.849498    0.255655
     61          1           0      -23.309992    7.226653    0.359509
     62          1           0      -24.048996    8.039783    1.767655
     63          1           0      -26.042397    2.081263    4.333956
     64          1           0      -24.269231   -0.196820    5.321868
     65          1           0      -23.171177    2.782646    4.917424
     66          1           0      -24.043830    2.000077    6.215790
     67          1           0      -24.640802    3.540053    5.519766
     68          1           0      -26.925399   -0.843430    4.273360
     69          1           0      -26.941506    0.460674    5.350030
     70          1           0      -25.256992   -1.877115    6.362231
     71          1           0      -26.844637   -2.378529    5.760403
     72          1           0      -26.715272   -1.359985    7.174941
     73          1           0      -24.152591   -4.665935    3.298495
     74          1           0      -24.056911   -5.852534    1.990995
     75          1           0      -25.532510   -4.843818    2.231131
     76          1           0      -20.826401   -3.451934   -1.734029
     77          1           0      -20.168338   -5.025057   -5.675727
     78          1           0      -21.383044   -6.029860   -4.809774
     79          1           0      -19.675651   -6.046775   -4.290048
     80         12           0       23.556034    0.635607   -0.739351
     81          6           0       22.718589   -2.646923    0.319960
     82          6           0       20.195405    1.468428   -0.315439
     83          6           0       24.551433    3.767635   -0.550336
     84          6           0       27.034234   -0.507029   -0.761284
     85          7           0       21.683040   -0.465527    0.190816
     86          6           0       21.571972   -1.814815    0.269548
     87          6           0       20.108183   -2.190814    0.413786
     88          6           0       19.365200   -1.082683   -0.332701
     89          6           0       20.455417    0.083803   -0.100880
     90          6           0       19.109807   -1.255523   -1.831114
     91          6           0       19.757317   -2.388576    1.952818
     92          6           0       18.949207   -3.602526    2.194089
     93          1           0       17.788648   -3.498388    3.202666
     94          7           0       22.528242    2.447556   -0.418621
     95          6           0       21.118930    2.577596   -0.348446
     96          6           0       20.845602    3.989358   -0.251534
     97          6           0       22.049743    4.726977   -0.402508
     98          6           0       23.133286    3.681414   -0.442505
     99          6           0       19.417029    4.494779   -0.076427
    100          6           0       22.184478    6.197988   -0.363386
    101          8           0       21.179160    6.878416   -0.200656
    102          6           0       23.451158    6.987820   -0.410627
    103          7           0       25.615267    1.492209   -0.567119
    104          6           0       25.654406    2.831304   -0.715640
    105          6           0       27.101407    3.313253   -0.924823
    106          6           0       27.927852    1.925980   -1.154252
    107          6           0       26.816055    0.886103   -0.859145
    108          6           0       27.270068    4.440158   -2.040712
    109          6           0       29.219970    1.762534   -0.294133
    110          6           0       29.122508    0.903271    1.012398
    111          7           0       24.647611   -1.110700   -0.340951
    112          6           0       26.032581   -1.418706   -0.462812
    113          6           0       26.206010   -2.931041   -0.334205
    114          6           0       24.937812   -3.369103    0.012217
    115          6           0       24.043190   -2.240229   -0.025620
    116          6           0       27.433902   -3.853691   -0.457591
    117          6           0       24.160421   -4.529826    0.310516
    118          8           0       24.476011   -5.720788    0.320834
    119          6           0       22.802769   -4.025714    0.648000
    120          6           0       22.725627   -4.234821    2.177680
    121          8           0       23.227331   -3.530803    3.051534
    122          8           0       22.021261   -5.450679    2.399569
    123          6           0       21.919867   -5.930504    3.717836
    124          1           0       19.147122    1.773974   -0.293940
    125          1           0       24.761683    4.833964   -0.654082
    126          1           0       28.014423   -0.968369   -0.893462
    127          1           0       19.841558   -3.100546   -0.123965
    128          1           0       18.377982   -0.760516   -0.003468
    129          1           0       19.182354   -2.287358   -2.173638
    130          1           0       19.645632   -0.509675   -2.418739
    131          1           0       18.052325   -1.001549   -1.912850
    132          1           0       19.159637   -1.539249    2.283939
    133          1           0       20.613673   -2.303022    2.621809
    134          1           0       19.711629   -4.310745    2.516514
    135          1           0       18.519634   -3.920277    1.244154
    136          1           0       19.004507    4.926229   -0.988237
    137          1           0       19.391025    5.178991    0.770416
    138          1           0       18.754490    3.670535    0.188099
    139          1           0       23.880704    6.881340   -1.407050
    140          1           0       24.205689    6.722531    0.330930
    141          1           0       23.255147    8.059291   -0.423139
    142          1           0       27.372740    3.696956    0.058436
    143          1           0       28.137950    1.821464   -2.218159
    144          1           0       26.340949    4.991287   -2.185294
    145          1           0       27.714274    4.173982   -3.000577
    146          1           0       28.110033    5.021908   -1.657857
    147          1           0       29.662397    2.720765   -0.023036
    148          1           0       29.882134    1.234572   -0.979925
    149          1           0       29.870864    1.469180    1.567699
    150          1           0       29.423930   -0.143287    0.963009
    151          1           0       28.126334    1.051978    1.429586
    152          1           0       27.281638   -4.605590   -1.231120
    153          1           0       27.290806   -4.379152    0.486128
    154          1           0       28.320556   -3.220158   -0.467952
    155          1           0       22.052455   -4.653431    0.167137
    156          1           0       21.379196   -6.872383    3.818773
    157          1           0       21.386944   -5.177474    4.297015
    158          1           0       22.950870   -6.058734    4.048736
 ---------------------------------------------------------------------

 SCF Done:  E(RPBE1PBE) =  -4067.31986686     A.U. after   17 cycles

 Excitation energies and oscillator strengths:

 Excited State   1:      Singlet-A      1.8406 eV  673.62 nm  f=0.3432  <S**2>=0.000
     309 -> 315        0.18901
     312 -> 313        0.68699
 This state for optimization and/or second-order correction.
 Total Energy, E(TD-HF/TD-DFT) =  -4067.25222688
 Copying the excited state density for this state as the 1-particle RhoCI density.

 Excited State   2:      Singlet-A      1.8894 eV  656.19 nm  f=0.3631  <S**2>=0.000
     310 -> 316       -0.18735
     311 -> 314        0.68566

 Excited State   3:      Singlet-A      2.0248 eV  612.32 nm  f=0.0000  <S**2>=0.000
     312 -> 314        0.70711

 Excited State   4:      Singlet-A      2.0473 eV  605.59 nm  f=0.0000  <S**2>=0.000
     311 -> 313        0.70711

 Excited State   5:      Singlet-A      2.1351 eV  580.71 nm  f=0.0939  <S**2>=0.000
     310 -> 314        0.65946
     311 -> 316        0.23139

 The electronic state is 1-A.
 Alpha  occ. eigenvalues --  -46.94690 -46.91932 -19.25366 -19.24064 -19.21588
 Alpha  occ. eigenvalues --  -19.20190 -19.19879 -19.19087 -19.18911 -19.17838
 Alpha  occ. eigenvalues --  -14.41883 -14.41513 -14.41476 -14.41132 -14.39869
 Alpha  occ. eigenvalues --  -14.39460 -14.39306 -14.37910 -10.37650 -10.35692
 Alpha  occ. eigenvalues --  -10.33620 -10.32279 -10.31630 -10.31301 -10.29650
 Alpha  occ. eigenvalues --  -10.29636 -10.29237 -10.29214 -10.29001 -10.28800
 Alpha  occ. eigenvalues --  -10.28707 -10.28610 -10.28241 -10.28203 -10.28174
 Alpha  occ. eigenvalues --  -10.28042 -10.27997 -10.27885 -10.27848 -10.27773
 Alpha  occ. eigenvalues --  -10.27072 -10.27008 -10.26650 -10.26499 -10.26374
 Alpha  occ. eigenvalues --  -10.26271 -10.26233 -10.26198 -10.25945 -10.25935
 Alpha  occ. eigenvalues --  -10.25906 -10.25854 -10.25779 -10.25676 -10.25535
 Alpha  occ. eigenvalues --  -10.25529 -10.25464 -10.25443 -10.25425 -10.25350
 Alpha  occ. eigenvalues --  -10.25317 -10.25202 -10.25178 -10.25175 -10.25099
 Alpha  occ. eigenvalues --  -10.24895 -10.24743 -10.24584 -10.24548 -10.24304
 Alpha  occ. eigenvalues --  -10.23936 -10.23906 -10.23860 -10.23826 -10.23822
 Alpha  occ. eigenvalues --  -10.23667 -10.23473 -10.23391 -10.23326 -10.23254
 Alpha  occ. eigenvalues --  -10.23114 -10.23106 -10.22873 -10.22778 -10.22650
 Alpha  occ. eigenvalues --  -10.22581  -3.16478  -3.13975  -1.89255  -1.88902
 Alpha  occ. eigenvalues --   -1.88653  -1.86828  -1.86349  -1.86195  -1.10549
 Alpha  occ. eigenvalues --   -1.10066  -1.04875  -1.04599  -1.04272  -1.04137
 Alpha  occ. eigenvalues --   -1.03448  -1.01961  -0.99702  -0.99125  -0.98805
 Alpha  occ. eigenvalues --   -0.98064  -0.97479  -0.96677  -0.95981  -0.95290
 Alpha  occ. eigenvalues --   -0.88753  -0.86364  -0.83570  -0.83440  -0.83099
 Alpha  occ. eigenvalues --   -0.83016  -0.82091  -0.81995  -0.81612  -0.81554
 Alpha  occ. eigenvalues --   -0.81488  -0.81177  -0.80068  -0.79910  -0.79067
 Alpha  occ. eigenvalues --   -0.78187  -0.78120  -0.77946  -0.76979  -0.76792
 Alpha  occ. eigenvalues --   -0.75930  -0.75871  -0.75145  -0.75065  -0.74624
 Alpha  occ. eigenvalues --   -0.74225  -0.72726  -0.72361  -0.71585  -0.71515
 Alpha  occ. eigenvalues --   -0.71198  -0.70806  -0.70338  -0.69774  -0.69579
 Alpha  occ. eigenvalues --   -0.69422  -0.67180  -0.67020  -0.66321  -0.66157
 Alpha  occ. eigenvalues --   -0.64272  -0.64214  -0.63170  -0.62997  -0.61770
 Alpha  occ. eigenvalues --   -0.61696  -0.61248  -0.60973  -0.60425  -0.59838
 Alpha  occ. eigenvalues --   -0.59597  -0.59448  -0.59212  -0.59101  -0.59062
 Alpha  occ. eigenvalues --   -0.58066  -0.56766  -0.55740  -0.54521  -0.54483
 Alpha  occ. eigenvalues --   -0.54326  -0.53915  -0.53764  -0.53293  -0.53112
 Alpha  occ. eigenvalues --   -0.52918  -0.52677  -0.52213  -0.51590  -0.51507
 Alpha  occ. eigenvalues --   -0.50929  -0.50652  -0.50575  -0.50236  -0.50052
 Alpha  occ. eigenvalues --   -0.49749  -0.49431  -0.49149  -0.48780  -0.48290
 Alpha  occ. eigenvalues --   -0.47955  -0.47782  -0.47745  -0.47669  -0.47648
 Alpha  occ. eigenvalues --   -0.47388  -0.47317  -0.46786  -0.46740  -0.46629
 Alpha  occ. eigenvalues --   -0.46479  -0.46321  -0.46207  -0.45986  -0.45944
 Alpha  occ. eigenvalues --   -0.45813  -0.45727  -0.45359  -0.45170  -0.45051
 Alpha  occ. eigenvalues --   -0.44853  -0.44786  -0.44522  -0.44505  -0.44031
 Alpha  occ. eigenvalues --   -0.44022  -0.43806  -0.43725  -0.43611  -0.43156
 Alpha  occ. eigenvalues --   -0.42980  -0.42956  -0.42926  -0.42681  -0.42518
 Alpha  occ. eigenvalues --   -0.42479  -0.42210  -0.42171  -0.41959  -0.41846
 Alpha  occ. eigenvalues --   -0.41769  -0.41628  -0.41079  -0.41050  -0.40918
 Alpha  occ. eigenvalues --   -0.40804  -0.40636  -0.40604  -0.40540  -0.40391
 Alpha  occ. eigenvalues --   -0.40310  -0.40189  -0.40081  -0.39906  -0.39864
 Alpha  occ. eigenvalues --   -0.39761  -0.39301  -0.39231  -0.39138  -0.38922
 Alpha  occ. eigenvalues --   -0.38663  -0.38553  -0.38537  -0.38326  -0.38140
 Alpha  occ. eigenvalues --   -0.38038  -0.37969  -0.37824  -0.37528  -0.37402
 Alpha  occ. eigenvalues --   -0.37262  -0.37008  -0.36986  -0.36866  -0.36581
 Alpha  occ. eigenvalues --   -0.36450  -0.36418  -0.36293  -0.36157  -0.36040
 Alpha  occ. eigenvalues --   -0.35863  -0.35859  -0.35769  -0.35361  -0.35121
 Alpha  occ. eigenvalues --   -0.34954  -0.34910  -0.34074  -0.33969  -0.33664
 Alpha  occ. eigenvalues --   -0.33514  -0.33289  -0.32903  -0.32757  -0.32629
 Alpha  occ. eigenvalues --   -0.32534  -0.31595  -0.31466  -0.31313  -0.30825
 Alpha  occ. eigenvalues --   -0.30798  -0.30413  -0.30036  -0.29445  -0.29396
 Alpha  occ. eigenvalues --   -0.29031  -0.28970  -0.28443  -0.26759  -0.26663
 Alpha  occ. eigenvalues --   -0.26368  -0.26254  -0.25873  -0.25772  -0.25354
 Alpha  occ. eigenvalues --   -0.25241  -0.24855  -0.24260  -0.21001  -0.20585
 Alpha  occ. eigenvalues --   -0.18891  -0.18757
 Alpha virt. eigenvalues --   -0.11087  -0.11037  -0.06006  -0.05503  -0.04381
 Alpha virt. eigenvalues --   -0.04190  -0.03146  -0.02194  -0.01759  -0.00018
 Alpha virt. eigenvalues --    0.00100   0.00256   0.00784   0.01328   0.01673

 Mulliken charges:
               1
     1  Mg  11.999967
     2  C    6.000002
     3  C    5.999928
     4  C    5.999972
     5  C    5.999976
     6  N    6.999994
     7  C    5.999954
     8  C    6.000025
     9  C    5.999921
    10  C    6.000183
    11  C    6.000003
    12  C    6.000023
    13  C    6.000002
    14  H    1.000009
    15  N    6.999973
    16  C    6.000176
    17  C    6.000129
    18  C    6.000030
    19  C    6.000136
    20  C    5.999981
    21  C    6.000062
    22  O    8.000126
    23  C    5.999978
    24  N    7.000061
    25  C    6.000114
    26  C    5.999987
    27  C    6.000017
    28  C    5.999853
    29  C    5.999988
    30  C    6.000052
    31  C    6.000003
    32  N    7.000012
    33  C    5.999840
    34  C    5.999899
    35  C    5.999926
    36  C    5.999927
    37  C    5.999941
    38  C    5.999955
    39  O    7.999819
    40  C    6.000009
    41  C    5.999985
    42  O    7.999928
    43  O    8.000014
    44  C    6.000019
    45  H    1.000049
    46  H    1.000042
    47  H    0.999961
    48  H    1.000025
    49  H    1.000012
    50  H    1.000064
    51  H    1.000017
    52  H    1.000040
    53  H    0.999934
    54  H    1.000013
    55  H    0.999967
    56  H    0.999986
    57  H    1.000099
    58  H    1.000141
    59  H    1.000064
    60  H    1.000049
    61  H    1.000039
    62  H    1.000094
    63  H    0.999968
    64  H    0.999994
    65  H    1.000019
    66  H    1.000054
    67  H    0.999979
    68  H    0.999982
    69  H    0.999937
    70  H    1.000013
    71  H    0.999990
    72  H    0.999955
    73  H    0.999916
    74  H    0.999909
    75  H    0.999888
    76  H    0.999973
    77  H    0.999978
    78  H    0.999968
    79  H    0.999980
    80  Mg  11.998005
    81  C    5.981974
    82  C    6.012251
    83  C    6.013410
    84  C    5.985056
    85  N    6.996607
    86  C    6.024938
    87  C    5.996660
    88  C    6.001625
    89  C    5.972130
    90  C    6.001194
    91  C    5.995363
    92  C    5.999094
    93  H    1.006293
    94  N    7.009574
    95  C    5.958453
    96  C    5.982012
    97  C    5.987804
    98  C    5.968976
    99  C    6.004317
   100  C    5.990528
   101  O    7.978021
   102  C    6.002633
   103  N    6.996495
   104  C    5.970383
   105  C    6.010889
   106  C    5.987946
   107  C    6.035039
   108  C    6.003045
   109  C    6.000967
   110  C    5.992210
   111  N    6.997411
   112  C    6.042496
   113  C    6.027874
   114  C    6.000726
   115  C    6.026206
   116  C    6.001739
   117  C    6.019262
   118  O    8.030801
   119  C    5.997206
   120  C    6.002685
   121  O    8.005731
   122  O    8.001549
   123  C    5.997896
   124  H    0.991076
   125  H    0.996521
   126  H    1.009282
   127  H    0.998401
   128  H    0.999639
   129  H    0.986667
   130  H    1.002209
   131  H    0.998360
   132  H    1.011805
   133  H    0.997319
   134  H    0.994366
   135  H    1.002781
   136  H    0.981796
   137  H    0.985363
   138  H    0.983507
   139  H    0.989315
   140  H    0.989040
   141  H    0.988787
   142  H    0.999390
   143  H    1.004326
   144  H    1.008246
   145  H    0.994155
   146  H    0.995505
   147  H    1.009424
   148  H    1.000092
   149  H    1.008191
   150  H    0.996127
   151  H    1.001740
   152  H    1.015833
   153  H    1.011835
   154  H    1.014703
   155  H    1.009160
   156  H    1.004351
   157  H    1.005792
   158  H    0.999421
 Sum of Mulliken charges = 624.00000

 Dipole moment (field-independent basis, Debye):
    X=              5.1781    Y=             -8.4418    Z=              0.5252  Tot=              9.9173
 Quadrupole moment (field-independent basis, Debye-Ang):
   XX=            244.5629   YY=            -10.0935   ZZ=              1.0298
   XY=           -196.8760   XZ=              9.6098   YZ=              0.5323

 Normal termination of Gaussian 16 at Thu Oct 14 07:18:18 2021.
