 Gaussian 16, Revision A.03,
 Gaussian 16:  ES64L-G16RevA.03 25-Dec-2016

 --------------------------------------------------------
 #p PBE1PBE/Def2SVP td=(nstates=5) density=(transition=1)
 --------------------------------------------------------

 --------------------------------
 TDDFT excited states in gaussian
 --------------------------------
 Symbolic Z-matrix:
 Charge =  0 Multiplicity = 1

                         Standard orientation:
 ---------------------------------------------------------------------
 Center     Atomic      Atomic             Coordinates (Angstroms)
 Number     Number       Type             X           Y           Z
 ---------------------------------------------------------------------
      1         12           0       20.331123   -0.709809    0.267959
      2          6           0       19.625884    2.114816   -1.671057
      3          6           0       21.529473    1.198222    2.653984
      4          6           0       21.673909   -3.495987    1.763933
      5          6           0       19.522027   -2.758959   -2.491002
      6          7           0       20.435008    1.386368    0.459212
      7          6           0       20.047974    2.399813   -0.389820
      8          6           0       20.128525    3.763581    0.283872
      9          6           0       20.951093    3.428704    1.569319
     10          6           0       20.884009    1.942203    1.625811
     11          6           0       22.333945    4.017092    1.748304
     12          6           0       18.751897    4.464845    0.514879
     13          6           0       18.826326    5.849574    1.167378
     14          1           0       18.086190    6.967414    0.447567
     15          7           0       21.559501   -1.099522    2.031657
     16          6           0       21.813959   -0.153766    2.959835
     17          6           0       22.438776   -0.766011    4.099449
     18          6           0       22.586488   -2.131962    3.803004
     19          6           0       21.934966   -2.284801    2.473712
     20          6           0       22.891309   -0.001783    5.325720
     21          6           0       23.146382   -3.236685    4.637910
     22          8           0       23.379435   -4.414567    4.255630
     23          6           0       23.450541   -3.002029    6.112494
     24          7           0       20.581504   -2.777497   -0.294652
     25          6           0       21.223781   -3.691077    0.469872
     26          6           0       21.016028   -5.171010   -0.162553
     27          6           0       19.926792   -4.904636   -1.260095
     28          6           0       19.928688   -3.411711   -1.339723
     29          6           0       22.402114   -5.698830   -0.703389
     30          6           0       18.502129   -5.330522   -0.748750
     31          6           0       18.006250   -4.812223    0.592230
     32          7           0       19.623920   -0.426189   -1.735531
     33          6           0       19.355106   -1.371447   -2.687004
     34          6           0       18.913727   -0.696093   -3.817649
     35          6           0       18.995651    0.700990   -3.551262
     36          6           0       19.438363    0.816353   -2.259787
     37          6           0       18.531945   -1.245060   -5.147012
     38          6           0       18.823253    2.080308   -4.060915
     39          8           0       18.509360    2.544552   -5.151006
     40          6           0       19.137693    3.055732   -2.798299
     41          6           0       20.023272    4.176466   -3.212406
     42          8           0       20.955235    4.084952   -4.065641
     43          8           0       19.536302    5.278181   -2.657540
     44          6           0       19.969026    6.504679   -3.299511
     45          1           0       21.835518    1.781592    3.525025
     46          1           0       22.063627   -4.397515    2.242634
     47          1           0       19.159375   -3.426768   -3.273971
     48          1           0       20.624056    4.392955   -0.455586
     49          1           0       20.449746    3.737823    2.487131
     50          1           0       22.576121    4.895855    1.150652
     51          1           0       23.076970    3.237408    1.578515
     52          1           0       22.489457    4.137678    2.820577
     53          1           0       18.101582    3.811529    1.097143
     54          1           0       18.243949    4.571206   -0.443093
     55          1           0       19.799642    6.312390    1.005381
     56          1           0       18.572941    5.802801    2.226897
     57          1           0       22.824915    1.082757    5.240127
     58          1           0       23.954653   -0.061543    5.556443
     59          1           0       22.354985   -0.280413    6.233337
     60          1           0       24.300771   -2.323240    6.173189
     61          1           0       23.903254   -3.876234    6.579830
     62          1           0       22.573601   -2.712204    6.692485
     63          1           0       20.700294   -5.861035    0.619944
     64          1           0       20.326739   -5.359391   -2.166350
     65          1           0       23.255811   -5.119604   -0.351100
     66          1           0       22.491707   -5.684883   -1.789734
     67          1           0       22.645496   -6.706097   -0.368403
     68          1           0       18.647137   -6.410725   -0.730315
     69          1           0       17.688620   -5.125109   -1.443874
     70          1           0       18.826005   -4.348689    1.141502
     71          1           0       17.452520   -5.517886    1.210569
     72          1           0       17.233478   -4.103544    0.294306
     73          1           0       17.761654   -2.015804   -5.110450
     74          1           0       19.437823   -1.717796   -5.525392
     75          1           0       18.237870   -0.468280   -5.852123
     76          1           0       18.162207    3.472487   -2.548942
     77          1           0       19.125786    7.188450   -3.404720
     78          1           0       20.371115    6.406624   -4.307598
     79          1           0       20.706378    6.947132   -2.628904
     80         12           0      -20.861291   -0.437392   -0.312551
     81          6           0      -18.809179    2.323909    0.171729
     82          6           0      -23.440161    1.388012    1.025536
     83          6           0      -22.849288   -3.249885   -0.542008
     84          6           0      -18.101348   -2.404329   -1.127690
     85          7           0      -21.093590    1.649055    0.407165
     86          6           0      -20.175957    2.630935    0.416744
     87          6           0      -20.723899    4.028565    0.788250
     88          6           0      -22.182067    3.655059    1.296293
     89          6           0      -22.271182    2.095609    0.933721
     90          6           0      -22.294453    3.995127    2.825244
     91          6           0      -20.688400    4.922814   -0.555367
     92          6           0      -19.948024    6.289472   -0.462152
     93          1           0      -19.792305    6.834585    1.003572
     94          7           0      -22.831305   -0.937966    0.221415
     95          6           0      -23.763781    0.010884    0.689253
     96          6           0      -25.080132   -0.590882    0.684453
     97          6           0      -24.931403   -1.926783    0.290792
     98          6           0      -23.487095   -2.088862   -0.118202
     99          6           0      -26.275468    0.104673    1.351199
    100          6           0      -26.019222   -3.031527    0.226869
    101          8           0      -25.827178   -4.206230   -0.138914
    102          6           0      -27.468475   -2.643246    0.566776
    103          7           0      -20.457990   -2.535561   -0.699867
    104          6           0      -21.523726   -3.482146   -0.788228
    105          6           0      -20.961452   -4.907142   -0.972757
    106          6           0      -19.468988   -4.572597   -1.441381
    107          6           0      -19.339261   -3.062314   -1.111801
    108          6           0      -21.142955   -5.694519    0.314422
    109          6           0      -19.278051   -4.821879   -2.996840
    110          6           0      -20.186106   -4.227185   -4.126603
    111          7           0      -18.872459   -0.176020   -0.385483
    112          6           0      -17.839242   -1.058214   -0.716126
    113          6           0      -16.596325   -0.359089   -0.665921
    114          6           0      -16.914505    0.954613   -0.372298
    115          6           0      -18.303759    1.020094   -0.102067
    116          6           0      -15.206705   -0.937870   -0.837195
    117          6           0      -16.363725    2.238012   -0.184795
    118          8           0      -15.210750    2.531142   -0.170346
    119          6           0      -17.567347    3.151542    0.292917
    120          6           0      -17.265753    3.522431    1.718634
    121          8           0      -17.835644    3.047137    2.678537
    122          8           0      -16.263633    4.409204    1.698452
    123          6           0      -15.579307    4.512531    2.964014
    124          1           0      -24.286024    1.983992    1.373814
    125          1           0      -23.425259   -4.162452   -0.378907
    126          1           0      -17.224795   -3.009728   -1.369862
    127          1           0      -20.148226    4.566788    1.541012
    128          1           0      -22.994060    4.148100    0.761308
    129          1           0      -22.793380    3.238954    3.431824
    130          1           0      -22.879057    4.911214    2.745732
    131          1           0      -21.295338    4.276208    3.157353
    132          1           0      -21.714141    4.999776   -0.915358
    133          1           0      -20.184347    4.322836   -1.313430
    134          1           0      -20.604039    6.918848   -1.062532
    135          1           0      -18.954774    6.306776   -0.909790
    136          1           0      -26.663971   -0.582014    2.103706
    137          1           0      -27.073285    0.231575    0.618197
    138          1           0      -25.961514    1.059518    1.771730
    139          1           0      -27.509880   -2.499871    1.647305
    140          1           0      -28.063176   -3.534655    0.367927
    141          1           0      -27.815154   -1.881996   -0.131661
    142          1           0      -21.492863   -5.301101   -1.839561
    143          1           0      -18.770548   -5.263370   -0.970414
    144          1           0      -22.002546   -5.366883    0.899339
    145          1           0      -20.256672   -5.611101    0.943009
    146          1           0      -21.350699   -6.742655    0.100108
    147          1           0      -19.214079   -5.898987   -3.151580
    148          1           0      -18.320801   -4.339486   -3.194665
    149          1           0      -21.017605   -4.912610   -4.291236
    150          1           0      -19.549331   -4.177973   -5.010667
    151          1           0      -20.505344   -3.193145   -3.992546
    152          1           0      -15.070113   -1.401478   -1.814352
    153          1           0      -15.148784   -1.703007   -0.063311
    154          1           0      -14.391948   -0.212820   -0.860498
    155          1           0      -17.728712    4.094339   -0.230074
    156          1           0      -14.522709    4.764362    2.876083
    157          1           0      -15.699932    3.760283    3.743421
    158          1           0      -15.939040    5.332994    3.585304
 ---------------------------------------------------------------------

 SCF Done:  E(RPBE1PBE) =  -4067.39035609     A.U. after   17 cycles

 Excitation energies and oscillator strengths:

 Excited State   1:      Singlet-A      1.7770 eV  697.73 nm  f=0.0000  <S**2>=0.000
     312 -> 313        0.70711
 This state for optimization and/or second-order correction.
 Total Energy, E(TD-HF/TD-DFT) =  -4067.32505364
 Copying the excited state density for this state as the 1-particle RhoCI density.

 Excited State   2:      Singlet-A      1.8526 eV  669.26 nm  f=0.4089  <S**2>=0.000
     309 -> 316       -0.15462
     311 -> 313        0.68844
     312 -> 314       -0.10387
     311 <- 313       -0.11038

 Excited State   3:      Singlet-A      1.8556 eV  668.17 nm  f=0.3448  <S**2>=0.000
     310 -> 315       -0.16788
     311 -> 313        0.10430
     312 -> 314        0.68537
     312 <- 314       -0.10657

 Excited State   4:      Singlet-A      2.1757 eV  569.87 nm  f=0.0000  <S**2>=0.000
     311 -> 314        0.70710

 Excited State   5:      Singlet-A      2.2280 eV  556.47 nm  f=0.1205  <S**2>=0.000
     310 -> 314        0.65667
     312 -> 315        0.24643

 The electronic state is 1-A.
 Alpha  occ. eigenvalues --  -46.92773 -46.91478 -19.27349 -19.26702 -19.20186
 Alpha  occ. eigenvalues --  -19.19422 -19.19354 -19.19114 -19.19002 -19.18920
 Alpha  occ. eigenvalues --  -14.42350 -14.41716 -14.41388 -14.40941 -14.39322
 Alpha  occ. eigenvalues --  -14.39249 -14.38652 -14.37881 -10.36328 -10.36218
 Alpha  occ. eigenvalues --  -10.32671 -10.32445 -10.32216 -10.31747 -10.29609
 Alpha  occ. eigenvalues --  -10.29284 -10.29194 -10.28877 -10.28706 -10.28511
 Alpha  occ. eigenvalues --  -10.28240 -10.28214 -10.28184 -10.28040 -10.27987
 Alpha  occ. eigenvalues --  -10.27742 -10.27678 -10.27628 -10.27570 -10.27379
 Alpha  occ. eigenvalues --  -10.27071 -10.26776 -10.26381 -10.26359 -10.26341
 Alpha  occ. eigenvalues --  -10.26274 -10.26234 -10.26155 -10.26101 -10.26001
 Alpha  occ. eigenvalues --  -10.25834 -10.25680 -10.25669 -10.25623 -10.25622
 Alpha  occ. eigenvalues --  -10.25589 -10.25569 -10.25540 -10.25338 -10.25260
 Alpha  occ. eigenvalues --  -10.25229 -10.24996 -10.24924 -10.24730 -10.24719
 Alpha  occ. eigenvalues --  -10.24696 -10.24529 -10.24289 -10.24265 -10.24228
 Alpha  occ. eigenvalues --  -10.24221 -10.24155 -10.23889 -10.23749 -10.23517
 Alpha  occ. eigenvalues --  -10.23342 -10.23217 -10.23199 -10.23148 -10.23011
 Alpha  occ. eigenvalues --  -10.22925 -10.22870 -10.22787 -10.22541 -10.22299
 Alpha  occ. eigenvalues --  -10.22143  -3.14746  -3.13659  -1.87595  -1.87089
 Alpha  occ. eigenvalues --   -1.86982  -1.86501  -1.86010  -1.85905  -1.12973
 Alpha  occ. eigenvalues --   -1.12847  -1.06587  -1.03788  -1.03751  -1.03207
 Alpha  occ. eigenvalues --   -1.02851  -1.00796  -0.99905  -0.98947  -0.98688
 Alpha  occ. eigenvalues --   -0.98107  -0.97895  -0.97293  -0.97225  -0.95993
 Alpha  occ. eigenvalues --   -0.87018  -0.86304  -0.83841  -0.83570  -0.82940
 Alpha  occ. eigenvalues --   -0.82605  -0.82349  -0.82153  -0.82033  -0.81453
 Alpha  occ. eigenvalues --   -0.81327  -0.80815  -0.80373  -0.80229  -0.79113
 Alpha  occ. eigenvalues --   -0.78191  -0.78094  -0.77630  -0.77177  -0.76539
 Alpha  occ. eigenvalues --   -0.76059  -0.75651  -0.75489  -0.75191  -0.74861
 Alpha  occ. eigenvalues --   -0.74200  -0.72943  -0.72060  -0.71957  -0.71682
 Alpha  occ. eigenvalues --   -0.71383  -0.71015  -0.70520  -0.70102  -0.69588
 Alpha  occ. eigenvalues --   -0.69351  -0.67351  -0.67281  -0.66156  -0.65644
 Alpha  occ. eigenvalues --   -0.64186  -0.63584  -0.63234  -0.63070  -0.62646
 Alpha  occ. eigenvalues --   -0.62318  -0.62260  -0.60869  -0.60266  -0.59883
 Alpha  occ. eigenvalues --   -0.59808  -0.59293  -0.59072  -0.59072  -0.59024
 Alpha  occ. eigenvalues --   -0.58392  -0.57367  -0.56916  -0.55415  -0.54448
 Alpha  occ. eigenvalues --   -0.54287  -0.53926  -0.53882  -0.53543  -0.53167
 Alpha  occ. eigenvalues --   -0.52755  -0.52595  -0.52152  -0.51889  -0.51830
 Alpha  occ. eigenvalues --   -0.50796  -0.50694  -0.50554  -0.50333  -0.50304
 Alpha  occ. eigenvalues --   -0.50023  -0.49941  -0.49512  -0.49033  -0.48939
 Alpha  occ. eigenvalues --   -0.48500  -0.48040  -0.47805  -0.47762  -0.47520
 Alpha  occ. eigenvalues --   -0.47304  -0.47075  -0.47014  -0.46807  -0.46518
 Alpha  occ. eigenvalues --   -0.46378  -0.46317  -0.46211  -0.46161  -0.45616
 Alpha  occ. eigenvalues --   -0.45566  -0.45235  -0.45090  -0.44863  -0.44699
 Alpha  occ. eigenvalues --   -0.44435  -0.44407  -0.44114  -0.44058  -0.43822
 Alpha  occ. eigenvalues --   -0.43703  -0.43530  -0.43525  -0.43280  -0.43263
 Alpha  occ. eigenvalues --   -0.43059  -0.42969  -0.42924  -0.42722  -0.42601
 Alpha  occ. eigenvalues --   -0.42449  -0.42177  -0.42014  -0.41692  -0.41660
 Alpha  occ. eigenvalues --   -0.41517  -0.41348  -0.41188  -0.41030  -0.41029
 Alpha  occ. eigenvalues --   -0.40934  -0.40748  -0.40663  -0.40420  -0.40263
 Alpha  occ. eigenvalues --   -0.40209  -0.40010  -0.39748  -0.39667  -0.39592
 Alpha  occ. eigenvalues --   -0.39504  -0.39238  -0.39212  -0.39056  -0.38950
 Alpha  occ. eigenvalues --   -0.38653  -0.38540  -0.38469  -0.38383  -0.38181
 Alpha  occ. eigenvalues --   -0.38155  -0.38043  -0.37883  -0.37758  -0.37576
 Alpha  occ. eigenvalues --   -0.37486  -0.37481  -0.37293  -0.37251  -0.37041
 Alpha  occ. eigenvalues --   -0.36872  -0.36630  -0.36474  -0.36260  -0.36216
 Alpha  occ. eigenvalues --   -0.36162  -0.35701  -0.35695  -0.35646  -0.35338
 Alpha  occ. eigenvalues --   -0.35177  -0.34537  -0.34494  -0.34200  -0.34091
 Alpha  occ. eigenvalues --   -0.33640  -0.32845  -0.32676  -0.32470  -0.32343
 Alpha  occ. eigenvalues --   -0.32082  -0.31995  -0.31939  -0.31638  -0.31541
 Alpha  occ. eigenvalues --   -0.31356  -0.31205  -0.29609  -0.29294  -0.29214
 Alpha  occ. eigenvalues --   -0.29187  -0.28260  -0.28254  -0.27379  -0.27134
 Alpha  occ. eigenvalues --   -0.26363  -0.26141  -0.25615  -0.25584  -0.25469
 Alpha  occ. eigenvalues --   -0.25256  -0.25165  -0.24421  -0.20999  -0.20681
 Alpha  occ. eigenvalues --   -0.19324  -0.18608
 Alpha virt. eigenvalues --   -0.11762  -0.11004  -0.04920  -0.04913  -0.04118
 Alpha virt. eigenvalues --   -0.03631  -0.02060  -0.01913  -0.01040  -0.00327
 Alpha virt. eigenvalues --   -0.00266   0.00528   0.00549   0.01613   0.01643

 Mulliken charges:
               1
     1  Mg  12.000000
     2  C    6.000000
     3  C    6.000000
     4  C    6.000000
     5  C    6.000000
     6  N    7.000000
     7  C    6.000000
     8  C    6.000000
     9  C    6.000000
    10  C    6.000000
    11  C    6.000000
    12  C    6.000000
    13  C    6.000000
    14  H    1.000000
    15  N    7.000000
    16  C    6.000000
    17  C    6.000000
    18  C    6.000000
    19  C    6.000000
    20  C    6.000000
    21  C    6.000000
    22  O    8.000000
    23  C    6.000000
    24  N    7.000000
    25  C    6.000000
    26  C    6.000000
    27  C    6.000000
    28  C    6.000000
    29  C    6.000000
    30  C    6.000000
    31  C    6.000000
    32  N    7.000000
    33  C    6.000000
    34  C    6.000000
    35  C    6.000000
    36  C    6.000000
    37  C    6.000000
    38  C    6.000000
    39  O    8.000000
    40  C    6.000000
    41  C    6.000000
    42  O    8.000000
    43  O    8.000000
    44  C    6.000000
    45  H    1.000000
    46  H    1.000000
    47  H    1.000000
    48  H    1.000000
    49  H    1.000000
    50  H    1.000000
    51  H    1.000000
    52  H    1.000000
    53  H    1.000000
    54  H    1.000000
    55  H    1.000000
    56  H    1.000000
    57  H    1.000000
    58  H    1.000000
    59  H    1.000000
    60  H    1.000000
    61  H    1.000000
    62  H    1.000000
    63  H    1.000000
    64  H    1.000000
    65  H    1.000000
    66  H    1.000000
    67  H    1.000000
    68  H    1.000000
    69  H    1.000000
    70  H    1.000000
    71  H    1.000000
    72  H    1.000000
    73  H    1.000000
    74  H    1.000000
    75  H    1.000000
    76  H    1.000000
    77  H    1.000000
    78  H    1.000000
    79  H    1.000000
    80  Mg  12.000000
    81  C    6.000000
    82  C    6.000000
    83  C    6.000000
    84  C    6.000000
    85  N    7.000000
    86  C    6.000000
    87  C    6.000000
    88  C    6.000000
    89  C    6.000000
    90  C    6.000000
    91  C    6.000000
    92  C    6.000000
    93  H    1.000000
    94  N    7.000000
    95  C    6.000000
    96  C    6.000000
    97  C    6.000000
    98  C    6.000000
    99  C    6.000000
   100  C    6.000000
   101  O    8.000000
   102  C    6.000000
   103  N    7.000000
   104  C    6.000000
   105  C    6.000000
   106  C    6.000000
   107  C    6.000000
   108  C    6.000000
   109  C    6.000000
   110  C    6.000000
   111  N    7.000000
   112  C    6.000000
   113  C    6.000000
   114  C    6.000000
   115  C    6.000000
   116  C    6.000000
   117  C    6.000000
   118  O    8.000000
   119  C    6.000000
   120  C    6.000000
   121  O    8.000000
   122  O    8.000000
   123  C    6.000000
   124  H    1.000000
   125  H    1.000000
   126  H    1.000000
   127  H    1.000000
   128  H    1.000000
   129  H    1.000000
   130  H    1.000000
   131  H    1.000000
   132  H    1.000000
   133  H    1.000000
   134  H    1.000000
   135  H    1.000000
   136  H    1.000000
   137  H    1.000000
   138  H    1.000000
   139  H    1.000000
   140  H    1.000000
   141  H    1.000000
   142  H    1.000000
   143  H    1.000000
   144  H    1.000000
   145  H    1.000000
   146  H    1.000000
   147  H    1.000000
   148  H    1.000000
   149  H    1.000000
   150  H    1.000000
   151  H    1.000000
   152  H    1.000000
   153  H    1.000000
   154  H    1.000000
   155  H    1.000000
   156  H    1.000000
   157  H    1.000000
   158  H    1.000000
 Sum of Mulliken charges = 624.00000

 Dipole moment (field-independent basis, Debye):
    X=              0.0000    Y=              0.0000    Z=              0.0000  Tot=              0.0000
 Quadrupole moment (field-independent basis, Debye-Ang):
   XX=             -0.0000   YY=              0.0000   ZZ=             -0.0000
   XY=             -0.0000   XZ=              0.0000   YZ=             -0.0000

 Normal termination of Gaussian 16 at Thu Oct 14 09:16:32 2021.
