 Gaussian 16, Revision A.03,
 Gaussian 16:  ES64L-G16RevA.03 25-Dec-2016

 --------------------------------------------------------
 #p PBE1PBE/Def2SVP td=(nstates=5) density=(transition=1)
 --------------------------------------------------------

 --------------------------------
 TDDFT excited states in gaussian
 --------------------------------
 Symbolic Z-matrix:
 Charge =  0 Multiplicity = 1

                         Standard orientation:
 ---------------------------------------------------------------------
 Center     Atomic      Atomic             Coordinates (Angstroms)
 Number     Number       Type             X           Y           Z
 ---------------------------------------------------------------------
      1         12           0      -13.177112   -0.253656   -0.332872
      2          6           0       -9.892359   -0.066963    0.673683
      3          6           0      -13.801878    2.654885    1.513380
      4          6           0      -16.436507   -0.412910   -1.196216
      5          6           0      -12.583340   -3.261928   -1.787171
      6          7           0      -11.994392    0.984647    1.174356
      7          6           0      -10.594399    0.979238    1.209758
      8          6           0      -10.027074    2.247666    1.877171
      9          6           0      -11.356841    3.017296    2.214870
     10          6           0      -12.482220    2.233642    1.574250
     11          6           0      -11.568993    3.216263    3.710312
     12          6           0       -9.005430    3.145006    1.092897
     13          6           0       -7.484959    3.204824    1.660589
     14          1           0       -7.084516    4.637949    2.024313
     15          7           0      -14.876437    0.858206    0.162096
     16          6           0      -14.894072    2.094023    0.828721
     17          6           0      -16.199432    2.750488    0.701957
     18          6           0      -17.088181    1.813128   -0.056943
     19          6           0      -16.144222    0.700253   -0.472747
     20          6           0      -16.507385    4.103068    1.305492
     21          6           0      -18.498694    1.892709   -0.407962
     22          8           0      -19.048580    0.932253   -0.966910
     23          6           0      -19.373142    3.084853   -0.060908
     24          7           0      -14.287857   -1.653199   -1.243701
     25          6           0      -15.627086   -1.472351   -1.636066
     26          6           0      -16.202925   -2.597333   -2.587840
     27          6           0      -14.884077   -3.520987   -2.714448
     28          6           0      -13.846339   -2.746416   -1.870891
     29          6           0      -17.479731   -3.379378   -2.001822
     30          6           0      -14.450569   -3.711359   -4.208668
     31          6           0      -13.916773   -5.047791   -4.619730
     32          7           0      -11.549165   -1.490365   -0.426068
     33          6           0      -11.438262   -2.698105   -1.121046
     34          6           0      -10.087981   -3.146358   -1.149768
     35          6           0       -9.400195   -2.049943   -0.509599
     36          6           0      -10.362911   -1.145552   -0.043748
     37          6           0       -9.468804   -4.326076   -1.773387
     38          6           0       -8.121550   -1.634060   -0.024416
     39          8           0       -6.968342   -2.069792   -0.113024
     40          6           0       -8.432114   -0.375186    0.906048
     41          6           0       -8.058570   -0.711496    2.305434
     42          8           0       -8.750400   -1.051733    3.182768
     43          8           0       -6.707626   -0.447654    2.518915
     44          6           0       -6.347389   -0.167607    3.893302
     45          1           0      -13.968993    3.609069    2.017483
     46          1           0      -17.443397   -0.545929   -1.597220
     47          1           0      -12.357392   -4.150665   -2.380023
     48          1           0       -9.558022    1.963195    2.818451
     49          1           0      -11.334682    4.042886    1.845347
     50          1           0      -12.443365    2.643556    4.018319
     51          1           0      -11.775842    4.283478    3.780382
     52          1           0      -10.704213    3.018886    4.343439
     53          1           0       -9.403099    4.159936    1.070476
     54          1           0       -8.882118    2.799235    0.066479
     55          1           0       -6.905120    2.911656    0.785230
     56          1           0       -7.373300    2.543728    2.519709
     57          1           0      -16.591851    3.950440    2.382155
     58          1           0      -17.461189    4.440529    0.902856
     59          1           0      -15.694811    4.821980    1.198458
     60          1           0      -20.399119    2.726358   -0.146774
     61          1           0      -19.198059    3.957935   -0.690407
     62          1           0      -19.386658    3.409340    0.979397
     63          1           0      -16.382003   -2.184564   -3.580111
     64          1           0      -15.004250   -4.544918   -2.359841
     65          1           0      -17.385860   -4.433488   -2.263692
     66          1           0      -18.446375   -3.139477   -2.443033
     67          1           0      -17.586243   -3.273249   -0.922059
     68          1           0      -13.748869   -2.957385   -4.565004
     69          1           0      -15.289188   -3.627679   -4.899645
     70          1           0      -12.867077   -4.863401   -4.847734
     71          1           0      -14.219368   -5.497508   -5.565405
     72          1           0      -14.011487   -5.752563   -3.792992
     73          1           0      -10.079248   -4.622509   -2.626817
     74          1           0       -9.536586   -5.095622   -1.004519
     75          1           0       -8.408245   -4.123673   -1.924082
     76          1           0       -7.841461    0.481915    0.583586
     77          1           0       -6.341470   -1.149506    4.365298
     78          1           0       -7.161091    0.438901    4.290646
     79          1           0       -5.356488    0.281700    3.965137
     80         12           0       13.079694   -0.211362    0.278818
     81          6           0       11.568501    2.464095   -1.342097
     82          6           0       10.428319    0.039506    2.670224
     83          6           0       14.100019   -3.022628    1.643003
     84          6           0       15.111803   -0.681147   -2.550944
     85          7           0       11.164828    1.027050    0.533643
     86          6           0       10.850347    2.122466   -0.238977
     87          6           0        9.551150    2.762170    0.258151
     88          6           0        9.407388    2.128628    1.669599
     89          6           0       10.356305    0.959601    1.634384
     90          6           0        9.702842    3.027954    2.933598
     91          6           0        8.351388    2.485105   -0.662619
     92          6           0        7.106067    3.214341   -0.330143
     93          1           0        6.048279    3.393260   -1.485206
     94          7           0       12.362748   -1.374239    1.942184
     95          6           0       11.290241   -1.089019    2.801532
     96          6           0       11.224301   -2.128562    3.790523
     97          6           0       12.212082   -3.115906    3.425074
     98          6           0       12.974293   -2.497077    2.286011
     99          6           0       10.133486   -2.175253    4.895891
    100          6           0       12.389631   -4.431461    4.189788
    101          8           0       11.806063   -4.651913    5.238053
    102          6           0       13.303321   -5.461375    3.643952
    103          7           0       14.579052   -1.518967   -0.277914
    104          6           0       14.827394   -2.585688    0.489488
    105          6           0       15.885343   -3.521607   -0.223642
    106          6           0       16.203056   -2.837504   -1.608655
    107          6           0       15.173361   -1.583416   -1.514141
    108          6           0       17.141283   -3.933438    0.588555
    109          6           0       15.842272   -3.788680   -2.769733
    110          6           0       16.679535   -3.612726   -4.042418
    111          7           0       13.356651    0.666397   -1.608607
    112          6           0       14.285265    0.461822   -2.590419
    113          6           0       14.160247    1.539570   -3.579005
    114          6           0       13.191957    2.368025   -3.078548
    115          6           0       12.679516    1.793709   -1.937404
    116          6           0       15.049294    1.742198   -4.810220
    117          6           0       12.446892    3.561433   -3.345548
    118          8           0       12.519111    4.380042   -4.228750
    119          6           0       11.368404    3.681414   -2.217492
    120          6           0       11.669374    4.914040   -1.438714
    121          8           0       12.728577    5.243101   -0.981267
    122          8           0       10.462550    5.590756   -1.190605
    123          6           0       10.567334    6.768108   -0.376476
    124          1           0        9.641387    0.256031    3.395059
    125          1           0       14.559370   -3.950458    1.991575
    126          1           0       15.777314   -0.756005   -3.413614
    127          1           0        9.773290    3.820509    0.387912
    128          1           0        8.446281    1.664193    1.887434
    129          1           0        8.821981    2.894177    3.561162
    130          1           0       10.157344    4.005247    2.768831
    131          1           0       10.495765    2.524822    3.486785
    132          1           0        7.979727    1.460082   -0.656661
    133          1           0        8.624043    2.693779   -1.697190
    134          1           0        7.408786    4.193327    0.041403
    135          1           0        6.626864    2.723450    0.516726
    136          1           0        9.529321   -2.966969    4.451720
    137          1           0        9.454832   -1.322914    4.934112
    138          1           0       10.345686   -2.395480    5.942271
    139          1           0       13.008422   -5.561721    2.599418
    140          1           0       13.089031   -6.408032    4.140220
    141          1           0       14.291655   -5.026221    3.794095
    142          1           0       15.364469   -4.463350   -0.398882
    143          1           0       17.220079   -2.462454   -1.718616
    144          1           0       17.028259   -4.979647    0.874535
    145          1           0       17.263234   -3.234660    1.415500
    146          1           0       18.016141   -3.931663   -0.061582
    147          1           0       14.788432   -3.595626   -2.968744
    148          1           0       15.842070   -4.844090   -2.496583
    149          1           0       17.105663   -4.605547   -4.190735
    150          1           0       17.418610   -2.812996   -3.992849
    151          1           0       16.031290   -3.420629   -4.897478
    152          1           0       14.540124    2.001062   -5.737981
    153          1           0       15.565887    0.783985   -4.870397
    154          1           0       15.848223    2.413058   -4.493977
    155          1           0       10.405613    3.755291   -2.723282
    156          1           0       10.388142    7.615234   -1.038634
    157          1           0       11.483430    6.951252    0.185577
    158          1           0        9.786562    6.706763    0.381152
 ---------------------------------------------------------------------

 SCF Done:  E(RPBE1PBE) =  -4067.36701184     A.U. after   15 cycles

 Excitation energies and oscillator strengths:

 Excited State   1:      Singlet-A      1.8151 eV  683.08 nm  f=0.3981  <S**2>=0.000
     310 -> 315       -0.14959
     312 -> 313        0.69576
     312 <- 313       -0.11532
 This state for optimization and/or second-order correction.
 Total Energy, E(TD-HF/TD-DFT) =  -4067.30030935
 Copying the excited state density for this state as the 1-particle RhoCI density.

 Excited State   2:      Singlet-A      1.8941 eV  654.57 nm  f=0.0000  <S**2>=0.000
     311 -> 313        0.70709

 Excited State   3:      Singlet-A      1.9037 eV  651.29 nm  f=0.3805  <S**2>=0.000
     309 -> 316       -0.17014
     311 -> 314        0.69340
     311 <- 314       -0.10642

 Excited State   4:      Singlet-A      1.9461 eV  637.08 nm  f=0.0000  <S**2>=0.000
     312 -> 314        0.70710

 Excited State   5:      Singlet-A      2.1895 eV  566.26 nm  f=0.1162  <S**2>=0.000
     310 -> 313        0.65559
     312 -> 315        0.22804

 The electronic state is 1-A.
 Alpha  occ. eigenvalues --  -46.92961 -46.91385 -19.25604 -19.22932 -19.20678
 Alpha  occ. eigenvalues --  -19.19838 -19.18909 -19.18880 -19.18626 -19.18476
 Alpha  occ. eigenvalues --  -14.42144 -14.42069 -14.41709 -14.41584 -14.39898
 Alpha  occ. eigenvalues --  -14.39650 -14.38820 -14.38394 -10.36506 -10.35190
 Alpha  occ. eigenvalues --  -10.32252 -10.31722 -10.31581 -10.31414 -10.29816
 Alpha  occ. eigenvalues --  -10.29452 -10.28988 -10.28865 -10.28848 -10.28663
 Alpha  occ. eigenvalues --  -10.28569 -10.28527 -10.28483 -10.28455 -10.28436
 Alpha  occ. eigenvalues --  -10.28369 -10.28200 -10.27935 -10.27862 -10.27359
 Alpha  occ. eigenvalues --  -10.27221 -10.27137 -10.27077 -10.26817 -10.26251
 Alpha  occ. eigenvalues --  -10.26183 -10.26137 -10.26083 -10.26079 -10.26001
 Alpha  occ. eigenvalues --  -10.25961 -10.25908 -10.25821 -10.25719 -10.25672
 Alpha  occ. eigenvalues --  -10.25565 -10.25401 -10.25398 -10.25396 -10.25174
 Alpha  occ. eigenvalues --  -10.25164 -10.25157 -10.25102 -10.25101 -10.24935
 Alpha  occ. eigenvalues --  -10.24886 -10.24602 -10.24434 -10.24222 -10.24156
 Alpha  occ. eigenvalues --  -10.23961 -10.23898 -10.23897 -10.23888 -10.23856
 Alpha  occ. eigenvalues --  -10.23650 -10.23649 -10.23612 -10.23593 -10.23378
 Alpha  occ. eigenvalues --  -10.23347 -10.23166 -10.23054 -10.22833 -10.22550
 Alpha  occ. eigenvalues --  -10.21856  -3.14965  -3.13718  -1.87811  -1.87343
 Alpha  occ. eigenvalues --   -1.87173  -1.86529  -1.86103  -1.85960  -1.11626
 Alpha  occ. eigenvalues --   -1.11356  -1.05208  -1.04583  -1.04101  -1.03655
 Alpha  occ. eigenvalues --   -1.03095  -1.02677  -0.99523  -0.99215  -0.98360
 Alpha  occ. eigenvalues --   -0.98213  -0.98102  -0.97375  -0.96642  -0.95122
 Alpha  occ. eigenvalues --   -0.87682  -0.87114  -0.83566  -0.83486  -0.83403
 Alpha  occ. eigenvalues --   -0.83035  -0.82936  -0.82777  -0.82374  -0.81792
 Alpha  occ. eigenvalues --   -0.81593  -0.80816  -0.80798  -0.80112  -0.79337
 Alpha  occ. eigenvalues --   -0.78493  -0.78282  -0.77848  -0.77249  -0.76692
 Alpha  occ. eigenvalues --   -0.76689  -0.75970  -0.75608  -0.75270  -0.75155
 Alpha  occ. eigenvalues --   -0.74634  -0.72975  -0.72017  -0.71770  -0.71636
 Alpha  occ. eigenvalues --   -0.71186  -0.71039  -0.70473  -0.69758  -0.69654
 Alpha  occ. eigenvalues --   -0.69607  -0.67709  -0.67594  -0.66410  -0.66138
 Alpha  occ. eigenvalues --   -0.63701  -0.63644  -0.63349  -0.63147  -0.62453
 Alpha  occ. eigenvalues --   -0.62227  -0.61968  -0.60971  -0.60425  -0.60145
 Alpha  occ. eigenvalues --   -0.60037  -0.59829  -0.59477  -0.59349  -0.59038
 Alpha  occ. eigenvalues --   -0.58539  -0.57245  -0.55516  -0.54649  -0.54627
 Alpha  occ. eigenvalues --   -0.54474  -0.54024  -0.53791  -0.53639  -0.53267
 Alpha  occ. eigenvalues --   -0.53180  -0.53035  -0.52909  -0.52254  -0.52169
 Alpha  occ. eigenvalues --   -0.51073  -0.51028  -0.50339  -0.50128  -0.49859
 Alpha  occ. eigenvalues --   -0.49812  -0.49418  -0.48885  -0.48548  -0.48535
 Alpha  occ. eigenvalues --   -0.48341  -0.48074  -0.47793  -0.47748  -0.47602
 Alpha  occ. eigenvalues --   -0.47445  -0.47347  -0.47254  -0.46829  -0.46494
 Alpha  occ. eigenvalues --   -0.46434  -0.46244  -0.46234  -0.46051  -0.46006
 Alpha  occ. eigenvalues --   -0.45854  -0.45422  -0.45393  -0.45251  -0.45183
 Alpha  occ. eigenvalues --   -0.44895  -0.44806  -0.44800  -0.44502  -0.44450
 Alpha  occ. eigenvalues --   -0.44435  -0.44155  -0.43894  -0.43693  -0.43503
 Alpha  occ. eigenvalues --   -0.43295  -0.43283  -0.43281  -0.42799  -0.42795
 Alpha  occ. eigenvalues --   -0.42697  -0.42695  -0.42170  -0.41953  -0.41953
 Alpha  occ. eigenvalues --   -0.41849  -0.41697  -0.41679  -0.41572  -0.41198
 Alpha  occ. eigenvalues --   -0.41049  -0.41036  -0.40989  -0.40829  -0.40787
 Alpha  occ. eigenvalues --   -0.40491  -0.40178  -0.40090  -0.40059  -0.39833
 Alpha  occ. eigenvalues --   -0.39783  -0.39478  -0.39283  -0.39082  -0.38966
 Alpha  occ. eigenvalues --   -0.38576  -0.38459  -0.38375  -0.38313  -0.38178
 Alpha  occ. eigenvalues --   -0.38121  -0.37949  -0.37827  -0.37792  -0.37723
 Alpha  occ. eigenvalues --   -0.37563  -0.37269  -0.37196  -0.37090  -0.36837
 Alpha  occ. eigenvalues --   -0.36749  -0.36600  -0.36598  -0.36324  -0.36312
 Alpha  occ. eigenvalues --   -0.36074  -0.35948  -0.35564  -0.35398  -0.35145
 Alpha  occ. eigenvalues --   -0.35116  -0.34870  -0.34675  -0.34559  -0.34037
 Alpha  occ. eigenvalues --   -0.33734  -0.33663  -0.32968  -0.32831  -0.32733
 Alpha  occ. eigenvalues --   -0.32610  -0.32180  -0.31862  -0.31450  -0.31197
 Alpha  occ. eigenvalues --   -0.31063  -0.30083  -0.29878  -0.29698  -0.29494
 Alpha  occ. eigenvalues --   -0.29213  -0.29180  -0.28646  -0.27320  -0.27122
 Alpha  occ. eigenvalues --   -0.26083  -0.25955  -0.25724  -0.25555  -0.25533
 Alpha  occ. eigenvalues --   -0.25279  -0.25043  -0.24842  -0.21481  -0.21317
 Alpha  occ. eigenvalues --   -0.19198  -0.19104
 Alpha virt. eigenvalues --   -0.11731  -0.11434  -0.05816  -0.05404  -0.04287
 Alpha virt. eigenvalues --   -0.03243  -0.02220  -0.01647  -0.00666  -0.00580
 Alpha virt. eigenvalues --    0.00388   0.00738   0.00787   0.01166   0.01652

 Mulliken charges:
               1
     1  Mg  11.997700
     2  C    6.009686
     3  C    5.989378
     4  C    5.984961
     5  C    6.006765
     6  N    7.005013
     7  C    5.975427
     8  C    6.011882
     9  C    5.991589
    10  C    6.025006
    11  C    5.998965
    12  C    6.001061
    13  C    6.003748
    14  H    0.991568
    15  N    6.999411
    16  C    6.033894
    17  C    6.028617
    18  C    6.012457
    19  C    6.027967
    20  C    5.998028
    21  C    6.011169
    22  O    8.030005
    23  C    5.993667
    24  N    6.998595
    25  C    6.032562
    26  C    5.986713
    27  C    6.012268
    28  C    5.969168
    29  C    5.997359
    30  C    6.005520
    31  C    5.999638
    32  N    6.999437
    33  C    5.965041
    34  C    5.972891
    35  C    5.995186
    36  C    5.975252
    37  C    6.000065
    38  C    5.983875
    39  O    7.967661
    40  C    6.000357
    41  C    5.999167
    42  O    7.991989
    43  O    8.000323
    44  C    6.002006
    45  H    1.008174
    46  H    1.006566
    47  H    0.990453
    48  H    0.997385
    49  H    0.999842
    50  H    0.997116
    51  H    0.999939
    52  H    1.012340
    53  H    0.990961
    54  H    1.002585
    55  H    1.002883
    56  H    1.002032
    57  H    1.019601
    58  H    1.013912
    59  H    1.019283
    60  H    1.013436
    61  H    1.009966
    62  H    1.007734
    63  H    1.002489
    64  H    0.996692
    65  H    1.010402
    66  H    0.998276
    67  H    0.998490
    68  H    0.999373
    69  H    0.988871
    70  H    1.004856
    71  H    0.995053
    72  H    0.999890
    73  H    0.982639
    74  H    0.982127
    75  H    0.987319
    76  H    0.989018
    77  H    0.997872
    78  H    0.993959
    79  H    0.995432
    80  Mg  11.999943
    81  C    6.000383
    82  C    6.000016
    83  C    5.999544
    84  C    6.000120
    85  N    7.000145
    86  C    5.999630
    87  C    6.000059
    88  C    5.999915
    89  C    6.000448
    90  C    5.999950
    91  C    5.999897
    92  C    5.999766
    93  H    1.000654
    94  N    6.999899
    95  C    6.000542
    96  C    6.000214
    97  C    6.000215
    98  C    6.000483
    99  C    5.999855
   100  C    6.000186
   101  O    8.000280
   102  C    5.999938
   103  N    6.999919
   104  C    6.000455
   105  C    5.999938
   106  C    6.000027
   107  C    5.999641
   108  C    6.000012
   109  C    6.000061
   110  C    6.000037
   111  N    7.000012
   112  C    5.999493
   113  C    5.999651
   114  C    5.999918
   115  C    5.999597
   116  C    6.000027
   117  C    5.999779
   118  O    7.999488
   119  C    6.000063
   120  C    5.999879
   121  O    7.999795
   122  O    8.000093
   123  C    6.000106
   124  H    1.000392
   125  H    0.999969
   126  H    0.999698
   127  H    0.999866
   128  H    1.000418
   129  H    1.000241
   130  H    0.999966
   131  H    0.999774
   132  H    1.000307
   133  H    1.000035
   134  H    0.999691
   135  H    1.000265
   136  H    1.000548
   137  H    1.000355
   138  H    1.000098
   139  H    1.000232
   140  H    1.000133
   141  H    0.999913
   142  H    1.000043
   143  H    0.999784
   144  H    0.999936
   145  H    0.999873
   146  H    0.999925
   147  H    1.000165
   148  H    0.999849
   149  H    0.999822
   150  H    0.999875
   151  H    1.000060
   152  H    0.999740
   153  H    0.999756
   154  H    0.999542
   155  H    1.000050
   156  H    0.999823
   157  H    0.999776
   158  H    1.000006
 Sum of Mulliken charges = 624.00000

 Dipole moment (field-independent basis, Debye):
    X=             -8.8802    Y=              5.8841    Z=              1.4857  Tot=             10.7558
 Quadrupole moment (field-independent basis, Debye-Ang):
   XX=            228.4185   YY=             -2.2871   ZZ=             -1.6406
   XY=            -79.4140   XZ=            -15.9951   YZ=             -1.7806

 Normal termination of Gaussian 16 at Fri Oct 15 14:25:35 2021.
