 Gaussian 16, Revision A.03,
 Gaussian 16:  ES64L-G16RevA.03 25-Dec-2016

 --------------------------------------------------------
 #p PBE1PBE/Def2SVP td=(nstates=5) density=(transition=1)
 --------------------------------------------------------

 --------------------------------
 TDDFT excited states in gaussian
 --------------------------------
 Symbolic Z-matrix:
 Charge =  0 Multiplicity = 1

                         Standard orientation:
 ---------------------------------------------------------------------
 Center     Atomic      Atomic             Coordinates (Angstroms)
 Number     Number       Type             X           Y           Z
 ---------------------------------------------------------------------
      1         12           0       19.750794    0.442317   -0.105051
      2          6           0       19.011202   -2.972273    0.495200
      3          6           0       16.537998    1.159312    0.726500
      4          6           0       20.689365    3.702320    0.120457
      5          6           0       23.088987   -0.440498   -0.404797
      6          7           0       18.083464   -0.862962    0.684137
      7          6           0       17.930421   -2.221783    0.763287
      8          6           0       16.543290   -2.606097    1.122619
      9          6           0       15.713548   -1.263714    0.853888
     10          6           0       16.813272   -0.261559    0.763886
     11          6           0       14.860698   -1.365851   -0.400386
     12          6           0       16.576307   -3.140213    2.563192
     13          6           0       15.969024   -4.582470    2.825903
     14          1           0       14.854834   -4.810520    3.891397
     15          7           0       18.798984    2.224229    0.306532
     16          6           0       17.419154    2.299776    0.541855
     17          6           0       17.054510    3.684680    0.546901
     18          6           0       18.241483    4.480056    0.405152
     19          6           0       19.305426    3.462425    0.193037
     20          6           0       15.596636    4.107283    0.674986
     21          6           0       18.384593    5.985583    0.417979
     22          8           0       17.277275    6.596318    0.454423
     23          6           0       19.681790    6.839084    0.499392
     24          7           0       21.644355    1.524395   -0.144588
     25          6           0       21.756212    2.868652   -0.064767
     26          6           0       23.226298    3.363276   -0.108486
     27          6           0       23.987793    2.022546   -0.391761
     28          6           0       22.815550    0.941285   -0.251705
     29          6           0       23.380603    4.410522   -1.196791
     30          6           0       25.112640    1.711490    0.547778
     31          6           0       26.473121    1.765770   -0.092589
     32          7           0       20.845421   -1.263515   -0.166834
     33          6           0       22.207235   -1.536614   -0.347513
     34          6           0       22.443440   -2.875722   -0.540045
     35          6           0       21.205303   -3.486748   -0.254938
     36          6           0       20.296626   -2.472972    0.040001
     37          6           0       23.744760   -3.430024   -1.080105
     38          6           0       20.499996   -4.795916   -0.242267
     39          8           0       20.917916   -5.880964   -0.503980
     40          6           0       19.081574   -4.428139    0.336609
     41          6           0       18.065481   -5.237801   -0.439047
     42          8           0       17.494838   -6.240646   -0.009961
     43          8           0       17.827940   -4.647383   -1.704050
     44          6           0       16.760559   -5.321597   -2.442539
     45          1           0       15.470450    1.385562    0.772482
     46          1           0       21.022831    4.742159    0.086077
     47          1           0       24.118467   -0.777207   -0.270724
     48          1           0       16.205603   -3.404253    0.461425
     49          1           0       15.048696   -1.101246    1.701806
     50          1           0       15.343872   -1.918423   -1.205013
     51          1           0       14.724588   -0.361647   -0.803204
     52          1           0       13.858504   -1.754759   -0.220365
     53          1           0       16.040089   -2.420671    3.181755
     54          1           0       17.564233   -3.108024    3.022617
     55          1           0       16.868190   -5.104991    3.153387
     56          1           0       15.749038   -5.085137    1.884816
     57          1           0       15.118891    3.615868    1.522569
     58          1           0       15.102937    3.764221   -0.234149
     59          1           0       15.393122    5.157743    0.887362
     60          1           0       20.144981    6.677374   -0.473432
     61          1           0       20.305468    6.445753    1.302232
     62          1           0       19.479552    7.889773    0.709062
     63          1           0       23.566799    3.828227    0.816360
     64          1           0       24.268932    1.970882   -1.443299
     65          1           0       22.603086    5.159688   -1.046444
     66          1           0       23.241606    3.920054   -2.160768
     67          1           0       24.348210    4.887905   -1.346831
     68          1           0       25.064078    0.708261    0.971193
     69          1           0       25.188975    2.328296    1.443008
     70          1           0       27.090858    2.445342    0.493213
     71          1           0       26.453340    2.203954   -1.090439
     72          1           0       26.947644    0.792000   -0.218442
     73          1           0       23.518160   -4.437105   -1.431643
     74          1           0       24.522620   -3.476727   -0.318340
     75          1           0       24.026196   -2.743696   -1.878448
     76          1           0       19.103661   -4.922186    1.308652
     77          1           0       16.279152   -4.630223   -3.134299
     78          1           0       15.934547   -5.594105   -1.787151
     79          1           0       17.097988   -6.223491   -2.953994
     80         12           0      -19.921593   -0.188974    0.473504
     81          6           0      -17.438762    1.176946   -1.483977
     82          6           0      -21.130662   -1.889268   -2.427433
     83          6           0      -22.518121   -1.244145    2.178594
     84          6           0      -18.801530    1.623798    3.234456
     85          7           0      -19.284901   -0.289875   -1.670799
     86          6           0      -18.232962    0.319352   -2.225634
     87          6           0      -18.103788   -0.148017   -3.712091
     88          6           0      -19.408816   -1.029065   -3.980241
     89          6           0      -20.043078   -1.039589   -2.575954
     90          6           0      -20.457495   -0.443276   -4.906128
     91          6           0      -16.776614   -0.840044   -4.057580
     92          6           0      -16.134824   -0.224649   -5.289688
     93          1           0      -15.195190   -1.043592   -6.186647
     94          7           0      -21.541374   -1.463822   -0.049427
     95          6           0      -21.844077   -2.090173   -1.223993
     96          6           0      -22.973821   -2.900888   -1.117548
     97          6           0      -23.506710   -2.657651    0.196301
     98          6           0      -22.501427   -1.756846    0.859258
     99          6           0      -23.503137   -3.779486   -2.241721
    100          6           0      -24.812733   -3.143132    0.803722
    101          8           0      -25.165919   -2.674189    1.903132
    102          6           0      -25.720696   -4.052017    0.080619
    103          7           0      -20.505732    0.131300    2.395021
    104          6           0      -21.619341   -0.467699    2.947158
    105          6           0      -21.895180   -0.080618    4.447517
    106          6           0      -20.508648    0.614086    4.790441
    107          6           0      -19.898964    0.827106    3.392790
    108          6           0      -23.120785    0.829487    4.853756
    109          6           0      -19.578735   -0.048621    5.905534
    110          6           0      -18.798445   -1.258814    5.464754
    111          7           0      -18.556398    1.214934    0.833037
    112          6           0      -18.174846    1.891719    1.975848
    113          6           0      -17.088774    2.754543    1.747899
    114          6           0      -16.762180    2.464203    0.418221
    115          6           0      -17.675532    1.512253   -0.121472
    116          6           0      -16.483810    3.555037    2.821295
    117          6           0      -15.879800    2.921196   -0.585279
    118          8           0      -15.060906    3.839242   -0.507622
    119          6           0      -16.240132    2.082723   -1.920233
    120          6           0      -16.574137    3.009713   -2.987167
    121          8           0      -17.597649    3.644176   -3.103247
    122          8           0      -15.537185    3.171989   -3.799702
    123          6           0      -15.620480    4.142442   -4.849032
    124          1           0      -21.522356   -2.363072   -3.329479
    125          1           0      -23.322833   -1.510006    2.866756
    126          1           0      -18.485559    2.174677    4.122851
    127          1           0      -18.216719    0.808672   -4.221088
    128          1           0      -19.049096   -1.922647   -4.491576
    129          1           0      -20.166043    0.490259   -5.388381
    130          1           0      -21.358209   -0.195602   -4.345100
    131          1           0      -20.809837   -1.209756   -5.597052
    132          1           0      -16.842988   -1.918949   -4.198872
    133          1           0      -16.115908   -0.729530   -3.198044
    134          1           0      -15.474847    0.560474   -4.918976
    135          1           0      -16.957247    0.150744   -5.898332
    136          1           0      -22.784963   -3.866944   -3.057063
    137          1           0      -24.349920   -3.276436   -2.709144
    138          1           0      -23.881734   -4.725272   -1.855897
    139          1           0      -26.733714   -3.986018    0.479131
    140          1           0      -25.375038   -5.066877    0.279721
    141          1           0      -25.733814   -3.808953   -0.981579
    142          1           0      -21.884378   -0.948468    5.107697
    143          1           0      -20.713091    1.570282    5.270482
    144          1           0      -23.670391    1.068539    3.944178
    145          1           0      -22.748578    1.817638    5.127073
    146          1           0      -23.800669    0.468377    5.625958
    147          1           0      -20.254791   -0.414230    6.678052
    148          1           0      -18.922768    0.656951    6.413984
    149          1           0      -17.871809   -1.260603    6.037664
    150          1           0      -18.571286   -1.429555    4.413194
    151          1           0      -19.408393   -2.125222    5.720540
    152          1           0      -16.505391    3.167091    3.839377
    153          1           0      -16.723168    4.617746    2.819355
    154          1           0      -15.443616    3.574735    2.497158
    155          1           0      -15.357000    1.507653   -2.197902
    156          1           0      -16.031548    3.724704   -5.768775
    157          1           0      -14.598769    4.441043   -5.082921
    158          1           0      -16.251263    4.974191   -4.534969
 ---------------------------------------------------------------------

 SCF Done:  E(RPBE1PBE) =  -4067.39068921     A.U. after   16 cycles

 Excitation energies and oscillator strengths:

 Excited State   1:      Singlet-A      1.8485 eV  670.73 nm  f=0.3429  <S**2>=0.000
     309 -> 315        0.16626
     311 -> 313        0.69372
     311 <- 313       -0.11249
 This state for optimization and/or second-order correction.
 Total Energy, E(TD-HF/TD-DFT) =  -4067.32275813
 Copying the excited state density for this state as the 1-particle RhoCI density.

 Excited State   2:      Singlet-A      1.8681 eV  663.70 nm  f=0.4000  <S**2>=0.000
     310 -> 316        0.16538
     312 -> 314        0.69269
     312 <- 314       -0.11105

 Excited State   3:      Singlet-A      1.9104 eV  649.01 nm  f=0.0000  <S**2>=0.000
     312 -> 313        0.70711

 Excited State   4:      Singlet-A      2.0245 eV  612.41 nm  f=0.0000  <S**2>=0.000
     311 -> 314        0.70710

 Excited State   5:      Singlet-A      2.2338 eV  555.03 nm  f=0.1561  <S**2>=0.000
     309 -> 313        0.65763
     311 -> 315       -0.24168

 The electronic state is 1-A.
 Alpha  occ. eigenvalues --  -46.92412 -46.91106 -19.26289 -19.25418 -19.21264
 Alpha  occ. eigenvalues --  -19.20099 -19.18915 -19.18805 -19.18516 -19.18422
 Alpha  occ. eigenvalues --  -14.41926 -14.41843 -14.41683 -14.41680 -14.39704
 Alpha  occ. eigenvalues --  -14.39336 -14.38727 -14.38675 -10.37419 -10.35224
 Alpha  occ. eigenvalues --  -10.32831 -10.32677 -10.31943 -10.31701 -10.29682
 Alpha  occ. eigenvalues --  -10.29224 -10.28924 -10.28909 -10.28905 -10.28902
 Alpha  occ. eigenvalues --  -10.28533 -10.28414 -10.28388 -10.28299 -10.28281
 Alpha  occ. eigenvalues --  -10.28280 -10.27944 -10.26992 -10.26801 -10.26795
 Alpha  occ. eigenvalues --  -10.26791 -10.26649 -10.26395 -10.26326 -10.26186
 Alpha  occ. eigenvalues --  -10.26181 -10.26136 -10.26126 -10.26027 -10.26015
 Alpha  occ. eigenvalues --  -10.25991 -10.25966 -10.25905 -10.25881 -10.25818
 Alpha  occ. eigenvalues --  -10.25798 -10.25503 -10.25481 -10.25431 -10.25300
 Alpha  occ. eigenvalues --  -10.25201 -10.25060 -10.25039 -10.24996 -10.24832
 Alpha  occ. eigenvalues --  -10.24669 -10.24640 -10.24622 -10.24453 -10.24347
 Alpha  occ. eigenvalues --  -10.24167 -10.24054 -10.23958 -10.23922 -10.23830
 Alpha  occ. eigenvalues --  -10.23769 -10.23661 -10.23566 -10.23525 -10.23227
 Alpha  occ. eigenvalues --  -10.23052 -10.22900 -10.22799 -10.22620 -10.22454
 Alpha  occ. eigenvalues --  -10.22386  -3.14554  -3.13465  -1.87375  -1.86934
 Alpha  occ. eigenvalues --   -1.86783  -1.86306  -1.85858  -1.85693  -1.12696
 Alpha  occ. eigenvalues --   -1.10345  -1.06856  -1.03654  -1.03165  -1.02803
 Alpha  occ. eigenvalues --   -1.02573  -1.02309  -0.99879  -0.99290  -0.98950
 Alpha  occ. eigenvalues --   -0.98371  -0.97993  -0.97937  -0.97405  -0.97213
 Alpha  occ. eigenvalues --   -0.87695  -0.86449  -0.84200  -0.83669  -0.83636
 Alpha  occ. eigenvalues --   -0.83364  -0.83029  -0.82621  -0.82192  -0.81949
 Alpha  occ. eigenvalues --   -0.81894  -0.81416  -0.81072  -0.80237  -0.79102
 Alpha  occ. eigenvalues --   -0.78868  -0.78617  -0.78132  -0.77233  -0.76937
 Alpha  occ. eigenvalues --   -0.76525  -0.76099  -0.75560  -0.75017  -0.74977
 Alpha  occ. eigenvalues --   -0.74833  -0.72606  -0.72145  -0.71752  -0.71666
 Alpha  occ. eigenvalues --   -0.71227  -0.71186  -0.70803  -0.70276  -0.69869
 Alpha  occ. eigenvalues --   -0.69632  -0.67990  -0.67926  -0.66674  -0.65891
 Alpha  occ. eigenvalues --   -0.64005  -0.63782  -0.63379  -0.63309  -0.62173
 Alpha  occ. eigenvalues --   -0.62124  -0.61682  -0.61475  -0.60697  -0.60155
 Alpha  occ. eigenvalues --   -0.59945  -0.59858  -0.59504  -0.59433  -0.59149
 Alpha  occ. eigenvalues --   -0.58898  -0.57687  -0.56903  -0.55079  -0.54948
 Alpha  occ. eigenvalues --   -0.54630  -0.54595  -0.54212  -0.53646  -0.53586
 Alpha  occ. eigenvalues --   -0.53165  -0.52837  -0.52719  -0.52213  -0.51385
 Alpha  occ. eigenvalues --   -0.51136  -0.50834  -0.50613  -0.50343  -0.50213
 Alpha  occ. eigenvalues --   -0.49668  -0.49435  -0.49169  -0.48983  -0.48927
 Alpha  occ. eigenvalues --   -0.48453  -0.48231  -0.48123  -0.47812  -0.47803
 Alpha  occ. eigenvalues --   -0.47393  -0.47312  -0.46923  -0.46839  -0.46800
 Alpha  occ. eigenvalues --   -0.46647  -0.46516  -0.46389  -0.46202  -0.45879
 Alpha  occ. eigenvalues --   -0.45735  -0.45524  -0.45152  -0.44932  -0.44836
 Alpha  occ. eigenvalues --   -0.44795  -0.44676  -0.44521  -0.44500  -0.44293
 Alpha  occ. eigenvalues --   -0.44277  -0.44080  -0.43905  -0.43750  -0.43587
 Alpha  occ. eigenvalues --   -0.43551  -0.43302  -0.43083  -0.43001  -0.42827
 Alpha  occ. eigenvalues --   -0.42651  -0.42448  -0.42422  -0.42009  -0.41888
 Alpha  occ. eigenvalues --   -0.41637  -0.41632  -0.41327  -0.41246  -0.41171
 Alpha  occ. eigenvalues --   -0.41124  -0.40822  -0.40807  -0.40652  -0.40479
 Alpha  occ. eigenvalues --   -0.40239  -0.40213  -0.40210  -0.40083  -0.39946
 Alpha  occ. eigenvalues --   -0.39881  -0.39706  -0.39680  -0.39320  -0.39218
 Alpha  occ. eigenvalues --   -0.38947  -0.38677  -0.38676  -0.38489  -0.38412
 Alpha  occ. eigenvalues --   -0.38289  -0.38139  -0.38073  -0.37569  -0.37531
 Alpha  occ. eigenvalues --   -0.37387  -0.37321  -0.37264  -0.37217  -0.36904
 Alpha  occ. eigenvalues --   -0.36873  -0.36566  -0.36404  -0.36344  -0.36326
 Alpha  occ. eigenvalues --   -0.36209  -0.36111  -0.36012  -0.35947  -0.35864
 Alpha  occ. eigenvalues --   -0.35400  -0.35054  -0.34138  -0.34050  -0.33817
 Alpha  occ. eigenvalues --   -0.33762  -0.33198  -0.33126  -0.32770  -0.32745
 Alpha  occ. eigenvalues --   -0.32389  -0.32211  -0.32201  -0.31628  -0.31455
 Alpha  occ. eigenvalues --   -0.31349  -0.31171  -0.30301  -0.29855  -0.29446
 Alpha  occ. eigenvalues --   -0.28874  -0.28853  -0.28472  -0.27421  -0.27111
 Alpha  occ. eigenvalues --   -0.26161  -0.25866  -0.25669  -0.25502  -0.25486
 Alpha  occ. eigenvalues --   -0.25434  -0.25275  -0.25096  -0.21377  -0.21098
 Alpha  occ. eigenvalues --   -0.19275  -0.19097
 Alpha virt. eigenvalues --   -0.11743  -0.11502  -0.05366  -0.05039  -0.03980
 Alpha virt. eigenvalues --   -0.03717  -0.02113  -0.01911  -0.00952  -0.00469
 Alpha virt. eigenvalues --    0.00245   0.00721   0.01236   0.01395   0.01765

 Mulliken charges:
               1
     1  Mg  12.001225
     2  C    5.977347
     3  C    5.993224
     4  C    6.033161
     5  C    6.019019
     6  N    6.973413
     7  C    6.026230
     8  C    5.990561
     9  C    6.015049
    10  C    5.976609
    11  C    6.004090
    12  C    5.995795
    13  C    6.000291
    14  H    1.004855
    15  N    7.006082
    16  C    5.966762
    17  C    5.979810
    18  C    5.992586
    19  C    5.959809
    20  C    6.002487
    21  C    5.988727
    22  O    7.981118
    23  C    5.997650
    24  N    7.017356
    25  C    5.963540
    26  C    6.009826
    27  C    5.994069
    28  C    6.018682
    29  C    6.002928
    30  C    5.994896
    31  C    5.998187
    32  N    7.000655
    33  C    6.022239
    34  C    6.027660
    35  C    6.003194
    36  C    6.032703
    37  C    6.000831
    38  C    6.019102
    39  O    8.024643
    40  C    6.002277
    41  C    6.003437
    42  O    8.006072
    43  O    7.998386
    44  C    5.997296
    45  H    0.985576
    46  H    0.998638
    47  H    1.014575
    48  H    0.997998
    49  H    0.995171
    50  H    0.986103
    51  H    1.004433
    52  H    0.990076
    53  H    1.009646
    54  H    0.996458
    55  H    0.995514
    56  H    0.998458
    57  H    0.984196
    58  H    0.983359
    59  H    0.986478
    60  H    0.990623
    61  H    0.990587
    62  H    0.990255
    63  H    1.000040
    64  H    1.001771
    65  H    1.008192
    66  H    0.995715
    67  H    0.994447
    68  H    0.995476
    69  H    1.010022
    70  H    1.006699
    71  H    1.004905
    72  H    0.998149
    73  H    1.013297
    74  H    1.018507
    75  H    1.014392
    76  H    1.004740
    77  H    1.006311
    78  H    1.005205
    79  H    1.000110
    80  Mg  12.000078
    81  C    5.999443
    82  C    6.000401
    83  C    6.000794
    84  C    5.999819
    85  N    6.999753
    86  C    6.001001
    87  C    5.999756
    88  C    6.000546
    89  C    5.998931
    90  C    6.000147
    91  C    5.999950
    92  C    5.999943
    93  H    1.000188
    94  N    7.000176
    95  C    5.998597
    96  C    5.999324
    97  C    5.999332
    98  C    5.998741
    99  C    6.000143
   100  C    5.999433
   101  O    7.998782
   102  C    6.000239
   103  N    7.000020
   104  C    5.998599
   105  C    6.000557
   106  C    5.999639
   107  C    6.001006
   108  C    5.999989
   109  C    5.999818
   110  C    5.999885
   111  N    6.999985
   112  C    6.001255
   113  C    6.001052
   114  C    6.000076
   115  C    6.001223
   116  C    5.999785
   117  C    6.000747
   118  O    8.001325
   119  C    6.000078
   120  C    6.000160
   121  O    8.000261
   122  O    8.000070
   123  C    5.999877
   124  H    0.999587
   125  H    0.999742
   126  H    1.000450
   127  H    0.999921
   128  H    0.999688
   129  H    0.999460
   130  H    1.000118
   131  H    0.999875
   132  H    1.000283
   133  H    0.999776
   134  H    0.999829
   135  H    1.000151
   136  H    0.999359
   137  H    0.999269
   138  H    0.999385
   139  H    0.999383
   140  H    0.999543
   141  H    0.999772
   142  H    0.999844
   143  H    1.000088
   144  H    1.000131
   145  H    0.999598
   146  H    0.999924
   147  H    1.000364
   148  H    0.999961
   149  H    1.000029
   150  H    1.000000
   151  H    1.000353
   152  H    1.000746
   153  H    1.000882
   154  H    1.000612
   155  H    1.000407
   156  H    1.000253
   157  H    1.000231
   158  H    1.000065
 Sum of Mulliken charges = 624.00000

 Dipole moment (field-independent basis, Debye):
    X=              6.6801    Y=             -7.2105    Z=             -1.1003  Tot=              9.8907
 Quadrupole moment (field-independent basis, Debye-Ang):
   XX=            238.5863   YY=             -6.5071   ZZ=              0.5739
   XY=           -149.3942   XZ=            -24.6734   YZ=             -0.2088

 Normal termination of Gaussian 16 at Thu Oct 14 23:32:00 2021.
