 Gaussian 16, Revision A.03,
 Gaussian 16:  ES64L-G16RevA.03 25-Dec-2016

 --------------------------------------------------------
 #p PBE1PBE/Def2SVP td=(nstates=5) density=(transition=1)
 --------------------------------------------------------

 --------------------------------
 TDDFT excited states in gaussian
 --------------------------------
 Symbolic Z-matrix:
 Charge =  0 Multiplicity = 1

                         Standard orientation:
 ---------------------------------------------------------------------
 Center     Atomic      Atomic             Coordinates (Angstroms)
 Number     Number       Type             X           Y           Z
 ---------------------------------------------------------------------
      1         12           0       19.569647   -0.714827   -0.213695
      2          6           0       21.474526    2.264833   -0.118791
      3          6           0       17.163632    0.836932    1.713688
      4          6           0       17.907193   -3.664160   -0.074761
      5          6           0       22.136777   -2.312091   -1.987956
      6          7           0       19.487222    1.287173    0.728225
      7          6           0       20.256251    2.417068    0.459947
      8          6           0       19.651553    3.706050    1.152970
      9          6           0       18.448232    3.112336    1.932736
     10          6           0       18.363057    1.634136    1.491067
     11          6           0       18.453856    3.223484    3.503324
     12          6           0       19.385457    4.956870    0.218977
     13          6           0       20.128316    6.203378    0.594135
     14          1           0       19.350839    7.563319    0.387783
     15          7           0       17.827390   -1.267395    0.696362
     16          6           0       16.920999   -0.494897    1.393819
     17          6           0       15.820486   -1.331138    1.846887
     18          6           0       15.986833   -2.654856    1.350000
     19          6           0       17.286756   -2.579142    0.586991
     20          6           0       14.583177   -0.797612    2.596611
     21          6           0       15.083505   -3.876521    1.484278
     22          8           0       15.296171   -4.938094    0.935453
     23          6           0       13.705258   -3.883771    2.264257
     24          7           0       20.024382   -2.751625   -0.860381
     25          6           0       19.184404   -3.763624   -0.686662
     26          6           0       19.728891   -5.095846   -1.315017
     27          6           0       21.007201   -4.601752   -2.101163
     28          6           0       21.068939   -3.109948   -1.653956
     29          6           0       19.918776   -6.210119   -0.245537
     30          6           0       20.891852   -4.846877   -3.592652
     31          6           0       22.175808   -5.361645   -4.240877
     32          7           0       21.507695   -0.272247   -0.836118
     33          6           0       22.399391   -0.970801   -1.627354
     34          6           0       23.578402   -0.169787   -1.749080
     35          6           0       23.278204    1.113603   -1.228967
     36          6           0       21.978415    1.025747   -0.656950
     37          6           0       24.847463   -0.579692   -2.394714
     38          6           0       23.772498    2.494817   -1.092526
     39          8           0       24.860755    3.016828   -1.316354
     40          6           0       22.478344    3.330651   -0.340060
     41          6           0       22.934642    3.929945    0.875067
     42          8           0       22.687623    3.512060    1.985528
     43          8           0       23.579033    5.119681    0.621573
     44          6           0       24.120593    5.750521    1.850985
     45          1           0       16.323513    1.322148    2.215284
     46          1           0       17.439904   -4.649111   -0.020663
     47          1           0       22.844924   -2.858089   -2.615786
     48          1           0       20.357371    3.931722    1.951616
     49          1           0       17.516200    3.580214    1.615566
     50          1           0       17.432092    3.461264    3.800874
     51          1           0       19.158922    4.003095    3.790704
     52          1           0       18.749183    2.308880    4.017887
     53          1           0       18.305725    5.106637    0.225392
     54          1           0       19.726303    4.679859   -0.778761
     55          1           0       21.036078    6.284238   -0.005247
     56          1           0       20.384567    6.038850    1.640352
     57          1           0       13.756885   -0.920982    1.897424
     58          1           0       14.677994    0.282338    2.712290
     59          1           0       14.326389   -1.316283    3.521102
     60          1           0       13.073242   -3.106323    1.833680
     61          1           0       13.831663   -3.934689    3.346110
     62          1           0       13.327872   -4.897604    2.134156
     63          1           0       19.071387   -5.518603   -2.074402
     64          1           0       21.853218   -5.112467   -1.640820
     65          1           0       20.925284   -6.616287   -0.349834
     66          1           0       19.145551   -6.978091   -0.278441
     67          1           0       19.838885   -5.777412    0.750355
     68          1           0       20.564084   -3.958362   -4.131297
     69          1           0       20.100637   -5.544374   -3.871920
     70          1           0       23.020486   -5.302723   -3.554397
     71          1           0       22.378468   -4.697766   -5.081759
     72          1           0       22.050984   -6.348236   -4.687428
     73          1           0       24.900545   -1.590143   -2.799900
     74          1           0       25.645137   -0.243995   -1.730953
     75          1           0       24.811043   -0.050718   -3.347360
     76          1           0       22.115775    4.104081   -1.017749
     77          1           0       24.833496    5.077863    2.328363
     78          1           0       23.255073    6.018180    2.457011
     79          1           0       24.684879    6.659945    1.648227
     80         12           0      -20.099856   -0.548450    0.250274
     81          6           0      -19.753686    2.469950   -1.500211
     82          6           0      -19.442190    1.176969    3.156236
     83          6           0      -20.399780   -3.407232    1.871721
     84          6           0      -20.595030   -2.164526   -2.829628
     85          7           0      -19.742618    1.588570    0.711749
     86          6           0      -19.614705    2.684158   -0.142264
     87          6           0      -19.643967    4.070899    0.612557
     88          6           0      -19.395242    3.571557    2.022699
     89          6           0      -19.541200    1.994225    1.984440
     90          6           0      -17.898520    3.891119    2.479824
     91          6           0      -21.149127    4.566845    0.449613
     92          6           0      -21.373730    6.112440    0.141735
     93          1           0      -20.302165    6.926030    0.821355
     94          7           0      -19.801354   -1.043115    2.166559
     95          6           0      -19.538781   -0.244447    3.197234
     96          6           0      -19.477893   -0.954711    4.447231
     97          6           0      -19.927191   -2.256348    4.148813
     98          6           0      -20.011285   -2.308377    2.640645
     99          6           0      -19.106884   -0.378782    5.764563
    100          6           0      -20.351762   -3.384393    5.066376
    101          8           0      -20.962854   -4.381689    4.665916
    102          6           0      -19.930563   -3.370557    6.538447
    103          7           0      -20.405215   -2.535973   -0.426967
    104          6           0      -20.557983   -3.513422    0.527869
    105          6           0      -21.004047   -4.799228   -0.165023
    106          6           0      -21.193179   -4.381735   -1.704256
    107          6           0      -20.773034   -2.935565   -1.684007
    108          6           0      -19.994165   -5.956400    0.158576
    109          6           0      -22.559650   -4.632131   -2.322694
    110          6           0      -22.506958   -5.437456   -3.658677
    111          7           0      -20.139018    0.022045   -1.750445
    112          6           0      -20.336458   -0.767110   -2.926832
    113          6           0      -20.244383    0.044779   -4.087368
    114          6           0      -20.018373    1.324056   -3.552018
    115          6           0      -19.916448    1.226199   -2.148780
    116          6           0      -20.397134   -0.298884   -5.534089
    117          6           0      -19.833623    2.703245   -3.872440
    118          8           0      -19.772967    3.301914   -4.920610
    119          6           0      -19.767167    3.494673   -2.535653
    120          6           0      -18.607647    4.422189   -2.582390
    121          8           0      -17.414938    4.134255   -2.537992
    122          8           0      -19.105991    5.661604   -2.625956
    123          6           0      -18.154716    6.752630   -2.592857
    124          1           0      -19.384108    1.614809    4.154793
    125          1           0      -20.475710   -4.321371    2.465867
    126          1           0      -20.805048   -2.613902   -3.802531
    127          1           0      -18.959870    4.707963    0.052819
    128          1           0      -20.135556    3.987424    2.705321
    129          1           0      -17.320123    4.381559    1.696615
    130          1           0      -17.413962    2.951142    2.743219
    131          1           0      -18.021815    4.521141    3.360785
    132          1           0      -21.760704    4.384680    1.332797
    133          1           0      -21.585345    3.951686   -0.337837
    134          1           0      -22.262879    6.479656    0.654379
    135          1           0      -21.618695    6.280169   -0.907374
    136          1           0      -20.013609   -0.384429    6.371008
    137          1           0      -18.779328    0.655522    5.669250
    138          1           0      -18.328860   -0.941697    6.279368
    139          1           0      -20.060567   -4.426821    6.772919
    140          1           0      -20.526858   -2.705242    7.163973
    141          1           0      -18.878227   -3.188682    6.755819
    142          1           0      -21.957890   -5.208427    0.167779
    143          1           0      -20.456392   -4.923275   -2.297677
    144          1           0      -20.609504   -6.818722    0.415453
    145          1           0      -19.273174   -5.710463    0.938247
    146          1           0      -19.535644   -6.346471   -0.750873
    147          1           0      -23.143651   -3.729576   -2.500043
    148          1           0      -23.030992   -5.337499   -1.636841
    149          1           0      -21.493737   -5.786230   -3.858942
    150          1           0      -22.678955   -4.795665   -4.522512
    151          1           0      -23.179048   -6.295401   -3.631227
    152          1           0      -21.477509   -0.426557   -5.607271
    153          1           0      -19.776359   -1.176873   -5.711266
    154          1           0      -20.129228    0.528095   -6.190180
    155          1           0      -20.653000    4.129539   -2.581771
    156          1           0      -17.414545    6.625110   -3.383281
    157          1           0      -17.539915    6.841661   -1.696568
    158          1           0      -18.732278    7.661238   -2.763968
 ---------------------------------------------------------------------

 SCF Done:  E(RPBE1PBE) =  -4067.40040121     A.U. after   17 cycles

 Excitation energies and oscillator strengths:

 Excited State   1:      Singlet-A      1.8615 eV  666.06 nm  f=0.3587  <S**2>=0.000
     309 -> 315       -0.15508
     312 -> 313        0.69373
     312 <- 313       -0.10799
 This state for optimization and/or second-order correction.
 Total Energy, E(TD-HF/TD-DFT) =  -4067.33199343
 Copying the excited state density for this state as the 1-particle RhoCI density.

 Excited State   2:      Singlet-A      1.8744 eV  661.47 nm  f=0.3679  <S**2>=0.000
     310 -> 316        0.17473
     311 -> 314        0.69042

 Excited State   3:      Singlet-A      1.9834 eV  625.12 nm  f=0.0000  <S**2>=0.000
     312 -> 314        0.70710

 Excited State   4:      Singlet-A      2.0297 eV  610.86 nm  f=0.0000  <S**2>=0.000
     311 -> 313        0.70711

 Excited State   5:      Singlet-A      2.2446 eV  552.37 nm  f=0.1085  <S**2>=0.000
     310 -> 314        0.65162
     311 -> 316       -0.25998

 The electronic state is 1-A.
 Alpha  occ. eigenvalues --  -46.91658 -46.91185 -19.25996 -19.25012 -19.19974
 Alpha  occ. eigenvalues --  -19.19925 -19.19752 -19.19506 -19.19150 -19.17913
 Alpha  occ. eigenvalues --  -14.41800 -14.41794 -14.41233 -14.41153 -14.39877
 Alpha  occ. eigenvalues --  -14.39725 -14.38655 -14.38279 -10.35436 -10.35335
 Alpha  occ. eigenvalues --  -10.33457 -10.33242 -10.33156 -10.30537 -10.29952
 Alpha  occ. eigenvalues --  -10.29459 -10.29315 -10.28708 -10.28661 -10.28527
 Alpha  occ. eigenvalues --  -10.28459 -10.28413 -10.28321 -10.28239 -10.28186
 Alpha  occ. eigenvalues --  -10.28103 -10.27967 -10.27840 -10.27362 -10.27043
 Alpha  occ. eigenvalues --  -10.26780 -10.26738 -10.26578 -10.26380 -10.26310
 Alpha  occ. eigenvalues --  -10.26195 -10.26154 -10.26103 -10.25732 -10.25675
 Alpha  occ. eigenvalues --  -10.25457 -10.25420 -10.25412 -10.25384 -10.25370
 Alpha  occ. eigenvalues --  -10.25340 -10.25277 -10.25151 -10.25117 -10.25093
 Alpha  occ. eigenvalues --  -10.25082 -10.25067 -10.25048 -10.25005 -10.24848
 Alpha  occ. eigenvalues --  -10.24448 -10.24430 -10.24382 -10.24100 -10.24022
 Alpha  occ. eigenvalues --  -10.23954 -10.23933 -10.23749 -10.23747 -10.23667
 Alpha  occ. eigenvalues --  -10.23631 -10.23484 -10.23440 -10.23431 -10.23225
 Alpha  occ. eigenvalues --  -10.23204 -10.23100 -10.22958 -10.22897 -10.22786
 Alpha  occ. eigenvalues --  -10.21657  -3.13767  -3.13470  -1.86615  -1.86323
 Alpha  occ. eigenvalues --   -1.86134  -1.85998  -1.85825  -1.85725  -1.11999
 Alpha  occ. eigenvalues --   -1.10663  -1.05935  -1.04865  -1.04375  -1.04335
 Alpha  occ. eigenvalues --   -1.02302  -1.02006  -0.99473  -0.98766  -0.98697
 Alpha  occ. eigenvalues --   -0.97538  -0.97029  -0.96998  -0.96637  -0.95643
 Alpha  occ. eigenvalues --   -0.87188  -0.86369  -0.83859  -0.83445  -0.82713
 Alpha  occ. eigenvalues --   -0.82702  -0.82662  -0.82257  -0.82207  -0.81566
 Alpha  occ. eigenvalues --   -0.81250  -0.81185  -0.80965  -0.80250  -0.78608
 Alpha  occ. eigenvalues --   -0.78307  -0.77978  -0.77868  -0.76790  -0.76577
 Alpha  occ. eigenvalues --   -0.76005  -0.75567  -0.75340  -0.75004  -0.74701
 Alpha  occ. eigenvalues --   -0.74163  -0.73062  -0.72482  -0.71846  -0.71299
 Alpha  occ. eigenvalues --   -0.71145  -0.70801  -0.70099  -0.69967  -0.69332
 Alpha  occ. eigenvalues --   -0.69077  -0.67628  -0.66796  -0.65840  -0.65740
 Alpha  occ. eigenvalues --   -0.63493  -0.63320  -0.63268  -0.63247  -0.62088
 Alpha  occ. eigenvalues --   -0.61982  -0.61812  -0.61522  -0.60052  -0.59830
 Alpha  occ. eigenvalues --   -0.59742  -0.59585  -0.59341  -0.59117  -0.59051
 Alpha  occ. eigenvalues --   -0.58961  -0.57126  -0.55791  -0.55230  -0.54405
 Alpha  occ. eigenvalues --   -0.54214  -0.53802  -0.53734  -0.53297  -0.53244
 Alpha  occ. eigenvalues --   -0.52608  -0.52396  -0.52379  -0.51915  -0.51785
 Alpha  occ. eigenvalues --   -0.51194  -0.50491  -0.50277  -0.50240  -0.49890
 Alpha  occ. eigenvalues --   -0.49374  -0.49057  -0.48872  -0.48473  -0.48307
 Alpha  occ. eigenvalues --   -0.48065  -0.47735  -0.47638  -0.47467  -0.47237
 Alpha  occ. eigenvalues --   -0.47215  -0.47159  -0.47106  -0.46770  -0.46759
 Alpha  occ. eigenvalues --   -0.46433  -0.46295  -0.46047  -0.45991  -0.45636
 Alpha  occ. eigenvalues --   -0.45537  -0.45365  -0.45289  -0.45214  -0.45146
 Alpha  occ. eigenvalues --   -0.44904  -0.44853  -0.44590  -0.44274  -0.44243
 Alpha  occ. eigenvalues --   -0.44106  -0.43981  -0.43847  -0.43322  -0.43255
 Alpha  occ. eigenvalues --   -0.43079  -0.42911  -0.42889  -0.42730  -0.42677
 Alpha  occ. eigenvalues --   -0.42609  -0.42392  -0.42377  -0.42213  -0.41939
 Alpha  occ. eigenvalues --   -0.41916  -0.41555  -0.41456  -0.41362  -0.41157
 Alpha  occ. eigenvalues --   -0.41077  -0.40903  -0.40839  -0.40823  -0.40281
 Alpha  occ. eigenvalues --   -0.40085  -0.39940  -0.39921  -0.39662  -0.39549
 Alpha  occ. eigenvalues --   -0.39375  -0.39325  -0.39314  -0.39185  -0.39092
 Alpha  occ. eigenvalues --   -0.38890  -0.38682  -0.38572  -0.38461  -0.38222
 Alpha  occ. eigenvalues --   -0.38170  -0.37942  -0.37925  -0.37583  -0.37532
 Alpha  occ. eigenvalues --   -0.37457  -0.37392  -0.37283  -0.37198  -0.36902
 Alpha  occ. eigenvalues --   -0.36810  -0.36520  -0.36325  -0.36077  -0.36013
 Alpha  occ. eigenvalues --   -0.35684  -0.35432  -0.35398  -0.35191  -0.35030
 Alpha  occ. eigenvalues --   -0.34910  -0.34683  -0.34598  -0.34356  -0.33742
 Alpha  occ. eigenvalues --   -0.33639  -0.33314  -0.32676  -0.32640  -0.32439
 Alpha  occ. eigenvalues --   -0.32239  -0.31976  -0.31928  -0.31520  -0.31367
 Alpha  occ. eigenvalues --   -0.31242  -0.30990  -0.29498  -0.29306  -0.29048
 Alpha  occ. eigenvalues --   -0.28974  -0.28706  -0.28190  -0.27224  -0.27127
 Alpha  occ. eigenvalues --   -0.26489  -0.26410  -0.26190  -0.25916  -0.25577
 Alpha  occ. eigenvalues --   -0.25326  -0.24667  -0.24639  -0.21040  -0.20931
 Alpha  occ. eigenvalues --   -0.18874  -0.18706
 Alpha virt. eigenvalues --   -0.11087  -0.11080  -0.05345  -0.05320  -0.04119
 Alpha virt. eigenvalues --   -0.03562  -0.02345  -0.01645   0.00130   0.00237
 Alpha virt. eigenvalues --    0.00528   0.01130   0.01417   0.01482   0.01734

 Mulliken charges:
               1
     1  Mg  12.000134
     2  C    5.999462
     3  C    6.000145
     4  C    6.000550
     5  C    5.999813
     6  N    6.999702
     7  C    6.000725
     8  C    5.999726
     9  C    6.000169
    10  C    5.999279
    11  C    6.000121
    12  C    5.999979
    13  C    5.999923
    14  H    1.000163
    15  N    7.000130
    16  C    5.999353
    17  C    5.999535
    18  C    5.999665
    19  C    5.999255
    20  C    6.000064
    21  C    5.999782
    22  O    7.999408
    23  C    6.000086
    24  N    7.000017
    25  C    5.999252
    26  C    6.000199
    27  C    5.999798
    28  C    6.000645
    29  C    6.000042
    30  C    5.999879
    31  C    5.999988
    32  N    6.999970
    33  C    6.000756
    34  C    6.000639
    35  C    6.000021
    36  C    6.000768
    37  C    5.999875
    38  C    6.000360
    39  O    8.000569
    40  C    6.000231
    41  C    6.000022
    42  O    8.000227
    43  O    8.000012
    44  C    5.999954
    45  H    0.999731
    46  H    0.999864
    47  H    1.000241
    48  H    1.000064
    49  H    0.999980
    50  H    0.999964
    51  H    0.999664
    52  H    0.999953
    53  H    1.000199
    54  H    0.999916
    55  H    0.999903
    56  H    1.000022
    57  H    0.999627
    58  H    0.999627
    59  H    0.999533
    60  H    0.999882
    61  H    0.999719
    62  H    0.999686
    63  H    1.000015
    64  H    1.000036
    65  H    0.999789
    66  H    1.000040
    67  H    1.000046
    68  H    1.000046
    69  H    1.000251
    70  H    0.999919
    71  H    0.999996
    72  H    1.000134
    73  H    1.000449
    74  H    1.000384
    75  H    1.000500
    76  H    1.000180
    77  H    1.000014
    78  H    1.000126
    79  H    1.000104
    80  Mg  11.996949
    81  C    6.025513
    82  C    6.003288
    83  C    5.975050
    84  C    5.997637
    85  N    7.017978
    86  C    5.967122
    87  C    6.003575
    88  C    5.997357
    89  C    6.020324
    90  C    5.996575
    91  C    6.000627
    92  C    6.003131
    93  H    0.994037
    94  N    6.993236
    95  C    6.029615
    96  C    6.024565
    97  C    6.010072
    98  C    6.038131
    99  C    5.995745
   100  C    6.012536
   101  O    8.028928
   102  C    5.993905
   103  N    6.992696
   104  C    6.031062
   105  C    5.989320
   106  C    6.011739
   107  C    5.972334
   108  C    5.996632
   109  C    6.006940
   110  C    6.000295
   111  N    6.999416
   112  C    5.966296
   113  C    5.976321
   114  C    5.996638
   115  C    5.970353
   116  C    5.997726
   117  C    5.982439
   118  O    7.969271
   119  C    5.995550
   120  C    5.996829
   121  O    7.994645
   122  O    7.998928
   123  C    6.001781
   124  H    1.012439
   125  H    1.002108
   126  H    0.986159
   127  H    1.003673
   128  H    1.002320
   129  H    1.013750
   130  H    0.995559
   131  H    1.003506
   132  H    0.989486
   133  H    1.006872
   134  H    0.996833
   135  H    1.004270
   136  H    1.018228
   137  H    1.015409
   138  H    1.017749
   139  H    1.012990
   140  H    1.008238
   141  H    1.007727
   142  H    1.000756
   143  H    0.996872
   144  H    1.001876
   145  H    0.993450
   146  H    1.008689
   147  H    1.000499
   148  H    0.987825
   149  H    0.997933
   150  H    1.003179
   151  H    0.993923
   152  H    0.985105
   153  H    0.986223
   154  H    0.988105
   155  H    0.995715
   156  H    0.999369
   157  H    0.993427
   158  H    0.996630
 Sum of Mulliken charges = 624.00000

 Dipole moment (field-independent basis, Debye):
    X=              0.9714    Y=             -1.9363    Z=              9.8458  Tot=             10.0813
 Quadrupole moment (field-independent basis, Debye-Ang):
   XX=            -22.5528   YY=             -1.1337   ZZ=              6.5385
   XY=             39.9257   XZ=           -200.0461   YZ=             -5.7847

 Normal termination of Gaussian 16 at Fri Oct 15 14:11:20 2021.
