 Gaussian 16, Revision A.03,
 Gaussian 16:  ES64L-G16RevA.03 25-Dec-2016

 --------------------------------------------------------
 #p PBE1PBE/Def2SVP td=(nstates=5) density=(transition=1)
 --------------------------------------------------------

 --------------------------------
 TDDFT excited states in gaussian
 --------------------------------
 Symbolic Z-matrix:
 Charge =  0 Multiplicity = 1

                         Standard orientation:
 ---------------------------------------------------------------------
 Center     Atomic      Atomic             Coordinates (Angstroms)
 Number     Number       Type             X           Y           Z
 ---------------------------------------------------------------------
      1         12           0        9.396427    0.469994    0.012913
      2          6           0        6.773138   -1.555975   -1.065679
      3          6           0        7.556838    3.249729   -0.866609
      4          6           0       11.939049    2.184919    1.180134
      5          6           0       10.713860   -2.401349    1.830138
      6          7           0        7.331318    0.757940   -0.961271
      7          6           0        6.419471   -0.205827   -1.288861
      8          6           0        5.214832    0.394800   -1.921973
      9          6           0        5.457351    1.953104   -1.814189
     10          6           0        6.894399    2.047838   -1.167863
     11          6           0        5.215870    2.738999   -3.127543
     12          6           0        3.893794   -0.029801   -1.235675
     13          6           0        2.898691   -0.567792   -2.262414
     14          1           0        1.472909    0.061359   -2.280326
     15          7           0        9.716732    2.459111    0.109112
     16          6           0        8.873180    3.474265   -0.339672
     17          6           0        9.614595    4.712295   -0.137138
     18          6           0       10.938659    4.425675    0.438039
     19          6           0       10.962012    2.932745    0.547070
     20          6           0        9.019380    6.018139   -0.316951
     21          6           0       11.841408    5.490352    0.906818
     22          8           0       11.611446    6.676783    0.799906
     23          6           0       13.101591    5.238818    1.658837
     24          7           0       10.988803   -0.033269    1.307142
     25          6           0       12.063376    0.815123    1.394223
     26          6           0       13.144240    0.200150    2.258030
     27          6           0       12.509524   -1.013471    2.826784
     28          6           0       11.314723   -1.154782    2.021764
     29          6           0       14.540725   -0.007917    1.540843
     30          6           0       12.032540   -0.824516    4.307726
     31          6           0       12.024548   -2.015265    5.150252
     32          7           0        8.905727   -1.597503    0.327928
     33          6           0        9.546419   -2.637862    1.013542
     34          6           0        8.953462   -3.881298    0.632568
     35          6           0        7.850342   -3.527665   -0.135415
     36          6           0        7.832481   -2.093382   -0.268328
     37          6           0        9.451610   -5.207312    1.075661
     38          6           0        6.718856   -4.033661   -0.804970
     39          8           0        6.335819   -5.174807   -0.935729
     40          6           0        6.021740   -2.823898   -1.466417
     41          6           0        5.923002   -3.059901   -2.915559
     42          8           0        6.800675   -2.793849   -3.753954
     43          8           0        4.775111   -3.767686   -3.189168
     44          6           0        4.393159   -4.042626   -4.564773
     45          1           0        6.945343    4.079633   -1.225338
     46          1           0       12.812600    2.630115    1.662909
     47          1           0       11.159453   -3.239283    2.370333
     48          1           0        5.360404    0.220817   -2.988478
     49          1           0        4.773664    2.453819   -1.129343
     50          1           0        4.608831    2.041385   -3.705820
     51          1           0        6.100213    3.115558   -3.641697
     52          1           0        4.610019    3.621651   -2.924130
     53          1           0        3.342504    0.794969   -0.784458
     54          1           0        4.166432   -0.774918   -0.488521
     55          1           0        2.760027   -1.571101   -1.859888
     56          1           0        3.405830   -0.582930   -3.226004
     57          1           0        8.001741    5.876436   -0.681490
     58          1           0        9.475176    6.650540   -1.079394
     59          1           0        8.963247    6.524505    0.647300
     60          1           0       13.527939    4.462444    1.023539
     61          1           0       12.846735    4.847963    2.644269
     62          1           0       13.731093    6.128525    1.685658
     63          1           0       13.318399    0.967001    3.011923
     64          1           0       13.021278   -1.966726    2.694045
     65          1           0       14.554340    0.500621    0.576658
     66          1           0       14.889582   -1.040507    1.503748
     67          1           0       15.352386    0.542439    2.015865
     68          1           0       11.041832   -0.369823    4.308602
     69          1           0       12.669126   -0.108750    4.827620
     70          1           0       13.013439   -2.133440    5.594561
     71          1           0       11.714711   -2.906929    4.604240
     72          1           0       11.442001   -1.822042    6.051610
     73          1           0       10.541009   -5.231135    1.099353
     74          1           0        9.067947   -6.042823    0.489929
     75          1           0        9.152553   -5.253994    2.122836
     76          1           0        4.966646   -2.746729   -1.203551
     77          1           0        4.958363   -4.780054   -5.134817
     78          1           0        4.346995   -3.107570   -5.122651
     79          1           0        3.407466   -4.497868   -4.475950
     80         12           0       -9.438069    0.285910    0.157857
     81          6           0       -7.092095   -2.105237   -0.642603
     82          6           0       -7.572225    2.623070   -1.797799
     83          6           0      -11.420277    2.700669    1.159089
     84          6           0      -11.128314   -1.990565    2.188688
     85          7           0       -7.559027    0.176574   -1.054925
     86          6           0       -6.798319   -0.902400   -1.261598
     87          6           0       -5.668674   -0.537478   -2.279148
     88          6           0       -5.808057    1.038366   -2.499464
     89          6           0       -7.071172    1.335045   -1.668235
     90          6           0       -4.713751    1.914565   -1.920748
     91          6           0       -5.668762   -1.371253   -3.569292
     92          6           0       -4.294801   -1.955166   -3.852086
     93          1           0       -3.853209   -2.284177   -5.285566
     94          7           0       -9.519872    2.352857   -0.335521
     95          6           0       -8.738084    3.107173   -1.162180
     96          6           0       -9.184016    4.425073   -1.258053
     97          6           0      -10.254968    4.545315   -0.305196
     98          6           0      -10.460121    3.151896    0.221922
     99          6           0       -8.557120    5.474693   -2.164239
    100          6           0      -11.007318    5.790120    0.136141
    101          8           0      -11.787409    5.699654    1.103933
    102          6           0      -10.752161    7.111750   -0.465138
    103          7           0      -11.020895    0.302147    1.434735
    104          6           0      -11.774380    1.432467    1.676428
    105          6           0      -12.951032    1.228427    2.701540
    106          6           0      -12.961055   -0.358557    2.765293
    107          6           0      -11.614869   -0.717302    2.109848
    108          6           0      -12.910283    1.870740    4.144177
    109          6           0      -14.258528   -1.134245    2.253218
    110          6           0      -14.397771   -1.250144    0.758265
    111          7           0       -9.151522   -1.574897    0.805364
    112          6           0       -9.883031   -2.413949    1.624219
    113          6           0       -9.304837   -3.690538    1.733722
    114          6           0       -8.239311   -3.604483    0.830255
    115          6           0       -8.167820   -2.296152    0.269142
    116          6           0       -9.920784   -4.765846    2.523198
    117          6           0       -7.141494   -4.382760    0.401848
    118          8           0       -6.812285   -5.503093    0.796693
    119          6           0       -6.308454   -3.459213   -0.631632
    120          6           0       -4.941195   -3.332273   -0.158653
    121          8           0       -4.553209   -2.655983    0.766384
    122          8           0       -4.145122   -4.165209   -0.817670
    123          6           0       -2.775853   -4.283034   -0.416386
    124          1           0       -6.967857    3.341422   -2.354855
    125          1           0      -12.151250    3.392991    1.581201
    126          1           0      -11.686197   -2.670203    2.836306
    127          1           0       -4.790758   -0.728400   -1.662791
    128          1           0       -5.742792    1.181978   -3.578570
    129          1           0       -3.872053    1.367253   -1.495314
    130          1           0       -5.104547    2.507529   -1.094279
    131          1           0       -4.427764    2.676259   -2.646728
    132          1           0       -6.015195   -0.843966   -4.458313
    133          1           0       -6.395792   -2.172887   -3.441389
    134          1           0       -4.286451   -2.936518   -3.376383
    135          1           0       -3.579030   -1.256564   -3.419220
    136          1           0       -7.866578    5.028585   -2.880022
    137          1           0       -7.912056    6.115408   -1.562606
    138          1           0       -9.317124    6.123492   -2.598015
    139          1           0      -11.076150    7.910688    0.202771
    140          1           0      -11.378361    7.179180   -1.355301
    141          1           0       -9.691052    7.230891   -0.682781
    142          1           0      -13.925261    1.444731    2.261985
    143          1           0      -12.971489   -0.660130    3.811950
    144          1           0      -11.985368    2.440276    4.226073
    145          1           0      -12.723845    1.082072    4.874194
    146          1           0      -13.759207    2.474280    4.466677
    147          1           0      -15.109730   -0.532343    2.570510
    148          1           0      -14.408835   -2.106338    2.721288
    149          1           0      -14.917924   -2.187303    0.563182
    150          1           0      -13.529109   -1.178373    0.104960
    151          1           0      -15.004933   -0.402131    0.441479
    152          1           0      -11.005696   -4.786290    2.623226
    153          1           0       -9.451246   -4.985985    3.481175
    154          1           0       -9.626126   -5.638490    1.940854
    155          1           0       -6.315898   -3.957939   -1.600624
    156          1           0       -2.130871   -3.566856   -0.926776
    157          1           0       -2.439730   -5.270654   -0.731646
    158          1           0       -2.689671   -4.121264    0.658199
 ---------------------------------------------------------------------

 SCF Done:  E(RPBE1PBE) =  -4067.36500041     A.U. after   16 cycles

 Excitation energies and oscillator strengths:

 Excited State   1:      Singlet-A      1.8364 eV  675.16 nm  f=0.2457  <S**2>=0.000
     309 -> 315       -0.18012
     311 -> 313        0.68170
     312 -> 314       -0.10721
     311 <- 313       -0.10281
 This state for optimization and/or second-order correction.
 Total Energy, E(TD-HF/TD-DFT) =  -4067.29751554
 Copying the excited state density for this state as the 1-particle RhoCI density.

 Excited State   2:      Singlet-A      1.8493 eV  670.43 nm  f=0.0000  <S**2>=0.000
     312 -> 313        0.70708

 Excited State   3:      Singlet-A      1.8689 eV  663.39 nm  f=0.4885  <S**2>=0.000
     310 -> 316       -0.16392
     311 -> 313        0.10574
     312 -> 314        0.68490
     312 <- 314       -0.10986

 Excited State   4:      Singlet-A      1.9024 eV  651.73 nm  f=0.0000  <S**2>=0.000
     311 -> 314        0.70708

 Excited State   5:      Singlet-A      2.1966 eV  564.43 nm  f=0.1079  <S**2>=0.000
     309 -> 313        0.64500
     311 -> 315        0.27257

 The electronic state is 1-A.
 Alpha  occ. eigenvalues --  -46.92333 -46.91143 -19.25567 -19.25409 -19.19619
 Alpha  occ. eigenvalues --  -19.18933 -19.18814 -19.18642 -19.18456 -19.17600
 Alpha  occ. eigenvalues --  -14.41884 -14.41851 -14.41715 -14.41460 -14.39933
 Alpha  occ. eigenvalues --  -14.39374 -14.38865 -14.38708 -10.36127 -10.35231
 Alpha  occ. eigenvalues --  -10.31978 -10.31719 -10.31368 -10.30815 -10.29349
 Alpha  occ. eigenvalues --  -10.29344 -10.29256 -10.29192 -10.28968 -10.28947
 Alpha  occ. eigenvalues --  -10.28944 -10.28734 -10.28715 -10.28422 -10.28369
 Alpha  occ. eigenvalues --  -10.28255 -10.27979 -10.27706 -10.27028 -10.26848
 Alpha  occ. eigenvalues --  -10.26835 -10.26828 -10.26614 -10.26424 -10.26419
 Alpha  occ. eigenvalues --  -10.26244 -10.26206 -10.26171 -10.26151 -10.26052
 Alpha  occ. eigenvalues --  -10.26026 -10.25925 -10.25918 -10.25857 -10.25768
 Alpha  occ. eigenvalues --  -10.25690 -10.25572 -10.25510 -10.25479 -10.25237
 Alpha  occ. eigenvalues --  -10.25133 -10.25107 -10.25056 -10.25027 -10.24941
 Alpha  occ. eigenvalues --  -10.24876 -10.24851 -10.24771 -10.24478 -10.24289
 Alpha  occ. eigenvalues --  -10.24222 -10.24089 -10.24010 -10.23955 -10.23865
 Alpha  occ. eigenvalues --  -10.23689 -10.23685 -10.23561 -10.23246 -10.23155
 Alpha  occ. eigenvalues --  -10.22964 -10.22524 -10.22483 -10.22481 -10.22409
 Alpha  occ. eigenvalues --  -10.22274  -3.14405  -3.13502  -1.87248  -1.86788
 Alpha  occ. eigenvalues --   -1.86618  -1.86343  -1.85894  -1.85729  -1.12691
 Alpha  occ. eigenvalues --   -1.10250  -1.04863  -1.04582  -1.03670  -1.03200
 Alpha  occ. eigenvalues --   -1.02577  -1.01538  -0.99600  -0.99324  -0.98485
 Alpha  occ. eigenvalues --   -0.98407  -0.97976  -0.97651  -0.97252  -0.96182
 Alpha  occ. eigenvalues --   -0.87044  -0.86479  -0.85109  -0.83910  -0.83718
 Alpha  occ. eigenvalues --   -0.83390  -0.83075  -0.82655  -0.82071  -0.81986
 Alpha  occ. eigenvalues --   -0.81929  -0.81615  -0.81106  -0.80570  -0.79545
 Alpha  occ. eigenvalues --   -0.78908  -0.78876  -0.78154  -0.77782  -0.77258
 Alpha  occ. eigenvalues --   -0.76829  -0.76565  -0.75755  -0.75590  -0.75177
 Alpha  occ. eigenvalues --   -0.75011  -0.73018  -0.72644  -0.72311  -0.71693
 Alpha  occ. eigenvalues --   -0.71450  -0.71253  -0.70656  -0.70311  -0.69761
 Alpha  occ. eigenvalues --   -0.69679  -0.67960  -0.67883  -0.66511  -0.65928
 Alpha  occ. eigenvalues --   -0.64035  -0.63818  -0.63473  -0.63342  -0.62393
 Alpha  occ. eigenvalues --   -0.62219  -0.61912  -0.61521  -0.60939  -0.60448
 Alpha  occ. eigenvalues --   -0.59903  -0.59833  -0.59479  -0.59299  -0.59182
 Alpha  occ. eigenvalues --   -0.58917  -0.56903  -0.56651  -0.55313  -0.54982
 Alpha  occ. eigenvalues --   -0.54631  -0.54089  -0.54048  -0.53651  -0.53617
 Alpha  occ. eigenvalues --   -0.53208  -0.52861  -0.52554  -0.52240  -0.51884
 Alpha  occ. eigenvalues --   -0.51172  -0.51006  -0.50621  -0.50418  -0.50039
 Alpha  occ. eigenvalues --   -0.49759  -0.49704  -0.49185  -0.49065  -0.48943
 Alpha  occ. eigenvalues --   -0.48868  -0.48169  -0.47929  -0.47831  -0.47466
 Alpha  occ. eigenvalues --   -0.47343  -0.47123  -0.46952  -0.46834  -0.46807
 Alpha  occ. eigenvalues --   -0.46707  -0.46503  -0.46436  -0.46364  -0.46291
 Alpha  occ. eigenvalues --   -0.45981  -0.45903  -0.45835  -0.45053  -0.44951
 Alpha  occ. eigenvalues --   -0.44834  -0.44679  -0.44561  -0.44337  -0.44217
 Alpha  occ. eigenvalues --   -0.44118  -0.44112  -0.43938  -0.43814  -0.43787
 Alpha  occ. eigenvalues --   -0.43562  -0.43501  -0.43231  -0.43133  -0.43110
 Alpha  occ. eigenvalues --   -0.42868  -0.42480  -0.42302  -0.42051  -0.41855
 Alpha  occ. eigenvalues --   -0.41752  -0.41676  -0.41524  -0.41303  -0.41280
 Alpha  occ. eigenvalues --   -0.41150  -0.41040  -0.40901  -0.40842  -0.40524
 Alpha  occ. eigenvalues --   -0.40278  -0.40252  -0.40101  -0.39924  -0.39761
 Alpha  occ. eigenvalues --   -0.39748  -0.39358  -0.39343  -0.39270  -0.39241
 Alpha  occ. eigenvalues --   -0.38887  -0.38719  -0.38541  -0.38439  -0.38323
 Alpha  occ. eigenvalues --   -0.38249  -0.38124  -0.38109  -0.37906  -0.37822
 Alpha  occ. eigenvalues --   -0.37567  -0.37468  -0.37415  -0.36973  -0.36904
 Alpha  occ. eigenvalues --   -0.36616  -0.36410  -0.36381  -0.36319  -0.36160
 Alpha  occ. eigenvalues --   -0.36144  -0.36083  -0.35999  -0.35905  -0.35613
 Alpha  occ. eigenvalues --   -0.35452  -0.35153  -0.34175  -0.34089  -0.33850
 Alpha  occ. eigenvalues --   -0.33597  -0.33179  -0.32779  -0.32711  -0.32343
 Alpha  occ. eigenvalues --   -0.32264  -0.32063  -0.31668  -0.31429  -0.31379
 Alpha  occ. eigenvalues --   -0.31291  -0.31175  -0.29551  -0.29487  -0.28938
 Alpha  occ. eigenvalues --   -0.28906  -0.28484  -0.28258  -0.27149  -0.27047
 Alpha  occ. eigenvalues --   -0.25893  -0.25707  -0.25535  -0.25499  -0.25468
 Alpha  occ. eigenvalues --   -0.25297  -0.25066  -0.24338  -0.21275  -0.21134
 Alpha  occ. eigenvalues --   -0.19235  -0.19134
 Alpha virt. eigenvalues --   -0.11627  -0.11537  -0.05980  -0.05075  -0.03964
 Alpha virt. eigenvalues --   -0.03751  -0.02062  -0.01941  -0.00278  -0.00067
 Alpha virt. eigenvalues --    0.00210   0.00688   0.01164   0.01222   0.01728

 Mulliken charges:
               1
     1  Mg  12.001378
     2  C    6.013024
     3  C    5.986648
     4  C    5.983244
     5  C    6.014808
     6  N    7.004337
     7  C    5.970598
     8  C    6.012359
     9  C    5.992541
    10  C    6.026265
    11  C    5.997337
    12  C    6.000968
    13  C    6.001188
    14  H    0.992753
    15  N    6.991372
    16  C    6.040517
    17  C    6.021420
    18  C    6.010978
    19  C    6.035671
    20  C    5.990744
    21  C    6.006914
    22  O    8.017330
    23  C    5.999636
    24  N    7.005991
    25  C    6.031500
    26  C    5.992860
    27  C    6.006729
    28  C    5.965509
    29  C    5.999270
    30  C    6.006147
    31  C    6.000946
    32  N    7.002218
    33  C    5.961831
    34  C    5.975611
    35  C    5.996792
    36  C    5.970286
    37  C    6.000364
    38  C    5.982133
    39  O    7.969540
    40  C    6.002793
    41  C    5.995297
    42  O    7.991881
    43  O    8.000218
    44  C    6.003127
    45  H    1.009563
    46  H    1.010457
    47  H    0.991225
    48  H    0.996844
    49  H    1.000658
    50  H    1.010859
    51  H    0.997550
    52  H    0.999909
    53  H    0.993172
    54  H    1.006410
    55  H    1.003684
    56  H    0.999604
    57  H    1.018201
    58  H    1.020551
    59  H    1.018709
    60  H    1.005569
    61  H    1.009692
    62  H    1.011290
    63  H    0.999112
    64  H    1.002392
    65  H    0.997641
    66  H    1.011462
    67  H    1.001589
    68  H    0.995172
    69  H    0.986866
    70  H    0.995126
    71  H    1.005541
    72  H    0.996614
    73  H    0.982824
    74  H    0.987584
    75  H    0.982832
    76  H    0.990739
    77  H    0.997254
    78  H    0.994176
    79  H    0.996058
    80  Mg  12.000201
    81  C    5.998124
    82  C    6.001731
    83  C    6.002630
    84  C    5.999115
    85  N    6.999089
    86  C    6.003869
    87  C    5.999138
    88  C    6.002273
    89  C    5.995636
    90  C    6.000569
    91  C    5.999685
    92  C    5.999641
    93  H    1.001179
    94  N    7.000747
    95  C    5.994464
    96  C    5.997303
    97  C    5.997219
    98  C    5.995036
    99  C    6.000354
   100  C    5.997830
   101  O    7.994982
   102  C    6.000907
   103  N    6.999961
   104  C    5.994448
   105  C    6.002293
   106  C    5.998513
   107  C    6.004060
   108  C    5.999946
   109  C    5.999290
   110  C    5.999642
   111  N    6.999853
   112  C    6.005134
   113  C    6.004144
   114  C    6.000585
   115  C    6.004637
   116  C    5.999463
   117  C    6.002827
   118  O    8.005475
   119  C    6.000696
   120  C    6.000566
   121  O    8.001095
   122  O    8.000170
   123  C    5.999017
   124  H    0.998133
   125  H    0.998858
   126  H    1.001567
   127  H    1.000201
   128  H    0.998749
   129  H    0.998382
   130  H    1.000087
   131  H    0.999045
   132  H    1.000892
   133  H    0.998939
   134  H    0.999672
   135  H    1.000972
   136  H    0.997421
   137  H    0.996766
   138  H    0.997556
   139  H    0.997434
   140  H    0.998237
   141  H    0.998861
   142  H    0.999352
   143  H    1.000266
   144  H    1.000440
   145  H    0.998330
   146  H    0.999644
   147  H    1.001383
   148  H    0.999703
   149  H    0.999942
   150  H    1.000055
   151  H    1.001405
   152  H    1.002686
   153  H    1.003425
   154  H    1.002209
   155  H    1.001618
   156  H    1.002112
   157  H    1.001590
   158  H    1.000525
 Sum of Mulliken charges = 624.00000

 Dipole moment (field-independent basis, Debye):
    X=              2.8090    Y=              7.9153    Z=              0.1133  Tot=              8.3997
 Quadrupole moment (field-independent basis, Debye-Ang):
   XX=             42.0059   YY=              7.0063   ZZ=             -3.5960
   XY=            105.2851   XZ=             -7.1401   YZ=              0.8401

 Normal termination of Gaussian 16 at Thu Oct 14 20:19:24 2021.
