 Gaussian 16, Revision A.03,
 Gaussian 16:  ES64L-G16RevA.03 25-Dec-2016

 --------------------------------------------------------
 #p PBE1PBE/Def2SVP td=(nstates=5) density=(transition=1)
 --------------------------------------------------------

 --------------------------------
 TDDFT excited states in gaussian
 --------------------------------
 Symbolic Z-matrix:
 Charge =  0 Multiplicity = 1

                         Standard orientation:
 ---------------------------------------------------------------------
 Center     Atomic      Atomic             Coordinates (Angstroms)
 Number     Number       Type             X           Y           Z
 ---------------------------------------------------------------------
      1         12           0      -26.650364   -0.589345   -0.130165
      2          6           0      -24.675990    1.832177   -1.432009
      3          6           0      -28.369200    1.802057    1.711449
      4          6           0      -28.620923   -3.012361    1.176496
      5          6           0      -24.637640   -3.008139   -1.572879
      6          7           0      -26.557333    1.511449   -0.022644
      7          6           0      -25.656502    2.342927   -0.604483
      8          6           0      -26.011387    3.795375   -0.420491
      9          6           0      -27.011927    3.768765    0.796769
     10          6           0      -27.362900    2.244847    0.812589
     11          6           0      -26.585464    4.375858    2.198314
     12          6           0      -26.734520    4.395600   -1.709120
     13          6           0      -26.579124    5.941434   -1.814405
     14          1           0      -26.383461    6.824719   -0.570754
     15          7           0      -28.247339   -0.655465    1.330546
     16          6           0      -28.800229    0.493468    1.954614
     17          6           0      -29.874011    0.097704    2.815229
     18          6           0      -29.966274   -1.334649    2.693557
     19          6           0      -28.913238   -1.699158    1.679578
     20          6           0      -30.742824    1.037782    3.574933
     21          6           0      -30.920885   -2.303358    3.382543
     22          8           0      -30.867998   -3.566395    3.313833
     23          6           0      -32.037129   -1.754726    4.255014
     24          7           0      -26.602094   -2.695703   -0.125487
     25          6           0      -27.646795   -3.499487    0.333538
     26          6           0      -27.602994   -4.970748   -0.171184
     27          6           0      -26.278969   -4.870844   -1.117099
     28          6           0      -25.810438   -3.468946   -0.976176
     29          6           0      -27.454274   -5.909155    1.033273
     30          6           0      -26.495905   -5.314399   -2.533829
     31          6           0      -25.557385   -6.402305   -2.971549
     32          7           0      -24.981929   -0.701024   -1.147140
     33          6           0      -24.246064   -1.729997   -1.721586
     34          6           0      -23.129532   -1.203633   -2.415303
     35          6           0      -23.192978    0.212245   -2.315733
     36          6           0      -24.392495    0.490152   -1.626921
     37          6           0      -22.076913   -1.920080   -3.170692
     38          6           0      -22.489157    1.447677   -2.581777
     39          8           0      -21.420963    1.738620   -3.083547
     40          6           0      -23.521332    2.552512   -2.052170
     41          6           0      -22.840295    3.677348   -1.359258
     42          8           0      -21.941818    3.592580   -0.561532
     43          8           0      -23.296216    4.883853   -1.730327
     44          6           0      -22.640022    6.029912   -1.038971
     45          1           0      -28.721415    2.600255    2.368359
     46          1           0      -29.175308   -3.789763    1.706202
     47          1           0      -24.019650   -3.697623   -2.151676
     48          1           0      -25.169973    4.387253   -0.060600
     49          1           0      -27.934654    4.260080    0.489758
     50          1           0      -25.611410    4.846105    2.062949
     51          1           0      -26.536606    3.698211    3.049194
     52          1           0      -27.358532    5.094516    2.470998
     53          1           0      -27.770143    4.070166   -1.609187
     54          1           0      -26.280947    3.923836   -2.580877
     55          1           0      -27.495319    6.228809   -2.330582
     56          1           0      -25.793460    6.116320   -2.548945
     57          1           0      -31.558603    1.490835    3.011508
     58          1           0      -30.065995    1.789160    3.979732
     59          1           0      -31.108176    0.621204    4.513122
     60          1           0      -31.587025   -1.565965    5.229512
     61          1           0      -32.751920   -2.572916    4.339486
     62          1           0      -32.478594   -0.829959    3.883090
     63          1           0      -28.573061   -5.158184   -0.631708
     64          1           0      -25.513652   -5.530933   -0.707450
     65          1           0      -27.261370   -5.427136    1.991909
     66          1           0      -26.742737   -6.695159    0.781380
     67          1           0      -28.434317   -6.366136    1.173345
     68          1           0      -26.325031   -4.522801   -3.263520
     69          1           0      -27.506872   -5.657693   -2.753730
     70          1           0      -26.064551   -7.235688   -3.456873
     71          1           0      -25.009190   -6.817724   -2.126383
     72          1           0      -24.813664   -5.882554   -3.576282
     73          1           0      -21.823528   -2.917643   -2.810622
     74          1           0      -21.165720   -1.396194   -2.880516
     75          1           0      -22.322448   -1.931390   -4.232672
     76          1           0      -23.830333    2.914493   -3.033207
     77          1           0      -21.651993    6.244850   -1.448509
     78          1           0      -22.672059    5.924477    0.045574
     79          1           0      -23.234119    6.924161   -1.228888
     80         12           0       26.697608   -0.673878    0.049053
     81          6           0       25.351185    2.461711    1.062613
     82          6           0       27.738132    0.813381   -2.871214
     83          6           0       27.827516   -3.674519   -0.749909
     84          6           0       25.121373   -2.201167    2.895489
     85          7           0       26.502308    1.451819   -0.877296
     86          6           0       25.997106    2.535735   -0.182882
     87          6           0       26.217850    3.783623   -1.104898
     88          6           0       26.970953    3.238585   -2.432587
     89          6           0       27.060869    1.758420   -2.047470
     90          6           0       26.291729    3.561164   -3.779836
     91          6           0       26.870918    5.064947   -0.439690
     92          6           0       26.052015    6.321224   -0.506151
     93          1           0       25.052037    6.609697   -1.594557
     94          7           0       27.809390   -1.338849   -1.604501
     95          6           0       28.113708   -0.571459   -2.684454
     96          6           0       29.002096   -1.365499   -3.493664
     97          6           0       28.961767   -2.675241   -2.968715
     98          6           0       28.150057   -2.660572   -1.708456
     99          6           0       29.628375   -0.766081   -4.764071
    100          6           0       29.503048   -3.920715   -3.602738
    101          8           0       29.305243   -5.052235   -3.099962
    102          6           0       30.241664   -3.821980   -4.885758
    103          7           0       26.410215   -2.674514    0.972641
    104          6           0       27.039305   -3.687238    0.486564
    105          6           0       26.935138   -5.080595    1.308073
    106          6           0       26.046796   -4.587281    2.460306
    107          6           0       25.841532   -3.128990    2.130707
    108          6           0       26.296417   -6.186727    0.390660
    109          6           0       26.599429   -4.784131    3.915684
    110          6           0       27.768471   -3.864823    4.342228
    111          7           0       25.426274   -0.057338    1.527088
    112          6           0       24.865144   -0.814279    2.582451
    113          6           0       24.140570    0.112021    3.463182
    114          6           0       24.313487    1.403186    2.909239
    115          6           0       25.144053    1.255708    1.747290
    116          6           0       23.383545   -0.284778    4.765898
    117          6           0       23.996010    2.714001    3.127198
    118          8           0       23.308274    3.259438    3.966072
    119          6           0       24.685478    3.520229    1.991281
    120          6           0       23.686907    4.333768    1.336961
    121          8           0       22.984743    3.963127    0.389457
    122          8           0       23.470251    5.501384    2.078298
    123          6           0       22.329923    6.323657    1.603318
    124          1           0       27.892564    1.089307   -3.916793
    125          1           0       28.064922   -4.678193   -1.108929
    126          1           0       24.625945   -2.613250    3.777019
    127          1           0       25.173300    4.066794   -1.228025
    128          1           0       27.935677    3.736892   -2.516985
    129          1           0       26.980986    4.085490   -4.442970
    130          1           0       25.358434    4.122400   -3.737531
    131          1           0       26.055749    2.580221   -4.192353
    132          1           0       27.849002    5.256844   -0.881293
    133          1           0       26.965146    4.820492    0.618386
    134          1           0       26.740074    7.119232   -0.787441
    135          1           0       25.582573    6.463615    0.466576
    136          1           0       29.577543    0.322943   -4.772549
    137          1           0       29.119806   -1.158490   -5.643746
    138          1           0       30.666206   -1.096425   -4.734946
    139          1           0       31.083659   -3.151383   -4.714057
    140          1           0       29.627369   -3.368878   -5.664804
    141          1           0       30.519274   -4.811561   -5.246511
    142          1           0       27.910727   -5.397500    1.677542
    143          1           0       25.038951   -4.984615    2.337832
    144          1           0       25.630540   -5.688810   -0.314117
    145          1           0       25.683236   -6.834224    1.018437
    146          1           0       26.967496   -6.826071   -0.183498
    147          1           0       26.778938   -5.842507    4.102015
    148          1           0       25.771965   -4.609829    4.602738
    149          1           0       28.465193   -3.561899    3.561334
    150          1           0       28.272052   -4.330523    5.190115
    151          1           0       27.288996   -2.978982    4.758460
    152          1           0       23.646073    0.338248    5.620955
    153          1           0       23.504418   -1.334216    5.032167
    154          1           0       22.347514    0.045436    4.686318
    155          1           0       25.382415    4.137995    2.556671
    156          1           0       21.384836    5.818235    1.800317
    157          1           0       22.327472    6.515421    0.530935
    158          1           0       22.478121    7.320364    2.019262
 ---------------------------------------------------------------------

 SCF Done:  E(RPBE1PBE) =  -4067.37772649     A.U. after   16 cycles

 Excitation energies and oscillator strengths:

 Excited State   1:      Singlet-A      1.8022 eV  687.94 nm  f=0.3711  <S**2>=0.000
     309 -> 316       -0.16356
     312 -> 313        0.69743
     312 <- 313       -0.11962
 This state for optimization and/or second-order correction.
 Total Energy, E(TD-HF/TD-DFT) =  -4067.31149523
 Copying the excited state density for this state as the 1-particle RhoCI density.

 Excited State   2:      Singlet-A      1.8677 eV  663.84 nm  f=0.3635  <S**2>=0.000
     310 -> 315       -0.18706
     311 -> 314        0.68778

 Excited State   3:      Singlet-A      1.9543 eV  634.42 nm  f=0.0000  <S**2>=0.000
     311 -> 313        0.70711

 Excited State   4:      Singlet-A      2.0132 eV  615.85 nm  f=0.0000  <S**2>=0.000
     312 -> 314        0.70711

 Excited State   5:      Singlet-A      2.2069 eV  561.81 nm  f=0.1023  <S**2>=0.000
     310 -> 314        0.65387
     311 -> 315        0.25872

 The electronic state is 1-A.
 Alpha  occ. eigenvalues --  -46.93181 -46.90553 -19.25764 -19.24985 -19.19578
 Alpha  occ. eigenvalues --  -19.19422 -19.18964 -19.18712 -19.18676 -19.18113
 Alpha  occ. eigenvalues --  -14.42277 -14.42041 -14.41411 -14.41288 -14.39512
 Alpha  occ. eigenvalues --  -14.39277 -14.39121 -14.38483 -10.35661 -10.35566
 Alpha  occ. eigenvalues --  -10.32327 -10.32253 -10.31866 -10.30665 -10.29412
 Alpha  occ. eigenvalues --  -10.29263 -10.29149 -10.29104 -10.28998 -10.28783
 Alpha  occ. eigenvalues --  -10.28658 -10.28445 -10.28233 -10.28208 -10.28148
 Alpha  occ. eigenvalues --  -10.28061 -10.28051 -10.27719 -10.27547 -10.26858
 Alpha  occ. eigenvalues --  -10.26736 -10.26666 -10.26598 -10.26554 -10.26505
 Alpha  occ. eigenvalues --  -10.26314 -10.26147 -10.26106 -10.26072 -10.25994
 Alpha  occ. eigenvalues --  -10.25975 -10.25955 -10.25854 -10.25486 -10.25476
 Alpha  occ. eigenvalues --  -10.25471 -10.25455 -10.25451 -10.25352 -10.25344
 Alpha  occ. eigenvalues --  -10.25290 -10.25285 -10.25206 -10.25114 -10.25060
 Alpha  occ. eigenvalues --  -10.24993 -10.24916 -10.24865 -10.24557 -10.24539
 Alpha  occ. eigenvalues --  -10.24293 -10.24201 -10.23739 -10.23655 -10.23637
 Alpha  occ. eigenvalues --  -10.23392 -10.23367 -10.23319 -10.23259 -10.23215
 Alpha  occ. eigenvalues --  -10.23092 -10.22993 -10.22983 -10.22973 -10.22552
 Alpha  occ. eigenvalues --  -10.21994  -3.15105  -3.12982  -1.87959  -1.87513
 Alpha  occ. eigenvalues --   -1.87284  -1.85816  -1.85337  -1.85253  -1.12066
 Alpha  occ. eigenvalues --   -1.09145  -1.04861  -1.04297  -1.02847  -1.02075
 Alpha  occ. eigenvalues --   -1.02064  -1.01181  -1.00722  -0.99086  -0.98223
 Alpha  occ. eigenvalues --   -0.98168  -0.97577  -0.97337  -0.96581  -0.96034
 Alpha  occ. eigenvalues --   -0.87718  -0.86851  -0.84046  -0.84007  -0.83087
 Alpha  occ. eigenvalues --   -0.82821  -0.82365  -0.82027  -0.82011  -0.81516
 Alpha  occ. eigenvalues --   -0.81381  -0.81093  -0.80701  -0.79916  -0.78646
 Alpha  occ. eigenvalues --   -0.78540  -0.78067  -0.77679  -0.76824  -0.76744
 Alpha  occ. eigenvalues --   -0.76198  -0.75872  -0.75377  -0.75018  -0.74742
 Alpha  occ. eigenvalues --   -0.74378  -0.72592  -0.72422  -0.72096  -0.71869
 Alpha  occ. eigenvalues --   -0.71631  -0.70827  -0.70767  -0.70083  -0.69578
 Alpha  occ. eigenvalues --   -0.69302  -0.67326  -0.67058  -0.66281  -0.65975
 Alpha  occ. eigenvalues --   -0.64772  -0.63524  -0.63491  -0.63040  -0.62564
 Alpha  occ. eigenvalues --   -0.62249  -0.61206  -0.61096  -0.60262  -0.59778
 Alpha  occ. eigenvalues --   -0.59777  -0.59412  -0.59307  -0.59103  -0.58767
 Alpha  occ. eigenvalues --   -0.58663  -0.56885  -0.56076  -0.54865  -0.54580
 Alpha  occ. eigenvalues --   -0.54430  -0.54106  -0.53531  -0.53247  -0.52987
 Alpha  occ. eigenvalues --   -0.52695  -0.52524  -0.52438  -0.52298  -0.52112
 Alpha  occ. eigenvalues --   -0.50816  -0.50670  -0.50545  -0.49855  -0.49852
 Alpha  occ. eigenvalues --   -0.49729  -0.49567  -0.49420  -0.48504  -0.48151
 Alpha  occ. eigenvalues --   -0.47948  -0.47631  -0.47596  -0.47540  -0.47463
 Alpha  occ. eigenvalues --   -0.47293  -0.47187  -0.47080  -0.46883  -0.46658
 Alpha  occ. eigenvalues --   -0.46590  -0.46581  -0.46094  -0.45878  -0.45808
 Alpha  occ. eigenvalues --   -0.45728  -0.45491  -0.44969  -0.44814  -0.44635
 Alpha  occ. eigenvalues --   -0.44445  -0.44412  -0.44225  -0.44092  -0.43825
 Alpha  occ. eigenvalues --   -0.43748  -0.43572  -0.43507  -0.43452  -0.43331
 Alpha  occ. eigenvalues --   -0.43198  -0.43064  -0.42837  -0.42678  -0.42639
 Alpha  occ. eigenvalues --   -0.42477  -0.42362  -0.42170  -0.41996  -0.41988
 Alpha  occ. eigenvalues --   -0.41818  -0.41418  -0.41383  -0.41322  -0.41310
 Alpha  occ. eigenvalues --   -0.41214  -0.41035  -0.40877  -0.40665  -0.40589
 Alpha  occ. eigenvalues --   -0.40267  -0.39969  -0.39779  -0.39726  -0.39545
 Alpha  occ. eigenvalues --   -0.39458  -0.39347  -0.39099  -0.38849  -0.38692
 Alpha  occ. eigenvalues --   -0.38639  -0.38459  -0.38384  -0.38103  -0.38046
 Alpha  occ. eigenvalues --   -0.37980  -0.37974  -0.37628  -0.37374  -0.37225
 Alpha  occ. eigenvalues --   -0.37189  -0.37131  -0.36788  -0.36766  -0.36742
 Alpha  occ. eigenvalues --   -0.36668  -0.36494  -0.36259  -0.36176  -0.36049
 Alpha  occ. eigenvalues --   -0.35948  -0.35901  -0.35726  -0.35486  -0.35324
 Alpha  occ. eigenvalues --   -0.35276  -0.35253  -0.35011  -0.34951  -0.34647
 Alpha  occ. eigenvalues --   -0.34045  -0.33225  -0.32973  -0.32638  -0.32226
 Alpha  occ. eigenvalues --   -0.32036  -0.31918  -0.31689  -0.31583  -0.31480
 Alpha  occ. eigenvalues --   -0.31057  -0.30552  -0.29815  -0.29385  -0.29117
 Alpha  occ. eigenvalues --   -0.28655  -0.28440  -0.28409  -0.26987  -0.26841
 Alpha  occ. eigenvalues --   -0.25928  -0.25738  -0.25607  -0.25510  -0.25487
 Alpha  occ. eigenvalues --   -0.25423  -0.25183  -0.25167  -0.21184  -0.20696
 Alpha  occ. eigenvalues --   -0.18824  -0.18691
 Alpha virt. eigenvalues --   -0.11391  -0.11045  -0.05251  -0.05121  -0.04076
 Alpha virt. eigenvalues --   -0.04020  -0.02123  -0.02056  -0.00155   0.00128
 Alpha virt. eigenvalues --    0.00383   0.00855   0.01209   0.01263   0.01494

 Mulliken charges:
               1
     1  Mg  12.004232
     2  C    5.978533
     3  C    5.999550
     4  C    6.030848
     5  C    6.015603
     6  N    6.985571
     7  C    6.031614
     8  C    5.988289
     9  C    6.009587
    10  C    5.968555
    11  C    6.004414
    12  C    5.997391
    13  C    5.999939
    14  H    1.005874
    15  N    7.003435
    16  C    5.962026
    17  C    5.986344
    18  C    5.978711
    19  C    5.969980
    20  C    6.003552
    21  C    5.986407
    22  O    7.962569
    23  C    6.004858
    24  N    7.019869
    25  C    5.967234
    26  C    6.009312
    27  C    5.988483
    28  C    6.018021
    29  C    5.999802
    30  C    5.993702
    31  C    5.999723
    32  N    6.997449
    33  C    6.019369
    34  C    6.034897
    35  C    6.000653
    36  C    6.029138
    37  C    5.997066
    38  C    6.013884
    39  O    8.023518
    40  C    6.003618
    41  C    6.003190
    42  O    8.002183
    43  O    8.001942
    44  C    5.998558
    45  H    0.985340
    46  H    1.001365
    47  H    1.014839
    48  H    0.999188
    49  H    0.996503
    50  H    0.985146
    51  H    1.000535
    52  H    0.996770
    53  H    1.011068
    54  H    0.992816
    55  H    1.002245
    56  H    0.995667
    57  H    0.981825
    58  H    0.987238
    59  H    0.986269
    60  H    0.989934
    61  H    0.985688
    62  H    0.993080
    63  H    1.003688
    64  H    1.004142
    65  H    1.004927
    66  H    0.992578
    67  H    1.005140
    68  H    0.998248
    69  H    1.012426
    70  H    1.007130
    71  H    1.003897
    72  H    0.996009
    73  H    1.016581
    74  H    1.015400
    75  H    1.021209
    76  H    1.003512
    77  H    1.000416
    78  H    1.004974
    79  H    1.004717
    80  Mg  11.999997
    81  C    5.999952
    82  C    6.000028
    83  C    6.000071
    84  C    5.999978
    85  N    6.999964
    86  C    6.000038
    87  C    5.999987
    88  C    6.000000
    89  C    6.000004
    90  C    5.999998
    91  C    6.000000
    92  C    6.000010
    93  H    0.999961
    94  N    7.000027
    95  C    5.999983
    96  C    6.000002
    97  C    6.000000
    98  C    5.999966
    99  C    6.000000
   100  C    6.000038
   101  O    8.000025
   102  C    5.999995
   103  N    7.000019
   104  C    5.999958
   105  C    6.000002
   106  C    5.999995
   107  C    5.999995
   108  C    5.999998
   109  C    6.000001
   110  C    6.000003
   111  N    6.999979
   112  C    6.000001
   113  C    5.999990
   114  C    6.000026
   115  C    6.000017
   116  C    5.999992
   117  C    5.999959
   118  O    7.999974
   119  C    6.000022
   120  C    5.999990
   121  O    7.999963
   122  O    8.000014
   123  C    6.000016
   124  H    1.000000
   125  H    1.000008
   126  H    0.999982
   127  H    0.999983
   128  H    1.000025
   129  H    1.000016
   130  H    0.999989
   131  H    0.999976
   132  H    1.000009
   133  H    1.000023
   134  H    1.000016
   135  H    1.000008
   136  H    1.000029
   137  H    1.000004
   138  H    1.000038
   139  H    1.000029
   140  H    0.999996
   141  H    1.000025
   142  H    1.000027
   143  H    0.999973
   144  H    0.999973
   145  H    1.000006
   146  H    1.000005
   147  H    0.999999
   148  H    0.999998
   149  H    0.999995
   150  H    1.000024
   151  H    1.000010
   152  H    1.000001
   153  H    0.999983
   154  H    0.999949
   155  H    1.000012
   156  H    0.999966
   157  H    0.999979
   158  H    1.000007
 Sum of Mulliken charges = 624.00000

 Dipole moment (field-independent basis, Debye):
    X=              8.0574    Y=             -1.4071    Z=             -6.4568  Tot=             10.4207
 Quadrupole moment (field-independent basis, Debye-Ang):
   XX=           -428.1903   YY=              4.5428   ZZ=             -3.6200
   XY=             31.6590   XZ=            174.4960   YZ=              5.2447

 Normal termination of Gaussian 16 at Fri Oct 15 01:46:36 2021.
