 Gaussian 16, Revision A.03,
 Gaussian 16:  ES64L-G16RevA.03 25-Dec-2016

 --------------------------------------------------------
 #p PBE1PBE/Def2SVP td=(nstates=5) density=(transition=1)
 --------------------------------------------------------

 --------------------------------
 TDDFT excited states in gaussian
 --------------------------------
 Symbolic Z-matrix:
 Charge =  0 Multiplicity = 1

                         Standard orientation:
 ---------------------------------------------------------------------
 Center     Atomic      Atomic             Coordinates (Angstroms)
 Number     Number       Type             X           Y           Z
 ---------------------------------------------------------------------
      1         12           0       28.978661    0.185363   -0.125584
      2          6           0       26.013738   -1.625204   -0.111070
      3          6           0       27.005922    2.964316   -1.219782
      4          6           0       31.587409    2.143703    0.280150
      5          6           0       30.513621   -2.457362    1.611547
      6          7           0       26.754966    0.623840   -0.483668
      7          6           0       25.773397   -0.341691   -0.490751
      8          6           0       24.422279    0.283380   -0.848574
      9          6           0       24.855735    1.648529   -1.450830
     10          6           0       26.285258    1.799141   -1.001291
     11          6           0       24.755721    1.849053   -3.014019
     12          6           0       23.480985    0.418208    0.359647
     13          6           0       22.100563    0.856923    0.051239
     14          1           0       20.984064    0.512403    1.109460
     15          7           0       29.281168    2.296775   -0.414563
     16          6           0       28.364283    3.247118   -0.890242
     17          6           0       29.034407    4.515673   -0.959561
     18          6           0       30.347769    4.325785   -0.391111
     19          6           0       30.461663    2.843063   -0.167635
     20          6           0       28.324297    5.823064   -1.407187
     21          6           0       31.342048    5.475886   -0.202242
     22          8           0       31.134802    6.588768   -0.656725
     23          6           0       32.595060    5.225844    0.546709
     24          7           0       30.863462   -0.209869    0.622195
     25          6           0       31.774326    0.769222    0.635752
     26          6           0       33.068542    0.283615    1.405781
     27          6           0       32.751212   -1.178384    1.904842
     28          6           0       31.215804   -1.296196    1.384665
     29          6           0       34.431904    0.429155    0.680028
     30          6           0       32.841502   -1.248945    3.444280
     31          6           0       33.249737   -2.613456    4.012742
     32          7           0       28.450473   -1.699208    0.635302
     33          6           0       29.188191   -2.704383    1.195235
     34          6           0       28.341359   -3.898766    1.299161
     35          6           0       27.152255   -3.540497    0.722919
     36          6           0       27.216203   -2.205285    0.394643
     37          6           0       28.782101   -5.276078    1.805234
     38          6           0       25.833638   -4.008013    0.417448
     39          8           0       25.308323   -5.086835    0.542220
     40          6           0       25.041978   -2.783744   -0.152187
     41          6           0       24.691723   -3.094538   -1.565401
     42          8           0       25.426811   -3.497827   -2.423570
     43          8           0       23.360993   -2.702327   -1.791796
     44          6           0       22.887572   -2.861307   -3.137359
     45          1           0       26.341789    3.720630   -1.642209
     46          1           0       32.534240    2.661077    0.451057
     47          1           0       30.980118   -3.323703    2.085404
     48          1           0       24.019347   -0.325588   -1.656701
     49          1           0       24.368316    2.529169   -1.033967
     50          1           0       24.201053    2.780780   -3.123007
     51          1           0       24.547739    0.972422   -3.628090
     52          1           0       25.759948    2.102374   -3.353492
     53          1           0       23.761900    1.173867    1.093748
     54          1           0       23.444281   -0.524291    0.906062
     55          1           0       21.840755    0.413326   -0.909917
     56          1           0       22.104419    1.932794   -0.122788
     57          1           0       28.223187    6.264589   -0.415244
     58          1           0       27.294445    5.715067   -1.748148
     59          1           0       28.762895    6.538569   -2.102978
     60          1           0       32.271552    4.729969    1.461879
     61          1           0       33.025468    6.187558    0.826383
     62          1           0       33.170885    4.593779   -0.129772
     63          1           0       33.156546    0.946379    2.267116
     64          1           0       33.349346   -1.965332    1.446542
     65          1           0       34.972679    1.254975    1.143381
     66          1           0       34.245851    0.534799   -0.388253
     67          1           0       35.053589   -0.441688    0.887868
     68          1           0       31.849238   -0.964276    3.793320
     69          1           0       33.477390   -0.482755    3.888243
     70          1           0       34.139413   -2.375707    4.596890
     71          1           0       33.402590   -3.390274    3.263444
     72          1           0       32.498833   -2.968555    4.718644
     73          1           0       28.096418   -5.785889    2.481206
     74          1           0       29.737491   -5.043573    2.276227
     75          1           0       29.092719   -5.833199    0.921220
     76          1           0       24.149901   -2.683524    0.466199
     77          1           0       22.171740   -3.683057   -3.115046
     78          1           0       23.603407   -3.042794   -3.939432
     79          1           0       22.390620   -1.932507   -3.416174
     80         12           0      -28.671338    0.496353    0.455869
     81          6           0      -27.135605   -2.196029   -1.388697
     82          6           0      -27.794823    2.586673   -2.219876
     83          6           0      -30.168671    2.936525    2.063178
     84          6           0      -29.171743   -1.688000    3.139024
     85          7           0      -27.538051    0.164229   -1.589188
     86          6           0      -27.217190   -1.011440   -2.190935
     87          6           0      -26.896958   -0.827563   -3.665413
     88          6           0      -26.771020    0.787472   -3.841289
     89          6           0      -27.374323    1.217947   -2.473058
     90          6           0      -25.345549    1.301589   -4.163639
     91          6           0      -27.971222   -1.475206   -4.603014
     92          6           0      -27.394350   -2.514682   -5.598695
     93          1           0      -27.548869   -2.079297   -7.168110
     94          7           0      -28.940318    2.424005   -0.003536
     95          6           0      -28.497456    3.183240   -1.139137
     96          6           0      -28.913001    4.605178   -1.095112
     97          6           0      -29.648045    4.651289    0.134562
     98          6           0      -29.607423    3.323454    0.769849
     99          6           0      -28.561062    5.656211   -2.149836
    100          6           0      -30.279329    5.822111    0.786396
    101          8           0      -31.087952    5.777246    1.707196
    102          6           0      -30.014223    7.214139    0.180023
    103          7           0      -29.673346    0.540842    2.226191
    104          6           0      -30.194391    1.691520    2.709909
    105          6           0      -30.615117    1.586106    4.149424
    106          6           0      -30.355531    0.104551    4.517690
    107          6           0      -29.740926   -0.431804    3.205188
    108          6           0      -29.987199    2.611221    5.070290
    109          6           0      -31.764581   -0.660657    4.864245
    110          6           0      -31.818757   -1.421102    6.298489
    111          7           0      -28.016030   -1.466749    0.943702
    112          6           0      -28.392851   -2.233281    2.072719
    113          6           0      -27.886891   -3.596325    1.874585
    114          6           0      -27.532327   -3.617114    0.499982
    115          6           0      -27.513414   -2.302551    0.031429
    116          6           0      -27.813032   -4.765577    2.851943
    117          6           0      -26.875865   -4.497274   -0.507563
    118          8           0      -26.449344   -5.685261   -0.522112
    119          6           0      -26.727999   -3.598911   -1.795961
    120          6           0      -25.303660   -3.668143   -2.262121
    121          8           0      -24.351411   -3.591948   -1.538376
    122          8           0      -25.273834   -3.947661   -3.600188
    123          6           0      -23.926665   -4.365982   -4.063540
    124          1           0      -27.382685    3.216158   -3.011036
    125          1           0      -30.677449    3.705067    2.649298
    126          1           0      -29.351008   -2.397920    3.948873
    127          1           0      -25.906222   -1.257686   -3.812392
    128          1           0      -27.452479    1.179608   -4.596713
    129          1           0      -24.957447    1.908950   -3.345438
    130          1           0      -25.349678    1.882236   -5.087017
    131          1           0      -24.606602    0.536778   -4.402762
    132          1           0      -28.483022   -0.726302   -5.207975
    133          1           0      -28.733986   -2.006583   -4.033242
    134          1           0      -27.964348   -3.443745   -5.625596
    135          1           0      -26.376293   -2.842284   -5.390486
    136          1           0      -28.234292    5.291384   -3.124116
    137          1           0      -27.844153    6.414696   -1.835600
    138          1           0      -29.492471    6.195458   -2.325357
    139          1           0      -28.951218    7.451011    0.224055
    140          1           0      -30.611955    7.993670    0.653615
    141          1           0      -30.319447    7.184339   -0.865933
    142          1           0      -31.673491    1.843635    4.208193
    143          1           0      -29.626266    0.018840    5.322713
    144          1           0      -30.682570    3.383863    5.399435
    145          1           0      -29.188410    3.204649    4.625602
    146          1           0      -29.563031    2.079312    5.922161
    147          1           0      -32.053485   -1.410949    4.128967
    148          1           0      -32.614394    0.021031    4.887175
    149          1           0      -31.041794   -0.953368    6.903503
    150          1           0      -31.649073   -2.493738    6.196232
    151          1           0      -32.735449   -1.185557    6.838503
    152          1           0      -27.925194   -5.727560    2.352213
    153          1           0      -28.698765   -4.713202    3.486129
    154          1           0      -26.915241   -4.552186    3.432239
    155          1           0      -27.313749   -4.097359   -2.567910
    156          1           0      -23.224486   -3.589449   -3.760763
    157          1           0      -24.005439   -4.309596   -5.149116
    158          1           0      -23.507001   -5.305090   -3.703004
 ---------------------------------------------------------------------

 SCF Done:  E(RPBE1PBE) =  -4067.37099385     A.U. after   16 cycles

 Excitation energies and oscillator strengths:

 Excited State   1:      Singlet-A      1.8271 eV  678.59 nm  f=0.3510  <S**2>=0.000
     310 -> 316        0.18275
     312 -> 314        0.69144
     312 <- 314       -0.10668
 This state for optimization and/or second-order correction.
 Total Energy, E(TD-HF/TD-DFT) =  -4067.30384948
 Copying the excited state density for this state as the 1-particle RhoCI density.

 Excited State   2:      Singlet-A      1.9536 eV  634.65 nm  f=0.0000  <S**2>=0.000
     312 -> 313        0.70711

 Excited State   3:      Singlet-A      2.0804 eV  595.96 nm  f=0.0000  <S**2>=0.000
     311 -> 314        0.70711

 Excited State   4:      Singlet-A      2.1728 eV  570.63 nm  f=0.1317  <S**2>=0.000
     310 -> 314        0.65739
     312 -> 316       -0.25558

 Excited State   5:      Singlet-A      2.4769 eV  500.57 nm  f=0.0000  <S**2>=0.000
     310 -> 313        0.70711

 The electronic state is 1-A.
 Alpha  occ. eigenvalues --  -46.93041 -46.91971 -19.26297 -19.25670 -19.20745
 Alpha  occ. eigenvalues --  -19.19962 -19.19061 -19.19040 -19.18954 -19.18713
 Alpha  occ. eigenvalues --  -14.42224 -14.41958 -14.41792 -14.41595 -14.40311
 Alpha  occ. eigenvalues --  -14.39733 -14.39016 -14.38899 -10.36574 -10.35846
 Alpha  occ. eigenvalues --  -10.32433 -10.32117 -10.31808 -10.31487 -10.29894
 Alpha  occ. eigenvalues --  -10.29452 -10.29149 -10.29094 -10.29087 -10.29067
 Alpha  occ. eigenvalues --  -10.29045 -10.28929 -10.28695 -10.28610 -10.28537
 Alpha  occ. eigenvalues --  -10.28495 -10.28486 -10.28453 -10.28091 -10.27944
 Alpha  occ. eigenvalues --  -10.27301 -10.26901 -10.26876 -10.26850 -10.26801
 Alpha  occ. eigenvalues --  -10.26450 -10.26427 -10.26401 -10.26331 -10.26153
 Alpha  occ. eigenvalues --  -10.26090 -10.26071 -10.25982 -10.25920 -10.25909
 Alpha  occ. eigenvalues --  -10.25800 -10.25753 -10.25679 -10.25615 -10.25476
 Alpha  occ. eigenvalues --  -10.25472 -10.25467 -10.25258 -10.25241 -10.25183
 Alpha  occ. eigenvalues --  -10.25007 -10.24972 -10.24941 -10.24681 -10.24555
 Alpha  occ. eigenvalues --  -10.24237 -10.24002 -10.23991 -10.23967 -10.23928
 Alpha  occ. eigenvalues --  -10.23916 -10.23744 -10.23718 -10.23685 -10.23437
 Alpha  occ. eigenvalues --  -10.23251 -10.23221 -10.23121 -10.23090 -10.22998
 Alpha  occ. eigenvalues --  -10.21933  -3.15046  -3.14190  -1.87892  -1.87424
 Alpha  occ. eigenvalues --   -1.87254  -1.87029  -1.86564  -1.86435  -1.11729
 Alpha  occ. eigenvalues --   -1.11423  -1.05280  -1.04670  -1.04568  -1.03722
 Alpha  occ. eigenvalues --   -1.03512  -1.01897  -0.99295  -0.98662  -0.98440
 Alpha  occ. eigenvalues --   -0.98296  -0.97857  -0.97457  -0.97256  -0.96633
 Alpha  occ. eigenvalues --   -0.87760  -0.85949  -0.83658  -0.83483  -0.83113
 Alpha  occ. eigenvalues --   -0.82902  -0.82772  -0.82453  -0.82335  -0.81718
 Alpha  occ. eigenvalues --   -0.81244  -0.80876  -0.80196  -0.80086  -0.79421
 Alpha  occ. eigenvalues --   -0.78356  -0.78247  -0.77487  -0.77336  -0.76771
 Alpha  occ. eigenvalues --   -0.76081  -0.75685  -0.75497  -0.75233  -0.75009
 Alpha  occ. eigenvalues --   -0.73978  -0.73265  -0.72098  -0.71710  -0.71479
 Alpha  occ. eigenvalues --   -0.71274  -0.71116  -0.70547  -0.70330  -0.69837
 Alpha  occ. eigenvalues --   -0.69593  -0.67788  -0.67044  -0.66490  -0.65856
 Alpha  occ. eigenvalues --   -0.63781  -0.63494  -0.63425  -0.63164  -0.62311
 Alpha  occ. eigenvalues --   -0.61970  -0.61524  -0.61059  -0.60502  -0.60382
 Alpha  occ. eigenvalues --   -0.60120  -0.60024  -0.59430  -0.59121  -0.58998
 Alpha  occ. eigenvalues --   -0.58567  -0.57315  -0.56956  -0.55290  -0.54710
 Alpha  occ. eigenvalues --   -0.54553  -0.53873  -0.53868  -0.53341  -0.53325
 Alpha  occ. eigenvalues --   -0.53116  -0.52960  -0.52479  -0.52247  -0.51739
 Alpha  occ. eigenvalues --   -0.51110  -0.50698  -0.50414  -0.49941  -0.49881
 Alpha  occ. eigenvalues --   -0.49488  -0.49483  -0.49072  -0.48969  -0.48609
 Alpha  occ. eigenvalues --   -0.48400  -0.48156  -0.47968  -0.47830  -0.47531
 Alpha  occ. eigenvalues --   -0.47336  -0.47282  -0.46904  -0.46664  -0.46569
 Alpha  occ. eigenvalues --   -0.46318  -0.46282  -0.46136  -0.46053  -0.46003
 Alpha  occ. eigenvalues --   -0.45468  -0.45463  -0.45330  -0.45091  -0.44979
 Alpha  occ. eigenvalues --   -0.44879  -0.44709  -0.44542  -0.44526  -0.44365
 Alpha  occ. eigenvalues --   -0.43969  -0.43907  -0.43765  -0.43729  -0.43362
 Alpha  occ. eigenvalues --   -0.43280  -0.42958  -0.42879  -0.42803  -0.42776
 Alpha  occ. eigenvalues --   -0.42644  -0.42275  -0.42248  -0.42073  -0.42033
 Alpha  occ. eigenvalues --   -0.41924  -0.41770  -0.41704  -0.41583  -0.41218
 Alpha  occ. eigenvalues --   -0.41133  -0.41110  -0.40933  -0.40876  -0.40729
 Alpha  occ. eigenvalues --   -0.40572  -0.40335  -0.40133  -0.39867  -0.39746
 Alpha  occ. eigenvalues --   -0.39650  -0.39520  -0.39372  -0.39249  -0.39046
 Alpha  occ. eigenvalues --   -0.38903  -0.38752  -0.38655  -0.38464  -0.38397
 Alpha  occ. eigenvalues --   -0.38198  -0.38109  -0.38028  -0.37802  -0.37697
 Alpha  occ. eigenvalues --   -0.37640  -0.37456  -0.37263  -0.37169  -0.37100
 Alpha  occ. eigenvalues --   -0.36834  -0.36773  -0.36686  -0.36402  -0.36399
 Alpha  occ. eigenvalues --   -0.36153  -0.35686  -0.35600  -0.35474  -0.35370
 Alpha  occ. eigenvalues --   -0.35230  -0.35141  -0.34752  -0.34660  -0.34469
 Alpha  occ. eigenvalues --   -0.33741  -0.33571  -0.33251  -0.33050  -0.32690
 Alpha  occ. eigenvalues --   -0.32515  -0.32254  -0.31962  -0.31518  -0.31455
 Alpha  occ. eigenvalues --   -0.31143  -0.30646  -0.30154  -0.29757  -0.29574
 Alpha  occ. eigenvalues --   -0.29368  -0.29259  -0.28588  -0.27401  -0.27140
 Alpha  occ. eigenvalues --   -0.26032  -0.26001  -0.25809  -0.25697  -0.25607
 Alpha  occ. eigenvalues --   -0.25570  -0.25129  -0.25016  -0.21562  -0.20849
 Alpha  occ. eigenvalues --   -0.19279  -0.18926
 Alpha virt. eigenvalues --   -0.11515  -0.11403  -0.05485  -0.05321  -0.04075
 Alpha virt. eigenvalues --   -0.03324  -0.02380  -0.01728  -0.00742  -0.00008
 Alpha virt. eigenvalues --    0.00286   0.00667   0.00695   0.01006   0.01284

 Mulliken charges:
               1
     1  Mg  11.999996
     2  C    6.000016
     3  C    5.999888
     4  C    5.999923
     5  C    6.000141
     6  N    6.999958
     7  C    5.999930
     8  C    6.000028
     9  C    5.999961
    10  C    6.000164
    11  C    5.999987
    12  C    6.000001
    13  C    6.000010
    14  H    0.999980
    15  N    6.999994
    16  C    6.000255
    17  C    6.000051
    18  C    6.000112
    19  C    6.000131
    20  C    5.999970
    21  C    6.000048
    22  O    8.000116
    23  C    5.999976
    24  N    7.000040
    25  C    6.000089
    26  C    5.999978
    27  C    6.000047
    28  C    5.999823
    29  C    5.999984
    30  C    6.000014
    31  C    6.000010
    32  N    6.999968
    33  C    5.999782
    34  C    5.999882
    35  C    5.999971
    36  C    5.999900
    37  C    6.000027
    38  C    5.999925
    39  O    7.999848
    40  C    6.000011
    41  C    5.999981
    42  O    7.999984
    43  O    7.999986
    44  C    6.000014
    45  H    1.000072
    46  H    1.000046
    47  H    0.999943
    48  H    1.000002
    49  H    1.000012
    50  H    1.000029
    51  H    1.000065
    52  H    0.999985
    53  H    0.999963
    54  H    1.000034
    55  H    0.999999
    56  H    0.999979
    57  H    1.000082
    58  H    1.000095
    59  H    1.000096
    60  H    1.000043
    61  H    1.000075
    62  H    1.000048
    63  H    0.999998
    64  H    0.999990
    65  H    1.000002
    66  H    0.999999
    67  H    1.000041
    68  H    1.000000
    69  H    0.999951
    70  H    0.999975
    71  H    1.000005
    72  H    1.000004
    73  H    0.999897
    74  H    0.999911
    75  H    0.999896
    76  H    0.999945
    77  H    0.999967
    78  H    0.999982
    79  H    0.999972
    80  Mg  12.003936
    81  C    5.975294
    82  C    5.997432
    83  C    6.028921
    84  C    5.997321
    85  N    6.982499
    86  C    6.032598
    87  C    5.990361
    88  C    6.011019
    89  C    5.972889
    90  C    6.002413
    91  C    5.998843
    92  C    5.997863
    93  H    1.006387
    94  N    7.002633
    95  C    5.969732
    96  C    5.975545
    97  C    5.987376
    98  C    5.974053
    99  C    6.003182
   100  C    5.988434
   101  O    7.968595
   102  C    6.003855
   103  N    7.008887
   104  C    5.964105
   105  C    6.008483
   106  C    5.989498
   107  C    6.028943
   108  C    6.000598
   109  C    5.995478
   110  C    5.999234
   111  N    6.998366
   112  C    6.036662
   113  C    6.030212
   114  C    6.002366
   115  C    6.028194
   116  C    6.001434
   117  C    6.011909
   118  O    8.029102
   119  C    6.003400
   120  C    6.006950
   121  O    8.000083
   122  O    8.001689
   123  C    5.998366
   124  H    0.986912
   125  H    0.998429
   126  H    1.012297
   127  H    0.997403
   128  H    0.999243
   129  H    1.000588
   130  H    0.996614
   131  H    0.987154
   132  H    1.007971
   133  H    0.995407
   134  H    0.997068
   135  H    0.998159
   136  H    0.985410
   137  H    0.981903
   138  H    0.985323
   139  H    0.992698
   140  H    0.986344
   141  H    0.994989
   142  H    1.001809
   143  H    1.003276
   144  H    1.002670
   145  H    1.005481
   146  H    0.991350
   147  H    0.999155
   148  H    1.011583
   149  H    1.003725
   150  H    0.997477
   151  H    1.006024
   152  H    1.013880
   153  H    1.015001
   154  H    1.015858
   155  H    1.004529
   156  H    1.004320
   157  H    1.004751
   158  H    1.000060
 Sum of Mulliken charges = 624.00000

 Dipole moment (field-independent basis, Debye):
    X=              1.0832    Y=             -9.5182    Z=              3.0880  Tot=             10.0650
 Quadrupole moment (field-independent basis, Debye-Ang):
   XX=            -59.9744   YY=            -11.1378   ZZ=              4.9741
   XY=            274.3664   XZ=            -88.7347   YZ=             -1.5284

 Normal termination of Gaussian 16 at Fri Oct 15 16:50:16 2021.
