 Gaussian 16, Revision A.03,
 Gaussian 16:  ES64L-G16RevA.03 25-Dec-2016

 --------------------------------------------------------
 #p PBE1PBE/Def2SVP td=(nstates=5) density=(transition=1)
 --------------------------------------------------------

 --------------------------------
 TDDFT excited states in gaussian
 --------------------------------
 Symbolic Z-matrix:
 Charge =  0 Multiplicity = 1

                         Standard orientation:
 ---------------------------------------------------------------------
 Center     Atomic      Atomic             Coordinates (Angstroms)
 Number     Number       Type             X           Y           Z
 ---------------------------------------------------------------------
      1         12           0       16.292110   -0.580245    0.351770
      2          6           0       15.593251    2.576062   -1.085335
      3          6           0       17.834726    1.031180    2.985269
      4          6           0       17.203531   -3.613327    1.556490
      5          6           0       14.904882   -2.173181   -2.446008
      6          7           0       16.708199    1.558780    0.743506
      7          6           0       16.147382    2.686533    0.148782
      8          6           0       16.513433    4.003951    0.947424
      9          6           0       17.447381    3.453002    2.057699
     10          6           0       17.389693    1.915487    1.915848
     11          6           0       18.940251    3.952595    2.087351
     12          6           0       15.304878    4.928328    1.386313
     13          6           0       15.338716    6.324571    0.842506
     14          1           0       14.820816    7.459694    1.811923
     15          7           0       17.355977   -1.138808    2.002584
     16          6           0       17.862647   -0.359070    3.022408
     17          6           0       18.537942   -1.208561    3.990933
     18          6           0       18.381825   -2.574914    3.622824
     19          6           0       17.590453   -2.501233    2.339853
     20          6           0       19.163265   -0.693295    5.302855
     21          6           0       18.839222   -3.843789    4.335035
     22          8           0       18.566400   -4.965417    3.959678
     23          6           0       19.632028   -3.859273    5.705875
     24          7           0       16.160853   -2.623858   -0.409772
     25          6           0       16.602631   -3.672884    0.271593
     26          6           0       16.311514   -5.024412   -0.473212
     27          6           0       15.394223   -4.559322   -1.672587
     28          6           0       15.454497   -3.010864   -1.505466
     29          6           0       17.619261   -5.795515   -0.814746
     30          6           0       14.014118   -5.183559   -1.612830
     31          6           0       13.481189   -5.648632   -2.966869
     32          7           0       15.529008   -0.026176   -1.505648
     33          6           0       14.913528   -0.760750   -2.501006
     34          6           0       14.565766    0.149397   -3.548480
     35          6           0       14.757880    1.463205   -3.053781
     36          6           0       15.367349    1.330206   -1.775019
     37          6           0       14.009645   -0.216874   -4.872095
     38          6           0       14.533537    2.892031   -3.334534
     39          8           0       14.158685    3.496277   -4.335169
     40          6           0       15.087788    3.688893   -1.921214
     41          6           0       16.103348    4.633334   -2.268432
     42          8           0       17.288888    4.474411   -2.073476
     43          8           0       15.545198    5.803652   -2.730812
     44          6           0       16.564526    6.794436   -3.157449
     45          1           0       18.221504    1.496844    3.894331
     46          1           0       17.513076   -4.611350    1.871998
     47          1           0       14.414433   -2.748027   -3.235164
     48          1           0       17.212211    4.523620    0.292753
     49          1           0       17.048120    3.683946    3.045345
     50          1           0       19.195743    4.103680    3.136623
     51          1           0       19.006232    4.874522    1.510119
     52          1           0       19.658307    3.249490    1.664820
     53          1           0       15.301891    4.913895    2.476302
     54          1           0       14.398908    4.464266    0.996113
     55          1           0       14.714680    6.386179   -0.050025
     56          1           0       16.385948    6.466331    0.576964
     57          1           0       18.538465   -1.107995    6.093102
     58          1           0       19.004146    0.383083    5.371816
     59          1           0       20.194073   -0.996573    5.490211
     60          1           0       19.038157   -3.316132    6.441797
     61          1           0       20.688876   -3.619052    5.586107
     62          1           0       19.768078   -4.917687    5.925999
     63          1           0       15.698521   -5.715745    0.104713
     64          1           0       15.944997   -4.808185   -2.579893
     65          1           0       17.593165   -6.061713   -1.871802
     66          1           0       17.798544   -6.652785   -0.165372
     67          1           0       18.477931   -5.144403   -0.659316
     68          1           0       13.280078   -4.516227   -1.162408
     69          1           0       13.937803   -6.037594   -0.938060
     70          1           0       14.109241   -5.296068   -3.785072
     71          1           0       12.496617   -5.193493   -3.078024
     72          1           0       13.297508   -6.722761   -2.996134
     73          1           0       13.867328   -1.277246   -5.080331
     74          1           0       14.548069    0.387943   -5.602746
     75          1           0       12.956635    0.045954   -4.768348
     76          1           0       14.248657    4.206217   -1.455224
     77          1           0       17.175540    6.375207   -3.957136
     78          1           0       17.107196    7.074245   -2.254537
     79          1           0       16.127313    7.697355   -3.581904
     80         12           0      -15.945417   -0.749946    0.102445
     81          6           0      -17.916324    1.881911    1.241769
     82          6           0      -13.570712    1.430231   -0.876856
     83          6           0      -14.323593   -3.323415   -1.371468
     84          6           0      -18.614636   -2.854480    0.682099
     85          7           0      -15.804048    1.460438    0.177111
     86          6           0      -16.636422    2.297255    0.875999
     87          6           0      -16.095890    3.676571    0.881056
     88          6           0      -14.737811    3.614474    0.172443
     89          6           0      -14.629974    2.076268   -0.212569
     90          6           0      -14.465245    4.565871   -0.982313
     91          6           0      -16.030526    4.286463    2.394284
     92          6           0      -16.878152    5.543655    2.699666
     93          1           0      -16.336443    6.649042    3.572346
     94          7           0      -14.142160   -0.947123   -0.864830
     95          6           0      -13.284153    0.089439   -1.200396
     96          6           0      -12.179230   -0.423936   -1.925263
     97          6           0      -12.372999   -1.822031   -2.091954
     98          6           0      -13.644764   -2.089012   -1.412275
     99          6           0      -10.986784    0.553590   -2.264314
    100          6           0      -11.458113   -2.750406   -2.888806
    101          8           0      -11.665952   -3.954643   -3.101007
    102          6           0      -10.180557   -2.245188   -3.398837
    103          7           0      -16.454717   -2.772442   -0.537774
    104          6           0      -15.603230   -3.659104   -1.010264
    105          6           0      -16.305761   -5.006545   -1.291294
    106          6           0      -17.427470   -4.890312   -0.185361
    107          6           0      -17.505963   -3.383534    0.038946
    108          6           0      -16.944765   -5.301905   -2.698669
    109          6           0      -17.181777   -5.683079    1.186711
    110          6           0      -15.983777   -5.349880    1.977814
    111          7           0      -17.975259   -0.606706    0.791456
    112          6           0      -18.967901   -1.585592    0.993546
    113          6           0      -20.147430   -0.964239    1.505801
    114          6           0      -19.833129    0.378931    1.563598
    115          6           0      -18.450994    0.530201    1.215136
    116          6           0      -21.456687   -1.574366    1.633399
    117          6           0      -20.273839    1.599731    2.052310
    118          8           0      -21.349164    1.945211    2.552668
    119          6           0      -19.121038    2.673650    1.794017
    120          6           0      -19.647773    3.570115    0.722589
    121          8           0      -20.014265    3.345519   -0.411863
    122          8           0      -19.685958    4.783138    1.276830
    123          6           0      -20.157219    5.896784    0.389926
    124          1           0      -12.793778    2.195011   -0.939214
    125          1           0      -13.695857   -4.145641   -1.719238
    126          1           0      -19.426799   -3.543750    0.921540
    127          1           0      -16.808941    4.255048    0.294981
    128          1           0      -13.949770    3.782411    0.906201
    129          1           0      -14.758014    3.876602   -1.773456
    130          1           0      -13.452426    4.965226   -1.038271
    131          1           0      -15.070991    5.464314   -1.097348
    132          1           0      -14.988634    4.482602    2.645714
    133          1           0      -16.431514    3.615115    3.154043
    134          1           0      -17.739909    5.191419    3.267329
    135          1           0      -17.312239    5.973530    1.797940
    136          1           0      -10.781685    0.487694   -3.332646
    137          1           0      -10.216273    0.008400   -1.719035
    138          1           0      -11.128223    1.621599   -2.098325
    139          1           0      -10.331253   -1.383935   -4.048232
    140          1           0       -9.852526   -2.977313   -4.136352
    141          1           0       -9.403492   -2.100307   -2.647877
    142          1           0      -15.672502   -5.806016   -0.906418
    143          1           0      -18.302049   -5.329328   -0.664849
    144          1           0      -17.460481   -4.465737   -3.169324
    145          1           0      -17.615903   -6.132415   -2.476806
    146          1           0      -16.182465   -5.625413   -3.407924
    147          1           0      -17.096012   -6.761599    1.052027
    148          1           0      -17.914877   -5.399413    1.941771
    149          1           0      -16.287994   -4.454318    2.517775
    150          1           0      -15.055618   -5.101567    1.462168
    151          1           0      -15.656496   -6.050289    2.745496
    152          1           0      -21.870936   -1.500274    0.627203
    153          1           0      -22.135163   -1.087528    2.333347
    154          1           0      -21.425539   -2.588983    2.032001
    155          1           0      -18.797877    3.188117    2.699061
    156          1           0      -19.249228    6.450169    0.149263
    157          1           0      -20.904166    6.492452    0.914176
    158          1           0      -20.588690    5.622756   -0.573213
 ---------------------------------------------------------------------

 SCF Done:  E(RPBE1PBE) =  -4067.35299583     A.U. after   17 cycles

 Excitation energies and oscillator strengths:

 Excited State   1:      Singlet-A      1.8586 eV  667.07 nm  f=0.3537  <S**2>=0.000
     310 -> 316        0.16342
     311 -> 313        0.69085
     311 <- 313       -0.10736
 This state for optimization and/or second-order correction.
 Total Energy, E(TD-HF/TD-DFT) =  -4067.28469219
 Copying the excited state density for this state as the 1-particle RhoCI density.

 Excited State   2:      Singlet-A      1.8745 eV  661.43 nm  f=0.3577  <S**2>=0.000
     309 -> 315        0.17439
     312 -> 314        0.68890

 Excited State   3:      Singlet-A      1.9233 eV  644.66 nm  f=0.0000  <S**2>=0.000
     312 -> 313        0.70710

 Excited State   4:      Singlet-A      2.0560 eV  603.04 nm  f=0.0000  <S**2>=0.000
     311 -> 314        0.70710

 Excited State   5:      Singlet-A      2.1770 eV  569.51 nm  f=0.1415  <S**2>=0.000
     310 -> 313        0.66023
     311 -> 316       -0.23475

 The electronic state is 1-A.
 Alpha  occ. eigenvalues --  -46.92741 -46.91706 -19.25692 -19.25062 -19.20024
 Alpha  occ. eigenvalues --  -19.19798 -19.19555 -19.19311 -19.18911 -19.18479
 Alpha  occ. eigenvalues --  -14.41849 -14.41645 -14.41281 -14.41229 -14.39925
 Alpha  occ. eigenvalues --  -14.39391 -14.38704 -14.38621 -10.35613 -10.35384
 Alpha  occ. eigenvalues --  -10.33507 -10.33288 -10.32218 -10.31286 -10.30001
 Alpha  occ. eigenvalues --  -10.29363 -10.29219 -10.28938 -10.28919 -10.28756
 Alpha  occ. eigenvalues --  -10.28575 -10.28376 -10.28370 -10.28235 -10.28020
 Alpha  occ. eigenvalues --  -10.27888 -10.27842 -10.27522 -10.27410 -10.26829
 Alpha  occ. eigenvalues --  -10.26805 -10.26786 -10.26633 -10.26442 -10.26378
 Alpha  occ. eigenvalues --  -10.26359 -10.26249 -10.26202 -10.25819 -10.25815
 Alpha  occ. eigenvalues --  -10.25781 -10.25726 -10.25685 -10.25635 -10.25547
 Alpha  occ. eigenvalues --  -10.25508 -10.25416 -10.25389 -10.25351 -10.25324
 Alpha  occ. eigenvalues --  -10.25271 -10.25166 -10.25140 -10.25139 -10.25116
 Alpha  occ. eigenvalues --  -10.25024 -10.24917 -10.24436 -10.24149 -10.24070
 Alpha  occ. eigenvalues --  -10.24022 -10.23988 -10.23974 -10.23794 -10.23751
 Alpha  occ. eigenvalues --  -10.23715 -10.23677 -10.23411 -10.23383 -10.23267
 Alpha  occ. eigenvalues --  -10.23149 -10.22946 -10.22889 -10.22832 -10.22348
 Alpha  occ. eigenvalues --  -10.22133  -3.14734  -3.13815  -1.87577  -1.87086
 Alpha  occ. eigenvalues --   -1.86973  -1.86664  -1.86183  -1.86046  -1.11786
 Alpha  occ. eigenvalues --   -1.10712  -1.05982  -1.04386  -1.03862  -1.03305
 Alpha  occ. eigenvalues --   -1.02351  -1.02178  -1.00042  -0.98936  -0.98744
 Alpha  occ. eigenvalues --   -0.98066  -0.97324  -0.97047  -0.96686  -0.95692
 Alpha  occ. eigenvalues --   -0.86566  -0.86419  -0.83528  -0.83492  -0.83048
 Alpha  occ. eigenvalues --   -0.82713  -0.82703  -0.82276  -0.82255  -0.81952
 Alpha  occ. eigenvalues --   -0.81298  -0.81233  -0.81167  -0.80299  -0.78952
 Alpha  occ. eigenvalues --   -0.78658  -0.78550  -0.78025  -0.77375  -0.76839
 Alpha  occ. eigenvalues --   -0.76252  -0.75845  -0.75389  -0.75092  -0.75052
 Alpha  occ. eigenvalues --   -0.74209  -0.73090  -0.72529  -0.71983  -0.71719
 Alpha  occ. eigenvalues --   -0.71346  -0.70850  -0.70306  -0.70147  -0.69705
 Alpha  occ. eigenvalues --   -0.69125  -0.67931  -0.66844  -0.66151  -0.65788
 Alpha  occ. eigenvalues --   -0.63787  -0.63486  -0.63368  -0.63295  -0.62175
 Alpha  occ. eigenvalues --   -0.62031  -0.61584  -0.61573  -0.60281  -0.60099
 Alpha  occ. eigenvalues --   -0.59922  -0.59390  -0.59338  -0.59100  -0.59009
 Alpha  occ. eigenvalues --   -0.58498  -0.56629  -0.55840  -0.55019  -0.54498
 Alpha  occ. eigenvalues --   -0.54452  -0.53891  -0.53851  -0.53347  -0.53267
 Alpha  occ. eigenvalues --   -0.52833  -0.52656  -0.52445  -0.52385  -0.51833
 Alpha  occ. eigenvalues --   -0.51047  -0.50539  -0.50325  -0.50262  -0.50107
 Alpha  occ. eigenvalues --   -0.49629  -0.49423  -0.49359  -0.49203  -0.48920
 Alpha  occ. eigenvalues --   -0.48354  -0.47914  -0.47826  -0.47783  -0.47685
 Alpha  occ. eigenvalues --   -0.47456  -0.47291  -0.47263  -0.47206  -0.46819
 Alpha  occ. eigenvalues --   -0.46742  -0.46498  -0.46346  -0.46094  -0.45860
 Alpha  occ. eigenvalues --   -0.45694  -0.45684  -0.45414  -0.45261  -0.44995
 Alpha  occ. eigenvalues --   -0.44901  -0.44427  -0.44328  -0.44292  -0.44155
 Alpha  occ. eigenvalues --   -0.44131  -0.44029  -0.43840  -0.43605  -0.43302
 Alpha  occ. eigenvalues --   -0.43163  -0.42986  -0.42958  -0.42777  -0.42730
 Alpha  occ. eigenvalues --   -0.42723  -0.42441  -0.41987  -0.41986  -0.41781
 Alpha  occ. eigenvalues --   -0.41540  -0.41503  -0.41407  -0.41205  -0.40988
 Alpha  occ. eigenvalues --   -0.40952  -0.40888  -0.40762  -0.40535  -0.40329
 Alpha  occ. eigenvalues --   -0.40085  -0.39988  -0.39711  -0.39423  -0.39417
 Alpha  occ. eigenvalues --   -0.39232  -0.39146  -0.39016  -0.38940  -0.38861
 Alpha  occ. eigenvalues --   -0.38731  -0.38545  -0.38510  -0.38216  -0.38188
 Alpha  occ. eigenvalues --   -0.38053  -0.37990  -0.37768  -0.37580  -0.37439
 Alpha  occ. eigenvalues --   -0.37306  -0.37245  -0.37034  -0.36958  -0.36950
 Alpha  occ. eigenvalues --   -0.36724  -0.36440  -0.36374  -0.36125  -0.35959
 Alpha  occ. eigenvalues --   -0.35803  -0.35590  -0.35482  -0.35237  -0.35106
 Alpha  occ. eigenvalues --   -0.34960  -0.34645  -0.34407  -0.34385  -0.33888
 Alpha  occ. eigenvalues --   -0.33686  -0.33067  -0.33054  -0.32696  -0.32690
 Alpha  occ. eigenvalues --   -0.32288  -0.32048  -0.31978  -0.31380  -0.31291
 Alpha  occ. eigenvalues --   -0.31184  -0.31040  -0.29689  -0.29355  -0.29207
 Alpha  occ. eigenvalues --   -0.29023  -0.28991  -0.28755  -0.27175  -0.27117
 Alpha  occ. eigenvalues --   -0.26238  -0.26182  -0.25963  -0.25803  -0.25736
 Alpha  occ. eigenvalues --   -0.25627  -0.25246  -0.24717  -0.20980  -0.20978
 Alpha  occ. eigenvalues --   -0.19085  -0.18922
 Alpha virt. eigenvalues --   -0.11446  -0.11128  -0.05368  -0.05172  -0.04168
 Alpha virt. eigenvalues --   -0.03926  -0.02394  -0.02135  -0.00612   0.00077
 Alpha virt. eigenvalues --    0.00185   0.01025   0.01078   0.01433   0.01918

 Mulliken charges:
               1
     1  Mg  12.000399
     2  C    5.998813
     3  C    6.000450
     4  C    6.001174
     5  C    5.999393
     6  N    6.999142
     7  C    6.001831
     8  C    5.999257
     9  C    6.000565
    10  C    5.997820
    11  C    6.000337
    12  C    5.999880
    13  C    5.999852
    14  H    1.000386
    15  N    7.000522
    16  C    5.997755
    17  C    5.998589
    18  C    5.998728
    19  C    5.998072
    20  C    6.000085
    21  C    5.999371
    22  O    7.998179
    23  C    6.000221
    24  N    7.000029
    25  C    5.998088
    26  C    6.000597
    27  C    5.999307
    28  C    6.001959
    29  C    6.000143
    30  C    5.999687
    31  C    5.999932
    32  N    6.999825
    33  C    6.002392
    34  C    6.001942
    35  C    6.000119
    36  C    6.002154
    37  C    5.999878
    38  C    6.001101
    39  O    8.001848
    40  C    6.000633
    41  C    6.000019
    42  O    8.000629
    43  O    8.000070
    44  C    5.999899
    45  H    0.999153
    46  H    0.999610
    47  H    1.000803
    48  H    1.000178
    49  H    0.999888
    50  H    0.999917
    51  H    0.998971
    52  H    0.999872
    53  H    1.000551
    54  H    0.999803
    55  H    0.999742
    56  H    1.000042
    57  H    0.998846
    58  H    0.998905
    59  H    0.998719
    60  H    0.999596
    61  H    0.999256
    62  H    0.999056
    63  H    1.000002
    64  H    1.000093
    65  H    0.999327
    66  H    1.000069
    67  H    1.000143
    68  H    1.000182
    69  H    1.000701
    70  H    0.999750
    71  H    1.000101
    72  H    1.000358
    73  H    1.001339
    74  H    1.001110
    75  H    1.001604
    76  H    1.000576
    77  H    1.000024
    78  H    1.000351
    79  H    1.000288
    80  Mg  11.996969
    81  C    5.970134
    82  C    5.997242
    83  C    6.029844
    84  C    6.016922
    85  N    6.979466
    86  C    6.031916
    87  C    5.989636
    88  C    6.004435
    89  C    5.977918
    90  C    6.002321
    91  C    5.998409
    92  C    5.999865
    93  H    1.002784
    94  N    7.006069
    95  C    5.967555
    96  C    5.981509
    97  C    5.987097
    98  C    5.966189
    99  C    5.999422
   100  C    5.988251
   101  O    7.971944
   102  C    6.007758
   103  N    7.022833
   104  C    5.962618
   105  C    6.008881
   106  C    5.991046
   107  C    6.019002
   108  C    5.998887
   109  C    5.991180
   110  C    6.000902
   111  N    6.995960
   112  C    6.025755
   113  C    6.029145
   114  C    6.004767
   115  C    6.027712
   116  C    5.997138
   117  C    6.011929
   118  O    8.033055
   119  C    6.001551
   120  C    6.003890
   121  O    8.002330
   122  O    8.001089
   123  C    5.998304
   124  H    0.985544
   125  H    0.999465
   126  H    1.014906
   127  H    0.998510
   128  H    0.996925
   129  H    1.000589
   130  H    0.998308
   131  H    0.987087
   132  H    1.006288
   133  H    0.995105
   134  H    0.994335
   135  H    1.000014
   136  H    0.983897
   137  H    0.986015
   138  H    0.986628
   139  H    0.995234
   140  H    0.987123
   141  H    0.991731
   142  H    1.002225
   143  H    1.005026
   144  H    0.996643
   145  H    0.994037
   146  H    1.006294
   147  H    1.010238
   148  H    0.996893
   149  H    0.993998
   150  H    1.015163
   151  H    1.004662
   152  H    1.019119
   153  H    1.014953
   154  H    1.014989
   155  H    1.006834
   156  H    1.006370
   157  H    1.001409
   158  H    1.001813
 Sum of Mulliken charges = 624.00000

 Dipole moment (field-independent basis, Debye):
    X=             -9.3982    Y=             -0.7080    Z=              3.3955  Tot=             10.0179
 Quadrupole moment (field-independent basis, Debye-Ang):
   XX=            280.3189   YY=              2.7857   ZZ=             -2.4123
   XY=             23.4845   XZ=            -72.5319   YZ=             -2.9339

 Normal termination of Gaussian 16 at Fri Oct 15 12:29:33 2021.
