 Gaussian 16, Revision A.03,
 Gaussian 16:  ES64L-G16RevA.03 25-Dec-2016

 --------------------------------------------------------
 #p PBE1PBE/Def2SVP td=(nstates=5) density=(transition=1)
 --------------------------------------------------------

 --------------------------------
 TDDFT excited states in gaussian
 --------------------------------
 Symbolic Z-matrix:
 Charge =  0 Multiplicity = 1

                         Standard orientation:
 ---------------------------------------------------------------------
 Center     Atomic      Atomic             Coordinates (Angstroms)
 Number     Number       Type             X           Y           Z
 ---------------------------------------------------------------------
      1         12           0        0.776821    0.078024   -0.101362
      2          6           0       -2.784933    0.277494    0.192460
      3          6           0        0.503864   -3.239526    0.648586
      4          6           0        3.940377   -0.027125    0.092235
      5          6           0        0.855727    3.539396    0.296550
      6          7           0       -0.973444   -1.202864    0.341971
      7          6           0       -2.289567   -1.017075    0.363774
      8          6           0       -3.098021   -2.340783    0.510648
      9          6           0       -1.980153   -3.243069    1.202203
     10          6           0       -0.741046   -2.543340    0.672187
     11          6           0       -1.981161   -3.153857    2.724879
     12          6           0       -3.532959   -2.928542   -0.873946
     13          6           0       -4.594455   -4.030670   -0.811557
     14          1           0       -5.592615   -4.102185   -1.867924
     15          7           0        2.014285   -1.460341   -0.171825
     16          6           0        1.729530   -2.744289    0.153257
     17          6           0        2.977477   -3.506646   -0.066113
     18          6           0        4.061408   -2.529423   -0.363140
     19          6           0        3.378939   -1.282200   -0.130656
     20          6           0        3.044391   -5.002696   -0.032866
     21          6           0        5.489121   -2.693801   -0.778770
     22          8           0        6.319565   -1.721929   -0.758732
     23          6           0        5.917912   -4.059690   -1.130232
     24          7           0        2.218687    1.510122    0.375871
     25          6           0        3.523158    1.218433    0.328370
     26          6           0        4.363590    2.456704    0.429848
     27          6           0        3.353207    3.687587    0.312349
     28          6           0        2.024075    2.895951    0.241696
     29          6           0        5.193891    2.598711    1.712987
     30          6           0        3.646944    4.735690   -0.790202
     31          6           0        3.451842    4.113553   -2.154745
     32          7           0       -0.688282    1.675089    0.016531
     33          6           0       -0.433174    3.041005    0.205920
     34          6           0       -1.740560    3.711844    0.327512
     35          6           0       -2.671098    2.680549    0.216265
     36          6           0       -1.987709    1.440494    0.062862
     37          6           0       -1.946261    5.098116    0.573215
     38          6           0       -4.083264    2.334652    0.215992
     39          8           0       -5.133680    2.978172    0.216799
     40          6           0       -4.211250    0.750972    0.322778
     41          6           0       -5.198774    0.303435   -0.720206
     42          8           0       -4.937082    0.408565   -1.935867
     43          8           0       -6.184703   -0.389866   -0.130443
     44          6           0       -7.183355   -0.888313   -1.113500
     45          1           0        0.563127   -4.230501    1.102895
     46          1           0        5.031487   -0.003087    0.055641
     47          1           0        0.799948    4.628732    0.337643
     48          1           0       -3.972286   -2.269939    1.158000
     49          1           0       -2.013409   -4.273702    0.849483
     50          1           0       -2.667049   -2.384120    3.078410
     51          1           0       -0.956227   -2.907203    3.002664
     52          1           0       -2.186051   -4.127928    3.169832
     53          1           0       -2.704190   -3.493137   -1.301071
     54          1           0       -3.875518   -2.135313   -1.539353
     55          1           0       -5.071627   -4.069468    0.168091
     56          1           0       -4.092867   -4.993749   -0.906890
     57          1           0        2.130640   -5.435550    0.372400
     58          1           0        3.815469   -5.270961    0.689064
     59          1           0        3.290696   -5.424230   -1.007532
     60          1           0        5.759771   -4.717670   -0.275478
     61          1           0        6.943098   -3.970373   -1.487816
     62          1           0        5.278360   -4.435943   -1.929204
     63          1           0        5.084869    2.507623   -0.384762
     64          1           0        3.312731    4.272696    1.231415
     65          1           0        6.262791    2.714873    1.532251
     66          1           0        4.995494    1.730364    2.340604
     67          1           0        4.887432    3.413977    2.367846
     68          1           0        4.683750    5.065453   -0.733313
     69          1           0        3.013426    5.620211   -0.722909
     70          1           0        4.404274    3.615926   -2.333831
     71          1           0        3.268321    4.886031   -2.902280
     72          1           0        2.680533    3.343384   -2.134522
     73          1           0       -2.748849    5.410494   -0.094797
     74          1           0       -1.036669    5.671145    0.394656
     75          1           0       -2.226611    5.077134    1.626220
     76          1           0       -4.555251    0.531700    1.333078
     77          1           0       -8.158556   -0.519395   -0.795512
     78          1           0       -7.046079   -1.968065   -1.174303
     79          1           0       -7.122006   -0.468313   -2.118077
 ---------------------------------------------------------------------

 SCF Done:  E(RPBE1PBE) =  -2033.69312547     A.U. after   16 cycles

 Excitation energies and oscillator strengths:

 Excited State   1:      Singlet-A      1.8414 eV  673.30 nm  f=0.3760  <S**2>=0.000
     155 ->158        -0.16190
     156 ->157         0.69327
     156 <-157        -0.11107
 This state for optimization and/or second-order correction.
 Total Energy, E(TD-HF/TD-DFT) =  -2033.62545394
 Copying the excited state density for this state as the 1-particle RhoCI density.

 Excited State   2:      Singlet-A      2.1930 eV  565.37 nm  f=0.0934  <S**2>=0.000
     155 ->157         0.65176
     156 ->158         0.24137

 Excited State   3:      Singlet-A      2.8279 eV  438.43 nm  f=0.0007  <S**2>=0.000
     152 ->157         0.13203
     154 ->157         0.66424
     154 ->160         0.11849

 Excited State   4:      Singlet-A      2.9556 eV  419.49 nm  f=0.0009  <S**2>=0.000
     153 ->157         0.67620
     154 ->157         0.10463

 Excited State   5:      Singlet-A      3.0148 eV  411.25 nm  f=0.0029  <S**2>=0.000
     151 ->157         0.19161
     152 ->157         0.63226
     154 ->157        -0.11886
     156 ->158        -0.17487

 The electronic state is 1-A.
 Alpha  occ. eigenvalues --  -46.91183 -19.26916 -19.19296 -19.19003 -19.18407
 Alpha  occ. eigenvalues --  -14.41937 -14.40951 -14.39043 -14.38247 -10.36099
 Alpha  occ. eigenvalues --  -10.32485 -10.31564 -10.29138 -10.28898 -10.28628
 Alpha  occ. eigenvalues --  -10.28211 -10.28128 -10.27994 -10.27537 -10.27251
 Alpha  occ. eigenvalues --  -10.27029 -10.26560 -10.26054 -10.26010 -10.25892
 Alpha  occ. eigenvalues --  -10.25445 -10.25368 -10.25341 -10.25265 -10.25247
 Alpha  occ. eigenvalues --  -10.25203 -10.24844 -10.24768 -10.24274 -10.23787
 Alpha  occ. eigenvalues --  -10.23680 -10.23607 -10.23606 -10.23267 -10.22906
 Alpha  occ. eigenvalues --  -10.22586 -10.22394 -10.22084  -3.13500  -1.86323
 Alpha  occ. eigenvalues --   -1.85888  -1.85734  -1.11413  -1.03359  -1.01830
 Alpha  occ. eigenvalues --   -1.01442  -0.99164  -0.98360  -0.97891  -0.97081
 Alpha  occ. eigenvalues --   -0.86322  -0.83825  -0.83445  -0.82583  -0.82195
 Alpha  occ. eigenvalues --   -0.81966  -0.81430  -0.79225  -0.78217  -0.77149
 Alpha  occ. eigenvalues --   -0.76865  -0.75885  -0.74934  -0.73096  -0.71537
 Alpha  occ. eigenvalues --   -0.71222  -0.70233  -0.69218  -0.67233  -0.66080
 Alpha  occ. eigenvalues --   -0.64212  -0.63224  -0.62111  -0.61546  -0.59698
 Alpha  occ. eigenvalues --   -0.59411  -0.59088  -0.58759  -0.56866  -0.54937
 Alpha  occ. eigenvalues --   -0.54298  -0.53614  -0.53110  -0.52097  -0.51794
 Alpha  occ. eigenvalues --   -0.50864  -0.50365  -0.50046  -0.49826  -0.49071
 Alpha  occ. eigenvalues --   -0.48451  -0.47945  -0.47744  -0.47546  -0.47095
 Alpha  occ. eigenvalues --   -0.46970  -0.46409  -0.46177  -0.45850  -0.45075
 Alpha  occ. eigenvalues --   -0.44626  -0.44475  -0.44121  -0.43855  -0.43700
 Alpha  occ. eigenvalues --   -0.43212  -0.43108  -0.43003  -0.42328  -0.41942
 Alpha  occ. eigenvalues --   -0.41557  -0.41237  -0.41063  -0.40866  -0.40546
 Alpha  occ. eigenvalues --   -0.39933  -0.39295  -0.39215  -0.38892  -0.38830
 Alpha  occ. eigenvalues --   -0.38736  -0.38274  -0.38231  -0.37851  -0.37482
 Alpha  occ. eigenvalues --   -0.37438  -0.36851  -0.36556  -0.36361  -0.35955
 Alpha  occ. eigenvalues --   -0.35770  -0.35586  -0.35473  -0.35002  -0.34327
 Alpha  occ. eigenvalues --   -0.33409  -0.32717  -0.32374  -0.32247  -0.31698
 Alpha  occ. eigenvalues --   -0.31249  -0.29501  -0.28910  -0.28406  -0.26713
 Alpha  occ. eigenvalues --   -0.25995  -0.25107  -0.24945  -0.24821  -0.20969
 Alpha  occ. eigenvalues --   -0.18752
 Alpha virt. eigenvalues --   -0.11216  -0.05337  -0.04147  -0.02168   0.00361
 Alpha virt. eigenvalues --    0.00431   0.00459   0.02502   0.03444   0.03722
 Alpha virt. eigenvalues --    0.04765   0.05457   0.05972   0.06541   0.06947

 Mulliken charges:
               1
     1  Mg  11.999333
     2  C    6.014479
     3  C    5.988313
     4  C    5.987947
     5  C    6.014311
     6  N    7.007884
     7  C    5.968154
     8  C    6.008642
     9  C    5.991314
    10  C    6.027121
    11  C    5.999225
    12  C    6.003606
    13  C    6.000997
    14  H    1.000374
    15  N    6.997041
    16  C    6.036618
    17  C    6.028848
    18  C    6.014932
    19  C    6.020268
    20  C    5.994943
    21  C    6.014580
    22  O    8.030599
    23  C    5.995131
    24  N    6.998993
    25  C    6.026918
    26  C    5.988756
    27  C    6.011902
    28  C    5.968355
    29  C    6.000458
    30  C    6.003646
    31  C    6.000985
    32  N    7.003250
    33  C    5.956207
    34  C    5.977449
    35  C    5.993929
    36  C    5.971371
    37  C    6.003205
    38  C    5.984986
    39  O    7.969894
    40  C    5.998404
    41  C    5.996789
    42  O    7.995810
    43  O    7.997972
    44  C    6.001242
    45  H    1.007721
    46  H    1.005850
    47  H    0.991157
    48  H    1.000710
    49  H    0.999524
    50  H    1.015501
    51  H    0.995492
    52  H    1.003245
    53  H    0.986774
    54  H    1.005591
    55  H    0.999223
    56  H    0.993376
    57  H    1.019365
    58  H    1.019763
    59  H    1.020565
    60  H    1.005155
    61  H    1.014468
    62  H    1.007116
    63  H    0.998990
    64  H    0.995994
    65  H    0.999957
    66  H    0.994683
    67  H    1.009432
    68  H    0.991019
    69  H    1.002886
    70  H    0.988746
    71  H    0.998655
    72  H    1.002700
    73  H    0.984497
    74  H    0.983437
    75  H    0.981828
    76  H    0.992361
    77  H    0.997121
    78  H    0.994083
    79  H    0.997830
 Sum of Mulliken charges = 312.00000

 Dipole moment (field-independent basis, Debye):
    X=              7.0137    Y=             -7.6461    Z=             -0.1370  Tot=             10.3766
 Quadrupole moment (field-independent basis, Debye-Ang):
   XX=              7.3589   YY=             -0.7345   ZZ=              0.4333
   XY=             -7.8847   XZ=             -1.5816   YZ=             -0.6699

 Normal termination of Gaussian 16 at Wed Oct 13 19:17:30 2021.
