 Gaussian 16, Revision A.03,
 Gaussian 16:  ES64L-G16RevA.03 25-Dec-2016

 --------------------------------------------------------
 #p PBE1PBE/Def2SVP td=(nstates=5) density=(transition=1)
 --------------------------------------------------------

 --------------------------------
 TDDFT excited states in gaussian
 --------------------------------
 Symbolic Z-matrix:
 Charge =  0 Multiplicity = 1

                         Standard orientation:
 ---------------------------------------------------------------------
 Center     Atomic      Atomic             Coordinates (Angstroms)
 Number     Number       Type             X           Y           Z
 ---------------------------------------------------------------------
      1         12           0      -24.801343   -0.611815   -0.347128
      2          6           0      -25.561062    2.400573    1.210337
      3          6           0      -25.118914    0.880358   -3.350805
      4          6           0      -24.841549   -3.654744   -1.822966
      5          6           0      -25.306377   -2.251242    2.753029
      6          7           0      -25.195126    1.408477   -0.888204
      7          6           0      -25.331336    2.561620   -0.146426
      8          6           0      -25.552277    3.784986   -1.078119
      9          6           0      -25.936667    3.081649   -2.416303
     10          6           0      -25.279213    1.718438   -2.258969
     11          6           0      -27.479509    2.925091   -2.656571
     12          6           0      -24.311622    4.690237   -0.969069
     13          6           0      -24.618283    6.137667   -0.896540
     14          1           0      -23.549076    6.967813   -0.345388
     15          7           0      -24.734662   -1.239495   -2.309722
     16          6           0      -24.816227   -0.442868   -3.406636
     17          6           0      -24.404375   -1.208052   -4.556570
     18          6           0      -24.316828   -2.571093   -4.095495
     19          6           0      -24.724502   -2.542345   -2.687785
     20          6           0      -24.269744   -0.636583   -5.922481
     21          6           0      -24.045963   -3.904449   -4.865770
     22          8           0      -23.996583   -5.001768   -4.306362
     23          6           0      -23.685392   -3.902198   -6.325069
     24          7           0      -25.389591   -2.651026    0.366350
     25          6           0      -25.169427   -3.772151   -0.479579
     26          6           0      -25.253675   -5.080632    0.234272
     27          6           0      -25.179101   -4.544876    1.701017
     28          6           0      -25.229317   -3.022228    1.606386
     29          6           0      -26.533680   -5.917114   -0.105038
     30          6           0      -23.878173   -4.989985    2.463912
     31          6           0      -22.541103   -4.712695    1.730612
     32          7           0      -25.218385   -0.074782    1.614748
     33          6           0      -25.344399   -0.843958    2.781883
     34          6           0      -25.600177    0.063539    3.836991
     35          6           0      -25.660648    1.325597    3.259248
     36          6           0      -25.437080    1.178676    1.929979
     37          6           0      -25.718398   -0.298017    5.283350
     38          6           0      -25.938050    2.656265    3.537584
     39          8           0      -26.233138    3.192815    4.621042
     40          6           0      -25.888302    3.504032    2.230818
     41          6           0      -24.758544    4.542122    2.516447
     42          8           0      -23.546519    4.280718    2.616236
     43          8           0      -25.348318    5.795236    2.642356
     44          6           0      -24.515091    6.923383    3.167303
     45          1           0      -25.341148    1.450964   -4.255033
     46          1           0      -24.733358   -4.706236   -2.099626
     47          1           0      -25.262759   -2.675575    3.758319
     48          1           0      -26.353816    4.414092   -0.692463
     49          1           0      -25.444881    3.594558   -3.242314
     50          1           0      -28.131101    3.386996   -1.914285
     51          1           0      -27.772806    1.878357   -2.587345
     52          1           0      -27.735484    3.404601   -3.601149
     53          1           0      -23.780198    4.569761   -1.912053
     54          1           0      -23.731706    4.352998   -0.109534
     55          1           0      -25.458526    6.224416   -0.207455
     56          1           0      -24.963097    6.467042   -1.876504
     57          1           0      -24.175498    0.448774   -5.893194
     58          1           0      -25.043658   -1.076733   -6.552210
     59          1           0      -23.326481   -0.967308   -6.357335
     60          1           0      -23.985708   -4.888968   -6.678215
     61          1           0      -22.606972   -3.813348   -6.458282
     62          1           0      -24.243815   -3.150699   -6.884067
     63          1           0      -24.394386   -5.731618    0.067221
     64          1           0      -26.055552   -4.897029    2.245960
     65          1           0      -27.294769   -5.249259   -0.509442
     66          1           0      -27.004592   -6.450764    0.720680
     67          1           0      -26.405787   -6.705351   -0.847504
     68          1           0      -24.027621   -6.040275    2.714807
     69          1           0      -23.953195   -4.461449    3.414180
     70          1           0      -21.875733   -4.064571    2.301330
     71          1           0      -22.799383   -4.261870    0.772006
     72          1           0      -21.976351   -5.622232    1.528120
     73          1           0      -26.691041    0.076870    5.601857
     74          1           0      -24.878035    0.156645    5.807898
     75          1           0      -25.742317   -1.366260    5.499075
     76          1           0      -26.836342    4.032329    2.133259
     77          1           0      -24.193851    6.621682    4.163982
     78          1           0      -24.984847    7.903066    3.254225
     79          1           0      -23.734814    6.872117    2.407883
     80         12           0       24.636805   -0.635623    0.341924
     81          6           0       25.602846    1.977213   -1.734069
     82          6           0       23.051915    1.762278    2.283024
     83          6           0       24.114935   -3.080154    2.648037
     84          6           0       26.426646   -2.831986   -1.640083
     85          7           0       24.410938    1.621952    0.302435
     86          6           0       24.861083    2.501472   -0.670411
     87          6           0       24.557315    4.017519   -0.349167
     88          6           0       24.016877    3.875773    1.126473
     89          6           0       23.840319    2.320948    1.288313
     90          6           0       24.817156    4.413583    2.316354
     91          6           0       23.581051    4.612613   -1.380380
     92          6           0       24.147674    5.587158   -2.379060
     93          1           0       23.249939    6.771721   -2.778367
     94          7           0       23.559649   -0.745806    2.110037
     95          6           0       22.943589    0.338007    2.653634
     96          6           0       22.322005   -0.148253    3.900862
     97          6           0       22.683609   -1.490950    4.092163
     98          6           0       23.454386   -1.852011    2.966384
     99          6           0       21.385952    0.699721    4.662526
    100          6           0       22.391425   -2.418145    5.235350
    101          8           0       22.686817   -3.645464    5.228748
    102          6           0       21.781240   -2.006268    6.460297
    103          7           0       25.106413   -2.631465    0.446496
    104          6           0       24.764200   -3.450448    1.478340
    105          6           0       25.244235   -4.839001    1.316659
    106          6           0       25.941806   -4.800152   -0.090363
    107          6           0       25.871297   -3.353100   -0.404821
    108          6           0       26.141246   -5.559812    2.365627
    109          6           0       25.339398   -5.809673   -1.187820
    110          6           0       24.103893   -5.466040   -2.071890
    111          7           0       25.819576   -0.527057   -1.310212
    112          6           0       26.450853   -1.500098   -2.030224
    113          6           0       26.944630   -0.970930   -3.225788
    114          6           0       26.690728    0.447339   -3.081481
    115          6           0       25.981730    0.645205   -1.913423
    116          6           0       27.584293   -1.720475   -4.393027
    117          6           0       26.788886    1.679481   -3.809959
    118          8           0       27.158709    1.983359   -4.925860
    119          6           0       26.271821    2.780693   -2.819201
    120          6           0       27.408202    3.579952   -2.319717
    121          8           0       27.840526    3.605125   -1.146382
    122          8           0       28.027528    4.323156   -3.262663
    123          6           0       29.037526    5.356609   -2.850141
    124          1           0       22.610440    2.528608    2.922570
    125          1           0       24.012629   -3.898005    3.364614
    126          1           0       26.861632   -3.484039   -2.401048
    127          1           0       25.466377    4.583939   -0.144291
    128          1           0       23.029247    4.336779    1.118349
    129          1           0       25.205890    3.587409    2.912161
    130          1           0       24.089104    4.864470    2.989088
    131          1           0       25.626680    5.100527    2.067207
    132          1           0       22.859050    5.178325   -0.790330
    133          1           0       23.040941    3.790186   -1.849416
    134          1           0       24.374000    5.027710   -3.287129
    135          1           0       25.106844    6.030857   -2.111816
    136          1           0       20.436977    0.166237    4.626757
    137          1           0       21.219135    1.732481    4.353740
    138          1           0       21.708296    0.754815    5.702282
    139          1           0       22.281704   -1.076458    6.729370
    140          1           0       21.744728   -2.830580    7.171362
    141          1           0       20.755738   -1.675134    6.296401
    142          1           0       24.281863   -5.347649    1.268018
    143          1           0       27.001259   -5.024534    0.027651
    144          1           0       25.627367   -6.397527    2.837158
    145          1           0       26.413324   -4.887346    3.179882
    146          1           0       27.096278   -5.895377    1.961547
    147          1           0       25.031410   -6.653810   -0.570462
    148          1           0       26.242034   -6.050321   -1.749660
    149          1           0       23.761629   -4.433020   -2.015689
    150          1           0       23.268734   -6.165177   -2.020645
    151          1           0       24.460016   -5.652365   -3.084233
    152          1           0       28.580975   -1.342288   -4.622807
    153          1           0       26.980117   -1.522996   -5.278358
    154          1           0       27.594899   -2.805300   -4.284228
    155          1           0       25.707637    3.504867   -3.407133
    156          1           0       29.066876    5.893632   -3.798320
    157          1           0       30.007034    4.961151   -2.548996
    158          1           0       28.639951    5.950492   -2.026552
 ---------------------------------------------------------------------

 SCF Done:  E(RPBE1PBE) =  -4067.38780823     A.U. after   17 cycles

 Excitation energies and oscillator strengths:

 Excited State   1:      Singlet-A      1.8237 eV  679.85 nm  f=0.3576  <S**2>=0.000
     309 -> 315        0.15445
     311 -> 313        0.69680
     311 <- 313       -0.11765
 This state for optimization and/or second-order correction.
 Total Energy, E(TD-HF/TD-DFT) =  -4067.32078869
 Copying the excited state density for this state as the 1-particle RhoCI density.

 Excited State   2:      Singlet-A      1.8654 eV  664.64 nm  f=0.3713  <S**2>=0.000
     310 -> 316        0.17016
     312 -> 314        0.69170
     312 <- 314       -0.10906

 Excited State   3:      Singlet-A      1.9061 eV  650.46 nm  f=0.0000  <S**2>=0.000
     312 -> 313        0.70711

 Excited State   4:      Singlet-A      2.0425 eV  607.03 nm  f=0.0000  <S**2>=0.000
     311 -> 314        0.70711

 Excited State   5:      Singlet-A      2.2251 eV  557.22 nm  f=0.1255  <S**2>=0.000
     310 -> 314        0.65903
     312 -> 316       -0.23845

 The electronic state is 1-A.
 Alpha  occ. eigenvalues --  -46.91723 -46.90932 -19.25414 -19.24669 -19.20237
 Alpha  occ. eigenvalues --  -19.19001 -19.18504 -19.18499 -19.18166 -19.17872
 Alpha  occ. eigenvalues --  -14.41559 -14.41464 -14.41400 -14.40936 -14.39183
 Alpha  occ. eigenvalues --  -14.39037 -14.38167 -14.38054 -10.37080 -10.35523
 Alpha  occ. eigenvalues --  -10.32477 -10.31586 -10.31350 -10.30743 -10.29217
 Alpha  occ. eigenvalues --  -10.29182 -10.28736 -10.28673 -10.28577 -10.28380
 Alpha  occ. eigenvalues --  -10.28250 -10.28142 -10.28139 -10.28016 -10.27873
 Alpha  occ. eigenvalues --  -10.27786 -10.27677 -10.26964 -10.26955 -10.26379
 Alpha  occ. eigenvalues --  -10.26281 -10.26148 -10.26020 -10.25974 -10.25964
 Alpha  occ. eigenvalues --  -10.25954 -10.25945 -10.25779 -10.25726 -10.25631
 Alpha  occ. eigenvalues --  -10.25522 -10.25451 -10.25405 -10.25339 -10.25307
 Alpha  occ. eigenvalues --  -10.25245 -10.25105 -10.25009 -10.24996 -10.24951
 Alpha  occ. eigenvalues --  -10.24913 -10.24855 -10.24828 -10.24489 -10.24476
 Alpha  occ. eigenvalues --  -10.24348 -10.24311 -10.24284 -10.24262 -10.24199
 Alpha  occ. eigenvalues --  -10.24031 -10.23913 -10.23767 -10.23602 -10.23492
 Alpha  occ. eigenvalues --  -10.23457 -10.23411 -10.23367 -10.23308 -10.23245
 Alpha  occ. eigenvalues --  -10.23153 -10.23107 -10.22989 -10.22898 -10.22410
 Alpha  occ. eigenvalues --  -10.21399  -3.13897  -3.13224  -1.86717  -1.86274
 Alpha  occ. eigenvalues --   -1.86122  -1.86077  -1.85603  -1.85452  -1.09868
 Alpha  occ. eigenvalues --   -1.09155  -1.04320  -1.04240  -1.02627  -1.02601
 Alpha  occ. eigenvalues --   -1.01453  -0.99871  -0.99524  -0.99454  -0.98758
 Alpha  occ. eigenvalues --   -0.98607  -0.98173  -0.97860  -0.96869  -0.96863
 Alpha  occ. eigenvalues --   -0.87481  -0.86896  -0.83470  -0.83319  -0.83267
 Alpha  occ. eigenvalues --   -0.82903  -0.82727  -0.82607  -0.82123  -0.81831
 Alpha  occ. eigenvalues --   -0.81444  -0.81323  -0.80854  -0.80454  -0.78895
 Alpha  occ. eigenvalues --   -0.78623  -0.77932  -0.77806  -0.76971  -0.76705
 Alpha  occ. eigenvalues --   -0.76472  -0.75806  -0.75297  -0.75262  -0.74870
 Alpha  occ. eigenvalues --   -0.74730  -0.72880  -0.72561  -0.71823  -0.71376
 Alpha  occ. eigenvalues --   -0.71224  -0.71134  -0.70507  -0.70341  -0.69834
 Alpha  occ. eigenvalues --   -0.69644  -0.67686  -0.67553  -0.66481  -0.65773
 Alpha  occ. eigenvalues --   -0.64488  -0.64142  -0.63197  -0.63120  -0.62433
 Alpha  occ. eigenvalues --   -0.61988  -0.61500  -0.60948  -0.59862  -0.59671
 Alpha  occ. eigenvalues --   -0.59495  -0.59209  -0.59089  -0.59034  -0.58905
 Alpha  occ. eigenvalues --   -0.58568  -0.56166  -0.56069  -0.54490  -0.54464
 Alpha  occ. eigenvalues --   -0.54318  -0.54172  -0.53771  -0.53714  -0.53260
 Alpha  occ. eigenvalues --   -0.53115  -0.52245  -0.52178  -0.51833  -0.51361
 Alpha  occ. eigenvalues --   -0.50768  -0.50568  -0.50150  -0.50111  -0.49884
 Alpha  occ. eigenvalues --   -0.49467  -0.49461  -0.49312  -0.48918  -0.48394
 Alpha  occ. eigenvalues --   -0.48070  -0.47827  -0.47656  -0.47559  -0.47438
 Alpha  occ. eigenvalues --   -0.47257  -0.47095  -0.47026  -0.47013  -0.46585
 Alpha  occ. eigenvalues --   -0.46504  -0.46496  -0.46122  -0.46036  -0.45657
 Alpha  occ. eigenvalues --   -0.45403  -0.45066  -0.44956  -0.44950  -0.44790
 Alpha  occ. eigenvalues --   -0.44342  -0.44198  -0.44144  -0.44042  -0.43995
 Alpha  occ. eigenvalues --   -0.43839  -0.43600  -0.43598  -0.43438  -0.43376
 Alpha  occ. eigenvalues --   -0.43190  -0.43037  -0.42805  -0.42746  -0.42663
 Alpha  occ. eigenvalues --   -0.42599  -0.42413  -0.42343  -0.42069  -0.41889
 Alpha  occ. eigenvalues --   -0.41681  -0.41427  -0.41334  -0.41176  -0.41052
 Alpha  occ. eigenvalues --   -0.40985  -0.40773  -0.40709  -0.40545  -0.40424
 Alpha  occ. eigenvalues --   -0.40274  -0.40172  -0.40069  -0.39916  -0.39581
 Alpha  occ. eigenvalues --   -0.39385  -0.39170  -0.39039  -0.38951  -0.38780
 Alpha  occ. eigenvalues --   -0.38572  -0.38538  -0.38532  -0.38319  -0.38230
 Alpha  occ. eigenvalues --   -0.38176  -0.37978  -0.37854  -0.37760  -0.37661
 Alpha  occ. eigenvalues --   -0.37595  -0.37345  -0.37118  -0.36790  -0.36549
 Alpha  occ. eigenvalues --   -0.36443  -0.36389  -0.36247  -0.35992  -0.35978
 Alpha  occ. eigenvalues --   -0.35769  -0.35632  -0.35495  -0.35169  -0.35112
 Alpha  occ. eigenvalues --   -0.34886  -0.34800  -0.34597  -0.34009  -0.33817
 Alpha  occ. eigenvalues --   -0.33219  -0.33213  -0.33034  -0.32831  -0.32404
 Alpha  occ. eigenvalues --   -0.31923  -0.31910  -0.31634  -0.31586  -0.31469
 Alpha  occ. eigenvalues --   -0.31006  -0.30515  -0.29527  -0.29308  -0.29114
 Alpha  occ. eigenvalues --   -0.28777  -0.28720  -0.27561  -0.27000  -0.26658
 Alpha  occ. eigenvalues --   -0.25662  -0.25630  -0.25324  -0.25202  -0.25036
 Alpha  occ. eigenvalues --   -0.25014  -0.24885  -0.24806  -0.21172  -0.20607
 Alpha  occ. eigenvalues --   -0.18850  -0.18702
 Alpha virt. eigenvalues --   -0.11434  -0.11080  -0.05140  -0.04875  -0.03673
 Alpha virt. eigenvalues --   -0.03509  -0.02027  -0.02026  -0.00512   0.00372
 Alpha virt. eigenvalues --    0.00618   0.00721   0.00843   0.01442   0.01931

 Mulliken charges:
               1
     1  Mg  12.002549
     2  C    5.975450
     3  C    6.003485
     4  C    6.032498
     5  C    6.016507
     6  N    6.978613
     7  C    6.031871
     8  C    5.997007
     9  C    6.006766
    10  C    5.976680
    11  C    6.003213
    12  C    5.994127
    13  C    6.000544
    14  H    0.998664
    15  N    7.007159
    16  C    5.964660
    17  C    5.980403
    18  C    5.987124
    19  C    5.961867
    20  C    6.003189
    21  C    5.987726
    22  O    7.970837
    23  C    6.004960
    24  N    7.016550
    25  C    5.958265
    26  C    6.014724
    27  C    5.992506
    28  C    6.017851
    29  C    5.999549
    30  C    5.992292
    31  C    5.994595
    32  N    6.998063
    33  C    6.027399
    34  C    6.030223
    35  C    6.000251
    36  C    6.027666
    37  C    5.996989
    38  C    6.014813
    39  O    8.028560
    40  C    6.003861
    41  C    6.003177
    42  O    8.003547
    43  O    8.001567
    44  C    5.999463
    45  H    0.985933
    46  H    0.995858
    47  H    1.015920
    48  H    0.998513
    49  H    0.998629
    50  H    0.984167
    51  H    1.000543
    52  H    0.996664
    53  H    1.011851
    54  H    0.994350
    55  H    0.996270
    56  H    1.005420
    57  H    0.985644
    58  H    0.981519
    59  H    0.982652
    60  H    0.987040
    61  H    0.989354
    62  H    0.996025
    63  H    0.999179
    64  H    1.002902
    65  H    1.000499
    66  H    0.990795
    67  H    1.003449
    68  H    1.009742
    69  H    0.993562
    70  H    0.997380
    71  H    1.013324
    72  H    1.006752
    73  H    1.017472
    74  H    1.018797
    75  H    1.016181
    76  H    1.008086
    77  H    0.999078
    78  H    1.004298
    79  H    1.004342
    80  Mg  12.000011
    81  C    5.999882
    82  C    6.000119
    83  C    6.000156
    84  C    5.999996
    85  N    7.000023
    86  C    6.000129
    87  C    5.999960
    88  C    6.000036
    89  C    5.999832
    90  C    6.000005
    91  C    5.999986
    92  C    5.999972
    93  H    1.000045
    94  N    6.999995
    95  C    5.999813
    96  C    5.999834
    97  C    5.999998
    98  C    5.999808
    99  C    6.000066
   100  C    5.999942
   101  O    7.999876
   102  C    6.000030
   103  N    7.000011
   104  C    5.999788
   105  C    6.000095
   106  C    5.999932
   107  C    6.000149
   108  C    5.999984
   109  C    5.999987
   110  C    5.999982
   111  N    7.000018
   112  C    6.000130
   113  C    6.000160
   114  C    6.000033
   115  C    6.000091
   116  C    5.999952
   117  C    6.000058
   118  O    8.000160
   119  C    6.000047
   120  C    6.000005
   121  O    8.000032
   122  O    8.000000
   123  C    5.999991
   124  H    0.999930
   125  H    0.999941
   126  H    1.000075
   127  H    1.000010
   128  H    0.999988
   129  H    1.000012
   130  H    0.999985
   131  H    0.999939
   132  H    1.000030
   133  H    1.000019
   134  H    0.999994
   135  H    0.999992
   136  H    0.999891
   137  H    0.999892
   138  H    0.999863
   139  H    0.999970
   140  H    0.999917
   141  H    0.999954
   142  H    1.000003
   143  H    1.000003
   144  H    1.000001
   145  H    1.000001
   146  H    0.999958
   147  H    1.000056
   148  H    0.999998
   149  H    0.999993
   150  H    1.000059
   151  H    1.000015
   152  H    1.000091
   153  H    1.000111
   154  H    1.000087
   155  H    1.000055
   156  H    1.000024
   157  H    1.000008
   158  H    1.000017
 Sum of Mulliken charges = 624.00000

 Dipole moment (field-independent basis, Debye):
    X=             -0.9546    Y=              2.1901    Z=              9.8841  Tot=             10.1687
 Quadrupole moment (field-independent basis, Debye-Ang):
   XX=             49.8660   YY=             -0.9292   ZZ=             -7.4947
   XY=            -53.3216   XZ=           -249.1977   YZ=             -7.7054

 Normal termination of Gaussian 16 at Thu Oct 14 14:11:14 2021.
