 Gaussian 16, Revision A.03,
 Gaussian 16:  ES64L-G16RevA.03 25-Dec-2016

 --------------------------------------------------------
 #p PBE1PBE/Def2SVP td=(nstates=5) density=(transition=1)
 --------------------------------------------------------

 --------------------------------
 TDDFT excited states in gaussian
 --------------------------------
 Symbolic Z-matrix:
 Charge =  0 Multiplicity = 1

                         Standard orientation:
 ---------------------------------------------------------------------
 Center     Atomic      Atomic             Coordinates (Angstroms)
 Number     Number       Type             X           Y           Z
 ---------------------------------------------------------------------
      1         12           0      -17.880904   -0.690360    0.186682
      2          6           0      -17.771477    2.732999   -0.638870
      3          6           0      -16.902303    0.085786    3.344313
      4          6           0      -17.889207   -3.998323    0.891846
      5          6           0      -18.438864   -1.413850   -3.163509
      6          7           0      -17.305106    1.147402    1.194357
      7          6           0      -17.446412    2.446000    0.697526
      8          6           0      -17.212712    3.429893    1.804284
      9          6           0      -16.483098    2.571480    2.864736
     10          6           0      -16.931186    1.149722    2.438341
     11          6           0      -14.923731    2.641210    2.900832
     12          6           0      -18.496271    4.146938    2.369332
     13          6           0      -18.362454    5.629080    2.518172
     14          1           0      -18.881967    6.238037    3.833947
     15          7           0      -17.562409   -1.746835    1.877591
     16          6           0      -17.246939   -1.241084    3.149692
     17          6           0      -17.177500   -2.293003    4.083822
     18          6           0      -17.476928   -3.556720    3.386908
     19          6           0      -17.668356   -3.142355    2.026319
     20          6           0      -16.727226   -2.171622    5.510301
     21          6           0      -17.499998   -5.072198    3.868243
     22          8           0      -17.800652   -5.960515    3.106535
     23          6           0      -17.245152   -5.436034    5.324006
     24          7           0      -18.021415   -2.460441   -1.001817
     25          6           0      -17.975437   -3.701589   -0.452328
     26          6           0      -18.100485   -4.817479   -1.596668
     27          6           0      -18.581315   -3.977621   -2.859820
     28          6           0      -18.333184   -2.503021   -2.325416
     29          6           0      -16.816791   -5.637766   -1.902241
     30          6           0      -20.075957   -4.228447   -3.270653
     31          6           0      -20.188792   -4.584343   -4.693432
     32          7           0      -18.022216    0.401834   -1.565382
     33          6           0      -18.362947   -0.024586   -2.848132
     34          6           0      -18.473716    1.108483   -3.725937
     35          6           0      -18.223871    2.195174   -2.912885
     36          6           0      -17.990346    1.754815   -1.648322
     37          6           0      -18.891456    0.973693   -5.213512
     38          6           0      -18.089650    3.640071   -2.884894
     39          8           0      -18.096751    4.408072   -3.821589
     40          6           0      -17.758033    4.056648   -1.366687
     41          6           0      -16.461034    4.757140   -1.335581
     42          8           0      -15.375620    4.266607   -1.743448
     43          8           0      -16.661451    6.010606   -0.836108
     44          6           0      -15.544791    6.958204   -1.093299
     45          1           0      -16.545378    0.406310    4.325256
     46          1           0      -17.894920   -5.081569    1.028474
     47          1           0      -18.543250   -1.661263   -4.221496
     48          1           0      -16.483717    4.204421    1.562956
     49          1           0      -16.783746    2.795969    3.888266
     50          1           0      -14.518596    3.619838    2.640134
     51          1           0      -14.557431    1.871751    2.220739
     52          1           0      -14.456954    2.327287    3.834118
     53          1           0      -18.702391    3.647967    3.316053
     54          1           0      -19.377872    3.923930    1.767667
     55          1           0      -18.917055    5.975311    1.645881
     56          1           0      -17.307502    5.902861    2.511139
     57          1           0      -17.512027   -2.255445    6.262395
     58          1           0      -16.338665   -1.167753    5.676871
     59          1           0      -15.947265   -2.844309    5.866018
     60          1           0      -17.462451   -6.500671    5.401017
     61          1           0      -17.787755   -4.778568    6.003915
     62          1           0      -16.238198   -5.129351    5.608518
     63          1           0      -18.796296   -5.595115   -1.281238
     64          1           0      -17.909719   -4.196675   -3.691262
     65          1           0      -15.912072   -5.340467   -1.370942
     66          1           0      -16.538102   -5.619125   -2.956142
     67          1           0      -17.040432   -6.673046   -1.643418
     68          1           0      -20.631217   -3.298774   -3.140713
     69          1           0      -20.566452   -5.036845   -2.728819
     70          1           0      -20.290523   -5.667037   -4.772290
     71          1           0      -19.431978   -4.228116   -5.391419
     72          1           0      -21.064631   -4.094210   -5.118752
     73          1           0      -19.346804   -0.005308   -5.364784
     74          1           0      -18.070422    1.229511   -5.884823
     75          1           0      -19.690041    1.705355   -5.330337
     76          1           0      -18.534785    4.696118   -0.946592
     77          1           0      -15.827196    7.966206   -0.789977
     78          1           0      -15.467460    7.010544   -2.179510
     79          1           0      -14.661047    6.539334   -0.611189
     80         12           0       17.861845   -0.793395    0.109020
     81          6           0       16.113724    2.254042    0.629995
     82          6           0       20.807385    1.162115    0.217626
     83          6           0       19.573300   -3.443598   -0.722654
     84          6           0       14.809119   -2.422268   -0.243435
     85          7           0       18.409823    1.501214    0.388380
     86          6           0       17.484163    2.472671    0.680818
     87          6           0       18.111575    3.815438    1.014971
     88          6           0       19.633093    3.448315    0.742116
     89          6           0       19.641771    1.936572    0.467832
     90          6           0       20.232798    4.359883   -0.324473
     91          6           0       17.825045    4.203408    2.482249
     92          6           0       17.585891    5.722692    2.827364
     93          1           0       18.101875    6.786398    1.829817
     94          7           0       19.923110   -1.131441   -0.137343
     95          6           0       20.944138   -0.180687   -0.128586
     96          6           0       22.217720   -0.877082   -0.370117
     97          6           0       21.869184   -2.255593   -0.548802
     98          6           0       20.399681   -2.299088   -0.423547
     99          6           0       23.478580   -0.200500   -0.474784
    100          6           0       22.789334   -3.438998   -0.830997
    101          8           0       22.327480   -4.568148   -1.060038
    102          6           0       24.253123   -3.314148   -0.666524
    103          7           0       17.268083   -2.648246   -0.512512
    104          6           0       18.175971   -3.609388   -0.701825
    105          6           0       17.494613   -4.949780   -1.129584
    106          6           0       15.999589   -4.660372   -0.783058
    107          6           0       15.978443   -3.188154   -0.515036
    108          6           0       17.790263   -5.382103   -2.610850
    109          6           0       15.713452   -5.485709    0.529252
    110          6           0       15.870525   -4.813637    1.936738
    111          7           0       15.868910   -0.277972    0.270445
    112          6           0       14.724568   -1.073287    0.078971
    113          6           0       13.528330   -0.204716    0.209244
    114          6           0       14.046703    1.075878    0.362176
    115          6           0       15.423187    1.036033    0.432175
    116          6           0       12.212035   -0.711911   -0.137950
    117          6           0       13.625278    2.474363    0.388327
    118          8           0       12.488069    2.920476    0.286151
    119          6           0       14.969951    3.329050    0.540594
    120          6           0       15.126035    4.288419   -0.579665
    121          8           0       15.757271    4.097188   -1.615084
    122          8           0       14.445121    5.478738   -0.261579
    123          6           0       14.372383    6.580433   -1.194477
    124          1           0       21.758897    1.631622    0.477307
    125          1           0       20.085435   -4.371784   -0.986090
    126          1           0       13.920648   -3.050677   -0.330555
    127          1           0       17.765987    4.615455    0.359753
    128          1           0       20.173724    3.737129    1.643037
    129          1           0       21.133693    4.891929   -0.020851
    130          1           0       19.565895    5.113817   -0.742782
    131          1           0       20.580591    3.706486   -1.125710
    132          1           0       18.621030    3.851721    3.138511
    133          1           0       16.938963    3.597513    2.674752
    134          1           0       18.115786    5.990696    3.740802
    135          1           0       16.546723    5.777395    3.151733
    136          1           0       24.152010   -0.704161    0.219001
    137          1           0       23.345725    0.880328   -0.438289
    138          1           0       23.702465   -0.378639   -1.527038
    139          1           0       24.731130   -2.726297   -1.450715
    140          1           0       24.707847   -4.303075   -0.721162
    141          1           0       24.434090   -2.738579    0.240803
    142          1           0       18.021749   -5.612664   -0.443387
    143          1           0       15.325272   -5.018863   -1.561206
    144          1           0       18.612177   -6.097803   -2.633380
    145          1           0       17.946832   -4.465014   -3.177851
    146          1           0       16.877287   -5.857717   -2.968743
    147          1           0       16.182056   -6.466464    0.445381
    148          1           0       14.625675   -5.561278    0.533523
    149          1           0       16.387825   -5.575168    2.519602
    150          1           0       14.914945   -4.609149    2.421314
    151          1           0       16.483202   -3.913537    1.973854
    152          1           0       12.277970   -1.212608   -1.103057
    153          1           0       11.566684    0.159731   -0.251495
    154          1           0       11.769533   -1.255731    0.696207
    155          1           0       14.808850    3.881680    1.466719
    156          1           0       13.454860    6.589838   -1.782330
    157          1           0       15.318822    6.722837   -1.716305
    158          1           0       14.409623    7.426294   -0.507419
 ---------------------------------------------------------------------

 SCF Done:  E(RPBE1PBE) =  -4067.39690001     A.U. after   16 cycles

 Excitation energies and oscillator strengths:

 Excited State   1:      Singlet-A      1.8175 eV  682.15 nm  f=0.0000  <S**2>=0.000
     312 -> 313        0.70711
 This state for optimization and/or second-order correction.
 Total Energy, E(TD-HF/TD-DFT) =  -4067.33010637
 Copying the excited state density for this state as the 1-particle RhoCI density.

 Excited State   2:      Singlet-A      1.8853 eV  657.63 nm  f=0.3657  <S**2>=0.000
     310 -> 315        0.18510
     312 -> 314        0.68861
     312 <- 314       -0.10055

 Excited State   3:      Singlet-A      1.8995 eV  652.73 nm  f=0.3748  <S**2>=0.000
     309 -> 316       -0.17468
     311 -> 313        0.69178
     311 <- 313       -0.10894

 Excited State   4:      Singlet-A      2.1896 eV  566.24 nm  f=0.0000  <S**2>=0.000
     311 -> 314        0.70710

 Excited State   5:      Singlet-A      2.2138 eV  560.06 nm  f=0.1466  <S**2>=0.000
     309 -> 313        0.66236
     311 -> 316        0.22963

 The electronic state is 1-A.
 Alpha  occ. eigenvalues --  -46.91906 -46.90586 -19.26283 -19.24644 -19.20073
 Alpha  occ. eigenvalues --  -19.19957 -19.19750 -19.19648 -19.19344 -19.18807
 Alpha  occ. eigenvalues --  -14.41468 -14.41434 -14.41038 -14.40975 -14.39198
 Alpha  occ. eigenvalues --  -14.38927 -14.38711 -14.38294 -10.36447 -10.36421
 Alpha  occ. eigenvalues --  -10.33362 -10.32629 -10.32271 -10.32249 -10.29356
 Alpha  occ. eigenvalues --  -10.28851 -10.28680 -10.28544 -10.28393 -10.28275
 Alpha  occ. eigenvalues --  -10.28245 -10.28162 -10.28141 -10.28103 -10.28021
 Alpha  occ. eigenvalues --  -10.27856 -10.27766 -10.27392 -10.27131 -10.26990
 Alpha  occ. eigenvalues --  -10.26746 -10.26531 -10.26395 -10.26347 -10.26164
 Alpha  occ. eigenvalues --  -10.26118 -10.25820 -10.25796 -10.25749 -10.25699
 Alpha  occ. eigenvalues --  -10.25554 -10.25497 -10.25494 -10.25470 -10.25449
 Alpha  occ. eigenvalues --  -10.25419 -10.25300 -10.25118 -10.25104 -10.25014
 Alpha  occ. eigenvalues --  -10.25006 -10.24972 -10.24767 -10.24659 -10.24493
 Alpha  occ. eigenvalues --  -10.24431 -10.24421 -10.24249 -10.24122 -10.24068
 Alpha  occ. eigenvalues --  -10.24059 -10.23905 -10.23663 -10.23645 -10.23488
 Alpha  occ. eigenvalues --  -10.23424 -10.23333 -10.23246 -10.23130 -10.22782
 Alpha  occ. eigenvalues --  -10.22769 -10.22725 -10.22688 -10.22562 -10.22167
 Alpha  occ. eigenvalues --  -10.22077  -3.14031  -3.12888  -1.86880  -1.86419
 Alpha  occ. eigenvalues --   -1.86241  -1.85735  -1.85250  -1.85138  -1.10502
 Alpha  occ. eigenvalues --   -1.09381  -1.06324  -1.05155  -1.04499  -1.03763
 Alpha  occ. eigenvalues --   -1.02047  -1.01103  -0.99492  -0.99275  -0.98590
 Alpha  occ. eigenvalues --   -0.98089  -0.97761  -0.97177  -0.96179  -0.95958
 Alpha  occ. eigenvalues --   -0.86966  -0.86372  -0.83951  -0.83431  -0.82913
 Alpha  occ. eigenvalues --   -0.82912  -0.82728  -0.82277  -0.81587  -0.81347
 Alpha  occ. eigenvalues --   -0.81112  -0.80628  -0.80628  -0.80198  -0.78527
 Alpha  occ. eigenvalues --   -0.78331  -0.78096  -0.77612  -0.77161  -0.76677
 Alpha  occ. eigenvalues --   -0.76249  -0.76198  -0.75478  -0.75186  -0.74981
 Alpha  occ. eigenvalues --   -0.74811  -0.73084  -0.72455  -0.71616  -0.71462
 Alpha  occ. eigenvalues --   -0.71195  -0.71078  -0.70084  -0.70022  -0.69185
 Alpha  occ. eigenvalues --   -0.69127  -0.67335  -0.66627  -0.65758  -0.65369
 Alpha  occ. eigenvalues --   -0.63648  -0.63201  -0.63026  -0.62461  -0.62353
 Alpha  occ. eigenvalues --   -0.61941  -0.61036  -0.60873  -0.59923  -0.59578
 Alpha  occ. eigenvalues --   -0.59341  -0.59187  -0.59062  -0.58996  -0.58766
 Alpha  occ. eigenvalues --   -0.58574  -0.56516  -0.56114  -0.54808  -0.54760
 Alpha  occ. eigenvalues --   -0.54582  -0.53923  -0.53824  -0.53572  -0.52699
 Alpha  occ. eigenvalues --   -0.52572  -0.52450  -0.52386  -0.52072  -0.51748
 Alpha  occ. eigenvalues --   -0.50818  -0.50660  -0.50246  -0.50066  -0.50012
 Alpha  occ. eigenvalues --   -0.49783  -0.49458  -0.48804  -0.48421  -0.48388
 Alpha  occ. eigenvalues --   -0.48185  -0.48029  -0.47957  -0.47804  -0.47703
 Alpha  occ. eigenvalues --   -0.47349  -0.47280  -0.47152  -0.46893  -0.46419
 Alpha  occ. eigenvalues --   -0.46417  -0.46322  -0.46159  -0.45968  -0.45835
 Alpha  occ. eigenvalues --   -0.45742  -0.45439  -0.45324  -0.45145  -0.44976
 Alpha  occ. eigenvalues --   -0.44641  -0.44456  -0.44328  -0.44307  -0.44079
 Alpha  occ. eigenvalues --   -0.44018  -0.43974  -0.43657  -0.43533  -0.43451
 Alpha  occ. eigenvalues --   -0.43334  -0.43110  -0.42973  -0.42681  -0.42633
 Alpha  occ. eigenvalues --   -0.42381  -0.42223  -0.42056  -0.41916  -0.41630
 Alpha  occ. eigenvalues --   -0.41405  -0.41304  -0.41271  -0.41143  -0.40901
 Alpha  occ. eigenvalues --   -0.40774  -0.40745  -0.40544  -0.40480  -0.40194
 Alpha  occ. eigenvalues --   -0.40073  -0.39821  -0.39721  -0.39472  -0.39426
 Alpha  occ. eigenvalues --   -0.39394  -0.39195  -0.39115  -0.39057  -0.38965
 Alpha  occ. eigenvalues --   -0.38800  -0.38752  -0.38474  -0.38243  -0.38223
 Alpha  occ. eigenvalues --   -0.38150  -0.38142  -0.37832  -0.37748  -0.37615
 Alpha  occ. eigenvalues --   -0.37504  -0.37428  -0.37003  -0.36804  -0.36737
 Alpha  occ. eigenvalues --   -0.36696  -0.36649  -0.36086  -0.36048  -0.35908
 Alpha  occ. eigenvalues --   -0.35830  -0.35407  -0.35316  -0.35201  -0.34865
 Alpha  occ. eigenvalues --   -0.34808  -0.34215  -0.34056  -0.33753  -0.33448
 Alpha  occ. eigenvalues --   -0.33321  -0.32815  -0.32811  -0.32707  -0.32414
 Alpha  occ. eigenvalues --   -0.32141  -0.31712  -0.31702  -0.31369  -0.31031
 Alpha  occ. eigenvalues --   -0.31030  -0.30729  -0.29458  -0.29281  -0.29100
 Alpha  occ. eigenvalues --   -0.29065  -0.28683  -0.28554  -0.26911  -0.26602
 Alpha  occ. eigenvalues --   -0.26447  -0.25866  -0.25846  -0.25770  -0.25667
 Alpha  occ. eigenvalues --   -0.25603  -0.25114  -0.25107  -0.20896  -0.20766
 Alpha  occ. eigenvalues --   -0.19090  -0.18438
 Alpha virt. eigenvalues --   -0.11383  -0.10675  -0.05161  -0.04807  -0.03976
 Alpha virt. eigenvalues --   -0.03520  -0.02182  -0.01657  -0.00155   0.00262
 Alpha virt. eigenvalues --    0.00541   0.00699   0.01086   0.01473   0.01623

 Mulliken charges:
               1
     1  Mg  12.000000
     2  C    6.000000
     3  C    6.000000
     4  C    6.000000
     5  C    6.000000
     6  N    7.000000
     7  C    6.000000
     8  C    6.000000
     9  C    6.000000
    10  C    6.000000
    11  C    6.000000
    12  C    6.000000
    13  C    6.000000
    14  H    1.000000
    15  N    7.000000
    16  C    6.000000
    17  C    6.000000
    18  C    6.000000
    19  C    6.000000
    20  C    6.000000
    21  C    6.000000
    22  O    8.000000
    23  C    6.000000
    24  N    7.000000
    25  C    6.000000
    26  C    6.000000
    27  C    6.000000
    28  C    6.000000
    29  C    6.000000
    30  C    6.000000
    31  C    6.000000
    32  N    7.000000
    33  C    6.000000
    34  C    6.000000
    35  C    6.000000
    36  C    6.000000
    37  C    6.000000
    38  C    6.000000
    39  O    8.000000
    40  C    6.000000
    41  C    6.000000
    42  O    8.000000
    43  O    8.000000
    44  C    6.000000
    45  H    1.000000
    46  H    1.000000
    47  H    1.000000
    48  H    1.000000
    49  H    1.000000
    50  H    1.000000
    51  H    1.000000
    52  H    1.000000
    53  H    1.000000
    54  H    1.000000
    55  H    1.000000
    56  H    1.000000
    57  H    1.000000
    58  H    1.000000
    59  H    1.000000
    60  H    1.000000
    61  H    1.000000
    62  H    1.000000
    63  H    1.000000
    64  H    1.000000
    65  H    1.000000
    66  H    1.000000
    67  H    1.000000
    68  H    1.000000
    69  H    1.000000
    70  H    1.000000
    71  H    1.000000
    72  H    1.000000
    73  H    1.000000
    74  H    1.000000
    75  H    1.000000
    76  H    1.000000
    77  H    1.000000
    78  H    1.000000
    79  H    1.000000
    80  Mg  12.000000
    81  C    6.000000
    82  C    6.000000
    83  C    6.000000
    84  C    6.000000
    85  N    7.000000
    86  C    6.000000
    87  C    6.000000
    88  C    6.000000
    89  C    6.000000
    90  C    6.000000
    91  C    6.000000
    92  C    6.000000
    93  H    1.000000
    94  N    7.000000
    95  C    6.000000
    96  C    6.000000
    97  C    6.000000
    98  C    6.000000
    99  C    6.000000
   100  C    6.000000
   101  O    8.000000
   102  C    6.000000
   103  N    7.000000
   104  C    6.000000
   105  C    6.000000
   106  C    6.000000
   107  C    6.000000
   108  C    6.000000
   109  C    6.000000
   110  C    6.000000
   111  N    7.000000
   112  C    6.000000
   113  C    6.000000
   114  C    6.000000
   115  C    6.000000
   116  C    6.000000
   117  C    6.000000
   118  O    8.000000
   119  C    6.000000
   120  C    6.000000
   121  O    8.000000
   122  O    8.000000
   123  C    6.000000
   124  H    1.000000
   125  H    1.000000
   126  H    1.000000
   127  H    1.000000
   128  H    1.000000
   129  H    1.000000
   130  H    1.000000
   131  H    1.000000
   132  H    1.000000
   133  H    1.000000
   134  H    1.000000
   135  H    1.000000
   136  H    1.000000
   137  H    1.000000
   138  H    1.000000
   139  H    1.000000
   140  H    1.000000
   141  H    1.000000
   142  H    1.000000
   143  H    1.000000
   144  H    1.000000
   145  H    1.000000
   146  H    1.000000
   147  H    1.000000
   148  H    1.000000
   149  H    1.000000
   150  H    1.000000
   151  H    1.000000
   152  H    1.000000
   153  H    1.000000
   154  H    1.000000
   155  H    1.000000
   156  H    1.000000
   157  H    1.000000
   158  H    1.000000
 Sum of Mulliken charges = 624.00000

 Dipole moment (field-independent basis, Debye):
    X=             -0.0000    Y=              0.0000    Z=             -0.0000  Tot=              0.0000
 Quadrupole moment (field-independent basis, Debye-Ang):
   XX=             -0.0000   YY=             -0.0000   ZZ=             -0.0000
   XY=             -0.0000   XZ=              0.0000   YZ=              0.0000

 Normal termination of Gaussian 16 at Thu Oct 14 01:25:57 2021.
