 Gaussian 16, Revision A.03,
 Gaussian 16:  ES64L-G16RevA.03 25-Dec-2016

 --------------------------------------------------------
 #p PBE1PBE/Def2SVP td=(nstates=5) density=(transition=1)
 --------------------------------------------------------

 --------------------------------
 TDDFT excited states in gaussian
 --------------------------------
 Symbolic Z-matrix:
 Charge =  0 Multiplicity = 1

                         Standard orientation:
 ---------------------------------------------------------------------
 Center     Atomic      Atomic             Coordinates (Angstroms)
 Number     Number       Type             X           Y           Z
 ---------------------------------------------------------------------
      1         12           0       14.523436   -0.350542   -0.108136
      2          6           0       10.985979   -1.087532   -0.747558
      3          6           0       14.220929    1.902864   -2.717797
      4          6           0       17.146309    1.053849    1.039948
      5          6           0       14.165890   -2.479940    2.764075
      6          7           0       12.647861    0.418086   -1.503200
      7          6           0       11.345733   -0.023776   -1.589704
      8          6           0       10.561658    0.866001   -2.622319
      9          6           0       11.659965    1.596273   -3.414551
     10          6           0       12.912340    1.296812   -2.505842
     11          6           0       11.959869    1.131064   -4.899989
     12          6           0        9.495527    1.806182   -1.962540
     13          6           0        8.188469    1.968607   -2.708213
     14          1           0        8.004907    3.286770   -3.523881
     15          7           0       15.609938    1.154377   -0.795186
     16          6           0       15.416901    1.901658   -1.925157
     17          6           0       16.515940    2.895572   -2.066726
     18          6           0       17.354077    2.655034   -0.946936
     19          6           0       16.691766    1.618214   -0.159351
     20          6           0       16.648027    3.987168   -3.141289
     21          6           0       18.561656    3.466064   -0.468278
     22          8           0       18.937905    4.389062   -1.185648
     23          6           0       19.288527    3.211690    0.712460
     24          7           0       15.368596   -0.513510    1.830436
     25          6           0       16.635665    0.032200    1.887407
     26          6           0       17.328842   -0.479880    3.208993
     27          6           0       16.221277   -1.362621    3.888329
     28          6           0       15.235600   -1.538642    2.708345
     29          6           0       18.679052   -1.223548    3.016863
     30          6           0       15.530059   -0.837970    5.210934
     31          6           0       16.285709   -1.011461    6.539901
     32          7           0       12.978142   -1.606884    0.863251
     33          6           0       13.049566   -2.485100    1.926084
     34          6           0       11.855048   -3.285799    2.043630
     35          6           0       11.010826   -2.774403    0.988100
     36          6           0       11.673511   -1.702630    0.293993
     37          6           0       11.627418   -4.305427    3.116719
     38          6           0        9.734046   -2.881942    0.438032
     39          8           0        8.743530   -3.491634    0.817921
     40          6           0        9.594102   -1.736269   -0.605789
     41          6           0        9.209222   -2.437058   -1.887793
     42          8           0        8.267456   -2.080955   -2.600435
     43          8           0       10.125017   -3.473785   -2.332240
     44          6           0        9.904201   -3.852626   -3.726960
     45          1           0       14.176531    2.567712   -3.582362
     46          1           0       18.124602    1.307269    1.453671
     47          1           0       14.241960   -3.146687    3.625437
     48          1           0       10.129363    0.212312   -3.381233
     49          1           0       11.533662    2.678354   -3.379363
     50          1           0       11.537338    1.918566   -5.523658
     51          1           0       11.423839    0.213604   -5.141236
     52          1           0       13.005275    0.921272   -5.126057
     53          1           0        9.792579    2.852981   -1.893775
     54          1           0        9.218490    1.431372   -0.976978
     55          1           0        7.389528    1.797607   -1.986696
     56          1           0        8.127428    1.163014   -3.440612
     57          1           0       17.689200    4.073394   -3.453272
     58          1           0       16.246133    4.877416   -2.657651
     59          1           0       16.093427    3.720479   -4.039926
     60          1           0       19.793805    2.252346    0.596399
     61          1           0       18.707130    3.277777    1.632138
     62          1           0       19.934020    4.090039    0.745895
     63          1           0       17.563106    0.314337    3.917031
     64          1           0       16.581799   -2.372849    4.080626
     65          1           0       18.531175   -2.202482    3.473056
     66          1           0       19.450790   -0.673351    3.554295
     67          1           0       18.813128   -1.228732    1.934459
     68          1           0       14.601846   -1.408910    5.251109
     69          1           0       15.371048    0.239662    5.166678
     70          1           0       17.157186   -1.573090    6.202222
     71          1           0       15.756404   -1.690720    7.209665
     72          1           0       16.586475   -0.103970    7.062889
     73          1           0       11.743986   -3.764281    4.054775
     74          1           0       12.400675   -5.072272    3.159190
     75          1           0       10.596628   -4.657811    3.155987
     76          1           0        8.753771   -1.120322   -0.286127
     77          1           0       10.921475   -4.204169   -3.903336
     78          1           0        9.482376   -3.036642   -4.313721
     79          1           0        9.269735   -4.738750   -3.704835
     80         12           0      -13.456843    0.993458    0.138745
     81          6           0      -14.346666   -2.264289   -0.387784
     82          6           0      -10.275710    0.326741   -0.594870
     83          6           0      -12.774629    4.086504    0.906982
     84          6           0      -16.731634    1.441376    1.472038
     85          7           0      -12.366674   -0.837506   -0.272564
     86          6           0      -12.993689   -1.964530   -0.692902
     87          6           0      -12.071934   -2.861814   -1.472596
     88          6           0      -10.691100   -2.118827   -1.267505
     89          6           0      -11.097737   -0.824696   -0.596647
     90          6           0       -9.623291   -2.938759   -0.504316
     91          6           0      -12.547652   -3.140348   -3.026141
     92          6           0      -12.533642   -4.584319   -3.550543
     93          1           0      -11.566879   -5.584136   -2.841577
     94          7           0      -11.864770    2.058797   -0.007864
     95          6           0      -10.603675    1.660808   -0.319222
     96          6           0       -9.624130    2.710395   -0.177486
     97          6           0      -10.354082    3.837117    0.053187
     98          6           0      -11.702851    3.325018    0.448683
     99          6           0       -8.162892    2.314311   -0.284598
    100          6           0       -9.874066    5.299783    0.135728
    101          8           0      -10.591618    6.234067    0.407668
    102          6           0       -8.405590    5.472358   -0.117997
    103          7           0      -14.582206    2.478312    1.226969
    104          6           0      -14.062606    3.718283    1.272250
    105          6           0      -15.074922    4.714843    1.845691
    106          6           0      -16.431839    3.941200    1.727279
    107          6           0      -15.901720    2.512998    1.485484
    108          6           0      -14.816154    5.303711    3.297587
    109          6           0      -17.374219    4.359295    0.536379
    110          6           0      -16.944564    4.294494   -0.905647
    111          7           0      -15.269723   -0.082565    0.433582
    112          6           0      -16.492478    0.174684    1.061943
    113          6           0      -17.373242   -0.999959    1.032921
    114          6           0      -16.566588   -1.992652    0.456632
    115          6           0      -15.329027   -1.356061    0.125881
    116          6           0      -18.815434   -1.098743    1.459358
    117          6           0      -16.494605   -3.328511    0.075146
    118          8           0      -17.267800   -4.268251    0.175919
    119          6           0      -15.162056   -3.512117   -0.696321
    120          6           0      -14.618958   -4.755925   -0.103802
    121          8           0      -14.029687   -4.835587    0.976772
    122          8           0      -14.951821   -5.845959   -0.854624
    123          6           0      -14.772347   -7.189280   -0.294814
    124          1           0       -9.293810    0.118273   -1.025355
    125          1           0      -12.635799    5.144514    1.135714
    126          1           0      -17.707561    1.732871    1.867710
    127          1           0      -11.948763   -3.819216   -0.966209
    128          1           0      -10.301143   -1.827412   -2.242512
    129          1           0       -9.558640   -2.567319    0.518329
    130          1           0       -8.658286   -2.781215   -0.986052
    131          1           0       -9.957023   -3.976266   -0.525444
    132          1           0      -11.874873   -2.533175   -3.631912
    133          1           0      -13.579225   -2.821415   -3.171881
    134          1           0      -12.169973   -4.607918   -4.577471
    135          1           0      -13.552448   -4.968483   -3.599634
    136          1           0       -7.819672    1.601220    0.465099
    137          1           0       -7.376881    3.037579   -0.068233
    138          1           0       -8.116739    1.983618   -1.322217
    139          1           0       -8.130596    5.054273   -1.086049
    140          1           0       -7.972233    5.012525    0.769937
    141          1           0       -8.004534    6.480183   -0.219332
    142          1           0      -14.972024    5.551820    1.154134
    143          1           0      -16.921332    3.945300    2.701431
    144          1           0      -13.888079    4.893322    3.694803
    145          1           0      -15.565023    4.940437    4.000381
    146          1           0      -14.811608    6.391004    3.388134
    147          1           0      -17.598640    5.382597    0.838445
    148          1           0      -18.303314    3.790269    0.527681
    149          1           0      -15.875851    4.082571   -0.958094
    150          1           0      -17.095003    5.257846   -1.392668
    151          1           0      -17.391592    3.506172   -1.510971
    152          1           0      -18.937802   -1.660550    2.384310
    153          1           0      -19.402975   -1.561501    0.666239
    154          1           0      -19.072234   -0.064341    1.689131
    155          1           0      -15.317327   -3.543344   -1.774910
    156          1           0      -15.447813   -7.917094   -0.745956
    157          1           0      -14.752244   -7.178289    0.793873
    158          1           0      -13.771907   -7.584675   -0.469595
 ---------------------------------------------------------------------

 SCF Done:  E(RPBE1PBE) =  -4067.31928692     A.U. after   17 cycles

 Excitation energies and oscillator strengths:

 Excited State   1:      Singlet-A      1.7121 eV  724.18 nm  f=0.0000  <S**2>=0.000
     312 -> 313        0.70710
 This state for optimization and/or second-order correction.
 Total Energy, E(TD-HF/TD-DFT) =  -4067.25636936
 Copying the excited state density for this state as the 1-particle RhoCI density.

 Excited State   2:      Singlet-A      1.8703 eV  662.91 nm  f=0.3630  <S**2>=0.000
     309 -> 315        0.19141
     311 -> 313        0.68608

 Excited State   3:      Singlet-A      1.8952 eV  654.19 nm  f=0.3463  <S**2>=0.000
     310 -> 316       -0.18674
     312 -> 314        0.68766

 Excited State   4:      Singlet-A      2.2322 eV  555.43 nm  f=0.0729  <S**2>=0.000
     308 -> 313       -0.10206
     309 -> 313        0.63202
     311 -> 315       -0.29404

 Excited State   5:      Singlet-A      2.2583 eV  549.03 nm  f=0.0659  <S**2>=0.000
     310 -> 314        0.63643
     312 -> 316        0.29818

 The electronic state is 1-A.
 Alpha  occ. eigenvalues --  -46.94209 -46.91257 -19.24516 -19.24468 -19.20426
 Alpha  occ. eigenvalues --  -19.19824 -19.18995 -19.18539 -19.18262 -19.17992
 Alpha  occ. eigenvalues --  -14.42155 -14.41707 -14.41070 -14.40464 -14.40396
 Alpha  occ. eigenvalues --  -14.39432 -14.38984 -14.38390 -10.36552 -10.35219
 Alpha  occ. eigenvalues --  -10.32794 -10.32036 -10.30784 -10.30726 -10.29996
 Alpha  occ. eigenvalues --  -10.29635 -10.29543 -10.29148 -10.28937 -10.28857
 Alpha  occ. eigenvalues --  -10.28209 -10.28190 -10.28091 -10.27971 -10.27826
 Alpha  occ. eigenvalues --  -10.27732 -10.27411 -10.27317 -10.27224 -10.27201
 Alpha  occ. eigenvalues --  -10.26831 -10.26762 -10.26739 -10.26737 -10.26628
 Alpha  occ. eigenvalues --  -10.26430 -10.26258 -10.26195 -10.26185 -10.26077
 Alpha  occ. eigenvalues --  -10.26053 -10.26027 -10.25933 -10.25836 -10.25637
 Alpha  occ. eigenvalues --  -10.25583 -10.25400 -10.25321 -10.25308 -10.25169
 Alpha  occ. eigenvalues --  -10.25139 -10.25118 -10.25117 -10.25027 -10.24934
 Alpha  occ. eigenvalues --  -10.24881 -10.24723 -10.24586 -10.24517 -10.24510
 Alpha  occ. eigenvalues --  -10.24158 -10.24023 -10.23974 -10.23893 -10.23820
 Alpha  occ. eigenvalues --  -10.23571 -10.23541 -10.23435 -10.23393 -10.23357
 Alpha  occ. eigenvalues --  -10.23330 -10.23157 -10.23033 -10.22630 -10.22567
 Alpha  occ. eigenvalues --  -10.21918  -3.16202  -3.13684  -1.88983  -1.88627
 Alpha  occ. eigenvalues --   -1.88388  -1.86492  -1.86074  -1.85941  -1.09558
 Alpha  occ. eigenvalues --   -1.08761  -1.05973  -1.05170  -1.03878  -1.03820
 Alpha  occ. eigenvalues --   -1.01274  -1.00681  -1.00036  -0.99637  -0.99171
 Alpha  occ. eigenvalues --   -0.98741  -0.98075  -0.97974  -0.97684  -0.95915
 Alpha  occ. eigenvalues --   -0.87394  -0.86718  -0.83688  -0.83330  -0.83280
 Alpha  occ. eigenvalues --   -0.82840  -0.82594  -0.82168  -0.82144  -0.81715
 Alpha  occ. eigenvalues --   -0.81345  -0.81191  -0.80918  -0.80421  -0.79309
 Alpha  occ. eigenvalues --   -0.78529  -0.78185  -0.78005  -0.77804  -0.76916
 Alpha  occ. eigenvalues --   -0.76775  -0.76609  -0.75607  -0.75303  -0.74723
 Alpha  occ. eigenvalues --   -0.74315  -0.73100  -0.72588  -0.71761  -0.71737
 Alpha  occ. eigenvalues --   -0.71402  -0.71214  -0.70220  -0.69920  -0.69686
 Alpha  occ. eigenvalues --   -0.69450  -0.67414  -0.67054  -0.66459  -0.66012
 Alpha  occ. eigenvalues --   -0.63908  -0.63572  -0.63329  -0.63111  -0.62528
 Alpha  occ. eigenvalues --   -0.62238  -0.61556  -0.61465  -0.60093  -0.59916
 Alpha  occ. eigenvalues --   -0.59729  -0.59549  -0.59386  -0.59150  -0.58681
 Alpha  occ. eigenvalues --   -0.58242  -0.56492  -0.56256  -0.55437  -0.54953
 Alpha  occ. eigenvalues --   -0.54503  -0.53857  -0.53818  -0.53706  -0.53586
 Alpha  occ. eigenvalues --   -0.52474  -0.52279  -0.52031  -0.51927  -0.51616
 Alpha  occ. eigenvalues --   -0.51302  -0.50736  -0.50350  -0.49773  -0.49526
 Alpha  occ. eigenvalues --   -0.49437  -0.49087  -0.48802  -0.48618  -0.48498
 Alpha  occ. eigenvalues --   -0.48374  -0.48199  -0.48103  -0.47931  -0.47718
 Alpha  occ. eigenvalues --   -0.47540  -0.47204  -0.47196  -0.46933  -0.46797
 Alpha  occ. eigenvalues --   -0.46723  -0.46687  -0.46500  -0.46050  -0.45988
 Alpha  occ. eigenvalues --   -0.45720  -0.45667  -0.45305  -0.45149  -0.44875
 Alpha  occ. eigenvalues --   -0.44746  -0.44594  -0.44572  -0.44126  -0.43951
 Alpha  occ. eigenvalues --   -0.43897  -0.43824  -0.43700  -0.43631  -0.43369
 Alpha  occ. eigenvalues --   -0.43309  -0.43106  -0.43057  -0.42929  -0.42707
 Alpha  occ. eigenvalues --   -0.42626  -0.42560  -0.42486  -0.42282  -0.41945
 Alpha  occ. eigenvalues --   -0.41752  -0.41536  -0.41395  -0.41238  -0.41225
 Alpha  occ. eigenvalues --   -0.41147  -0.40992  -0.40680  -0.40429  -0.40234
 Alpha  occ. eigenvalues --   -0.40161  -0.39953  -0.39818  -0.39569  -0.39569
 Alpha  occ. eigenvalues --   -0.39358  -0.39232  -0.39175  -0.39005  -0.38798
 Alpha  occ. eigenvalues --   -0.38777  -0.38613  -0.38555  -0.38516  -0.38130
 Alpha  occ. eigenvalues --   -0.38014  -0.37842  -0.37647  -0.37580  -0.37478
 Alpha  occ. eigenvalues --   -0.37432  -0.37230  -0.37104  -0.36966  -0.36918
 Alpha  occ. eigenvalues --   -0.36818  -0.36661  -0.36450  -0.36316  -0.36241
 Alpha  occ. eigenvalues --   -0.35996  -0.35824  -0.35527  -0.35315  -0.35248
 Alpha  occ. eigenvalues --   -0.35160  -0.34904  -0.34380  -0.34350  -0.34060
 Alpha  occ. eigenvalues --   -0.33877  -0.33378  -0.33089  -0.32952  -0.32637
 Alpha  occ. eigenvalues --   -0.32253  -0.31962  -0.31445  -0.31403  -0.31277
 Alpha  occ. eigenvalues --   -0.30349  -0.30017  -0.29750  -0.29482  -0.29301
 Alpha  occ. eigenvalues --   -0.28629  -0.28497  -0.27766  -0.27577  -0.27184
 Alpha  occ. eigenvalues --   -0.26727  -0.26255  -0.26143  -0.26032  -0.25428
 Alpha  occ. eigenvalues --   -0.25248  -0.25024  -0.24514  -0.21457  -0.20572
 Alpha  occ. eigenvalues --   -0.19184  -0.18175
 Alpha virt. eigenvalues --   -0.11406  -0.10343  -0.06184  -0.05126  -0.04450
 Alpha virt. eigenvalues --   -0.03827  -0.02493  -0.02224  -0.01768   0.00013
 Alpha virt. eigenvalues --    0.00042   0.00050   0.01056   0.01268   0.01765

 Mulliken charges:
               1
     1  Mg  12.000000
     2  C    6.000000
     3  C    6.000000
     4  C    6.000000
     5  C    6.000000
     6  N    7.000000
     7  C    6.000000
     8  C    6.000000
     9  C    6.000000
    10  C    6.000000
    11  C    6.000000
    12  C    6.000000
    13  C    6.000000
    14  H    1.000000
    15  N    7.000000
    16  C    6.000000
    17  C    6.000000
    18  C    6.000000
    19  C    6.000000
    20  C    6.000000
    21  C    6.000000
    22  O    8.000000
    23  C    6.000000
    24  N    7.000000
    25  C    6.000000
    26  C    6.000000
    27  C    6.000000
    28  C    6.000000
    29  C    6.000000
    30  C    6.000000
    31  C    6.000000
    32  N    7.000000
    33  C    6.000000
    34  C    6.000000
    35  C    6.000000
    36  C    6.000000
    37  C    6.000000
    38  C    6.000000
    39  O    8.000000
    40  C    6.000000
    41  C    6.000000
    42  O    8.000000
    43  O    8.000000
    44  C    6.000000
    45  H    1.000000
    46  H    1.000000
    47  H    1.000000
    48  H    1.000000
    49  H    1.000000
    50  H    1.000000
    51  H    1.000000
    52  H    1.000000
    53  H    1.000000
    54  H    1.000000
    55  H    1.000000
    56  H    1.000000
    57  H    1.000000
    58  H    1.000000
    59  H    1.000000
    60  H    1.000000
    61  H    1.000000
    62  H    1.000000
    63  H    1.000000
    64  H    1.000000
    65  H    1.000000
    66  H    1.000000
    67  H    1.000000
    68  H    1.000000
    69  H    1.000000
    70  H    1.000000
    71  H    1.000000
    72  H    1.000000
    73  H    1.000000
    74  H    1.000000
    75  H    1.000000
    76  H    1.000000
    77  H    1.000000
    78  H    1.000000
    79  H    1.000000
    80  Mg  12.000000
    81  C    6.000000
    82  C    6.000000
    83  C    6.000000
    84  C    6.000000
    85  N    7.000000
    86  C    6.000000
    87  C    6.000000
    88  C    6.000000
    89  C    6.000000
    90  C    6.000000
    91  C    6.000000
    92  C    6.000000
    93  H    1.000000
    94  N    7.000000
    95  C    6.000000
    96  C    6.000000
    97  C    6.000000
    98  C    6.000000
    99  C    6.000000
   100  C    6.000000
   101  O    8.000000
   102  C    6.000000
   103  N    7.000000
   104  C    6.000000
   105  C    6.000000
   106  C    6.000000
   107  C    6.000000
   108  C    6.000000
   109  C    6.000000
   110  C    6.000000
   111  N    7.000000
   112  C    6.000000
   113  C    6.000000
   114  C    6.000000
   115  C    6.000000
   116  C    6.000000
   117  C    6.000000
   118  O    8.000000
   119  C    6.000000
   120  C    6.000000
   121  O    8.000000
   122  O    8.000000
   123  C    6.000000
   124  H    1.000000
   125  H    1.000000
   126  H    1.000000
   127  H    1.000000
   128  H    1.000000
   129  H    1.000000
   130  H    1.000000
   131  H    1.000000
   132  H    1.000000
   133  H    1.000000
   134  H    1.000000
   135  H    1.000000
   136  H    1.000000
   137  H    1.000000
   138  H    1.000000
   139  H    1.000000
   140  H    1.000000
   141  H    1.000000
   142  H    1.000000
   143  H    1.000000
   144  H    1.000000
   145  H    1.000000
   146  H    1.000000
   147  H    1.000000
   148  H    1.000000
   149  H    1.000000
   150  H    1.000000
   151  H    1.000000
   152  H    1.000000
   153  H    1.000000
   154  H    1.000000
   155  H    1.000000
   156  H    1.000000
   157  H    1.000000
   158  H    1.000000
 Sum of Mulliken charges = 624.00000

 Dipole moment (field-independent basis, Debye):
    X=              0.0000    Y=             -0.0000    Z=              0.0000  Tot=              0.0000
 Quadrupole moment (field-independent basis, Debye-Ang):
   XX=              0.0000   YY=             -0.0000   ZZ=              0.0000
   XY=              0.0000   XZ=              0.0000   YZ=              0.0000

 Normal termination of Gaussian 16 at Fri Oct 15 06:35:21 2021.
