 Gaussian 16, Revision A.03,
 Gaussian 16:  ES64L-G16RevA.03 25-Dec-2016

 --------------------------------------------------------
 #p PBE1PBE/Def2SVP td=(nstates=5) density=(transition=1)
 --------------------------------------------------------

 --------------------------------
 TDDFT excited states in gaussian
 --------------------------------
 Symbolic Z-matrix:
 Charge =  0 Multiplicity = 1

                         Standard orientation:
 ---------------------------------------------------------------------
 Center     Atomic      Atomic             Coordinates (Angstroms)
 Number     Number       Type             X           Y           Z
 ---------------------------------------------------------------------
      1         12           0       25.560908   -0.913109    0.026711
      2          6           0       26.291379    2.577484   -0.421306
      3          6           0       24.980173   -0.125700    3.434587
      4          6           0       24.943010   -4.280680    0.715174
      5          6           0       26.512192   -1.600747   -3.100991
      6          7           0       25.850788    1.068493    1.386715
      7          6           0       26.030466    2.327013    0.931577
      8          6           0       26.065716    3.332552    2.138156
      9          6           0       25.851164    2.343974    3.339542
     10          6           0       25.451546    0.995069    2.698685
     11          6           0       27.112183    2.250949    4.267845
     12          6           0       24.986865    4.412460    2.059756
     13          6           0       25.419977    5.803494    2.388452
     14          1           0       24.409107    6.948740    2.232081
     15          7           0       24.849711   -2.019328    1.716275
     16          6           0       24.694497   -1.500174    2.997299
     17          6           0       24.202635   -2.559774    3.855383
     18          6           0       24.081304   -3.720784    3.109926
     19          6           0       24.713244   -3.396025    1.786835
     20          6           0       24.012109   -2.439048    5.340049
     21          6           0       23.619589   -5.179223    3.518806
     22          8           0       23.540145   -6.153033    2.810642
     23          6           0       23.048263   -5.394644    4.903518
     24          7           0       25.832685   -2.675293   -0.932931
     25          6           0       25.532360   -3.949300   -0.526602
     26          6           0       26.037165   -5.015937   -1.526256
     27          6           0       26.305191   -4.161076   -2.837265
     28          6           0       26.176336   -2.703096   -2.252161
     29          6           0       27.260480   -5.825909   -0.989597
     30          6           0       25.307194   -4.434101   -4.003492
     31          6           0       23.868975   -3.980280   -3.763946
     32          7           0       26.278631    0.163669   -1.464049
     33          6           0       26.587233   -0.237245   -2.793833
     34          6           0       27.039258    0.906395   -3.583125
     35          6           0       26.884420    2.003065   -2.716268
     36          6           0       26.416731    1.532357   -1.460790
     37          6           0       27.471753    0.873336   -4.975199
     38          6           0       27.063881    3.450672   -2.672388
     39          8           0       27.389536    4.219344   -3.561531
     40          6           0       26.770710    3.893317   -1.139199
     41          6           0       25.721432    4.980418   -1.383989
     42          8           0       24.538026    4.845468   -1.743798
     43          8           0       26.286777    6.162783   -1.213128
     44          6           0       25.408984    7.398750   -1.114206
     45          1           0       24.732268    0.141647    4.463622
     46          1           0       24.780080   -5.354308    0.837571
     47          1           0       26.736739   -1.885585   -4.130704
     48          1           0       27.026972    3.835281    2.037056
     49          1           0       24.996997    2.634567    3.952612
     50          1           0       26.944254    2.460749    5.324197
     51          1           0       27.988531    2.770891    3.880374
     52          1           0       27.521734    1.252455    4.422388
     53          1           0       24.438919    4.223121    2.982968
     54          1           0       24.341505    4.313063    1.186286
     55          1           0       26.332889    6.208257    1.948580
     56          1           0       25.626447    5.746324    3.457248
     57          1           0       24.115225   -1.405995    5.671125
     58          1           0       24.691691   -3.040581    5.945732
     59          1           0       23.025961   -2.716540    5.712715
     60          1           0       22.161287   -4.788019    5.085894
     61          1           0       23.906590   -5.152406    5.530253
     62          1           0       22.936693   -6.477538    4.958532
     63          1           0       25.222380   -5.740003   -1.560838
     64          1           0       27.337808   -4.071272   -3.175239
     65          1           0       27.014757   -6.866136   -0.776102
     66          1           0       27.823115   -5.414424   -0.152341
     67          1           0       27.942129   -5.751386   -1.837081
     68          1           0       25.491382   -5.448088   -4.358740
     69          1           0       25.635532   -3.837768   -4.854605
     70          1           0       23.646400   -3.610724   -2.763612
     71          1           0       23.255732   -4.867931   -3.917214
     72          1           0       23.543558   -3.113580   -4.338152
     73          1           0       27.780060    1.835198   -5.385416
     74          1           0       26.615259    0.484844   -5.526050
     75          1           0       28.278278    0.142556   -5.049974
     76          1           0       27.610136    4.427977   -0.694710
     77          1           0       26.035814    8.168474   -0.663434
     78          1           0       24.570298    7.269860   -0.430706
     79          1           0       24.978480    7.703909   -2.068668
     80         12           0      -26.282249   -0.391586   -0.169590
     81          6           0      -24.088720    2.371837   -0.427123
     82          6           0      -27.056598    0.681680    2.834020
     83          6           0      -27.423055   -3.449696    0.358187
     84          6           0      -24.700514   -1.605200   -3.111295
     85          7           0      -25.701708    1.494932    0.941940
     86          6           0      -24.919822    2.472417    0.660036
     87          6           0      -25.105304    3.631586    1.660743
     88          6           0      -25.696701    2.891140    2.965932
     89          6           0      -26.131902    1.548524    2.244018
     90          6           0      -24.690675    2.653685    4.160801
     91          6           0      -26.188497    4.697771    1.108630
     92          6           0      -26.049531    6.217181    1.448061
     93          1           0      -25.339607    6.563002    2.808675
     94          7           0      -27.313266   -1.208743    1.307635
     95          6           0      -27.584463   -0.534614    2.488800
     96          6           0      -28.399735   -1.440927    3.372078
     97          6           0      -28.532058   -2.667253    2.595881
     98          6           0      -27.763492   -2.561538    1.352669
     99          6           0      -28.838161   -1.003702    4.757008
    100          6           0      -29.329113   -3.897953    2.968476
    101          8           0      -29.377484   -4.936182    2.294278
    102          6           0      -30.142469   -3.868908    4.198554
    103          7           0      -26.169341   -2.302702   -1.321559
    104          6           0      -26.703010   -3.398707   -0.813269
    105          6           0      -26.779674   -4.535723   -1.926720
    106          6           0      -25.827610   -3.878212   -3.066166
    107          6           0      -25.576971   -2.490402   -2.482357
    108          6           0      -26.351652   -5.951659   -1.417300
    109          6           0      -26.379083   -3.797589   -4.527476
    110          6           0      -25.717754   -4.676315   -5.557970
    111          7           0      -24.855206    0.305894   -1.669127
    112          6           0      -24.349434   -0.335371   -2.782393
    113          6           0      -23.332778    0.438260   -3.362976
    114          6           0      -23.172115    1.491267   -2.442566
    115          6           0      -24.071197    1.385764   -1.407854
    116          6           0      -22.572715    0.165993   -4.561883
    117          6           0      -22.441059    2.687793   -2.281149
    118          8           0      -21.606130    3.337715   -2.967208
    119          6           0      -22.821692    3.171311   -0.809975
    120          6           0      -23.002454    4.644713   -0.782477
    121          8           0      -23.844765    5.313481   -1.377780
    122          8           0      -22.073051    5.163962    0.173126
    123          6           0      -22.058203    6.619086    0.370042
    124          1           0      -27.387391    1.148600    3.764540
    125          1           0      -27.859406   -4.436798    0.520647
    126          1           0      -24.277111   -1.950609   -4.057448
    127          1           0      -24.109687    3.934461    1.983916
    128          1           0      -26.452894    3.537923    3.409517
    129          1           0      -23.656547    2.825337    3.862886
    130          1           0      -24.709877    1.618956    4.502504
    131          1           0      -24.983527    3.360149    4.937412
    132          1           0      -27.201944    4.391470    1.368341
    133          1           0      -26.221128    4.609107    0.022551
    134          1           0      -27.001673    6.747454    1.485066
    135          1           0      -25.317855    6.624715    0.749340
    136          1           0      -29.882154   -1.249652    4.954448
    137          1           0      -28.698001    0.062532    4.934914
    138          1           0      -28.139800   -1.396590    5.495535
    139          1           0      -29.525197   -3.663802    5.073657
    140          1           0      -30.653147   -4.823437    4.326121
    141          1           0      -30.955635   -3.143131    4.209236
    142          1           0      -27.768783   -4.616412   -2.377409
    143          1           0      -24.818500   -4.292464   -3.047030
    144          1           0      -25.973783   -5.889512   -0.396625
    145          1           0      -25.665537   -6.250776   -2.209944
    146          1           0      -27.215456   -6.603200   -1.542850
    147          1           0      -26.250546   -2.768750   -4.864461
    148          1           0      -27.451057   -3.995917   -4.521220
    149          1           0      -25.070459   -5.316420   -4.959958
    150          1           0      -25.084690   -4.040543   -6.178026
    151          1           0      -26.417727   -5.310030   -6.101121
    152          1           0      -23.295992   -0.040057   -5.350428
    153          1           0      -22.036593   -0.782858   -4.582864
    154          1           0      -21.979393    1.041518   -4.826213
    155          1           0      -22.012382    2.881344   -0.139112
    156          1           0      -21.256259    6.908386    1.049731
    157          1           0      -22.949427    6.899870    0.931580
    158          1           0      -21.871462    7.107272   -0.585882
 ---------------------------------------------------------------------

 SCF Done:  E(RPBE1PBE) =  -4067.32935079     A.U. after   16 cycles

 Excitation energies and oscillator strengths:

 Excited State   1:      Singlet-A      1.8203 eV  681.13 nm  f=0.3571  <S**2>=0.000
     310 -> 316       -0.17689
     312 -> 314        0.69237
     312 <- 314       -0.10910
 This state for optimization and/or second-order correction.
 Total Energy, E(TD-HF/TD-DFT) =  -4067.26245674
 Copying the excited state density for this state as the 1-particle RhoCI density.

 Excited State   2:      Singlet-A      1.9488 eV  636.20 nm  f=0.3522  <S**2>=0.000
     309 -> 315        0.20435
     311 -> 313        0.68087

 Excited State   3:      Singlet-A      1.9581 eV  633.19 nm  f=0.0000  <S**2>=0.000
     312 -> 313        0.70711

 Excited State   4:      Singlet-A      2.1528 eV  575.91 nm  f=0.0000  <S**2>=0.000
     311 -> 314        0.70711

 Excited State   5:      Singlet-A      2.2125 eV  560.38 nm  f=0.0832  <S**2>=0.000
     309 -> 313        0.64648
     311 -> 315       -0.26573

 The electronic state is 1-A.
 Alpha  occ. eigenvalues --  -46.92792 -46.91700 -19.25565 -19.24621 -19.20408
 Alpha  occ. eigenvalues --  -19.19642 -19.19616 -19.19181 -19.18765 -19.18259
 Alpha  occ. eigenvalues --  -14.41950 -14.41658 -14.41152 -14.41101 -14.39719
 Alpha  occ. eigenvalues --  -14.39665 -14.39403 -14.38301 -10.36298 -10.35501
 Alpha  occ. eigenvalues --  -10.32674 -10.32594 -10.32206 -10.31668 -10.29413
 Alpha  occ. eigenvalues --  -10.29247 -10.29223 -10.29075 -10.28972 -10.28808
 Alpha  occ. eigenvalues --  -10.28668 -10.28666 -10.28404 -10.28400 -10.28347
 Alpha  occ. eigenvalues --  -10.28309 -10.28276 -10.28073 -10.27930 -10.27821
 Alpha  occ. eigenvalues --  -10.27665 -10.26842 -10.26656 -10.26539 -10.26516
 Alpha  occ. eigenvalues --  -10.26491 -10.26401 -10.26295 -10.26289 -10.26224
 Alpha  occ. eigenvalues --  -10.26202 -10.26189 -10.26160 -10.26076 -10.26073
 Alpha  occ. eigenvalues --  -10.25975 -10.25937 -10.25832 -10.25489 -10.25489
 Alpha  occ. eigenvalues --  -10.25428 -10.25412 -10.25160 -10.25128 -10.25105
 Alpha  occ. eigenvalues --  -10.24906 -10.24627 -10.24478 -10.24255 -10.24201
 Alpha  occ. eigenvalues --  -10.23968 -10.23891 -10.23864 -10.23683 -10.23644
 Alpha  occ. eigenvalues --  -10.23630 -10.23560 -10.23456 -10.23355 -10.23302
 Alpha  occ. eigenvalues --  -10.23201 -10.23068 -10.22951 -10.22850 -10.22806
 Alpha  occ. eigenvalues --  -10.22392  -3.14828  -3.13967  -1.87671  -1.87211
 Alpha  occ. eigenvalues --   -1.87037  -1.86794  -1.86359  -1.86196  -1.10723
 Alpha  occ. eigenvalues --   -1.08683  -1.06133  -1.04811  -1.04100  -1.02039
 Alpha  occ. eigenvalues --   -1.01542  -1.00439  -1.00086  -0.99861  -0.98374
 Alpha  occ. eigenvalues --   -0.98231  -0.97725  -0.96850  -0.96363  -0.96088
 Alpha  occ. eigenvalues --   -0.87372  -0.85202  -0.83836  -0.83471  -0.83006
 Alpha  occ. eigenvalues --   -0.82941  -0.82273  -0.82196  -0.81908  -0.81694
 Alpha  occ. eigenvalues --   -0.81645  -0.81224  -0.81120  -0.80742  -0.78595
 Alpha  occ. eigenvalues --   -0.78375  -0.78270  -0.77846  -0.77003  -0.76622
 Alpha  occ. eigenvalues --   -0.76232  -0.75790  -0.75642  -0.75317  -0.75022
 Alpha  occ. eigenvalues --   -0.74483  -0.73279  -0.72409  -0.72053  -0.71598
 Alpha  occ. eigenvalues --   -0.71277  -0.71234  -0.70261  -0.70226  -0.69582
 Alpha  occ. eigenvalues --   -0.69468  -0.67708  -0.67041  -0.66748  -0.66071
 Alpha  occ. eigenvalues --   -0.64393  -0.63411  -0.63150  -0.62951  -0.62315
 Alpha  occ. eigenvalues --   -0.61951  -0.61625  -0.60641  -0.60435  -0.60094
 Alpha  occ. eigenvalues --   -0.60030  -0.59874  -0.59607  -0.59162  -0.59123
 Alpha  occ. eigenvalues --   -0.58637  -0.56383  -0.55831  -0.55080  -0.54731
 Alpha  occ. eigenvalues --   -0.54098  -0.53911  -0.53908  -0.53468  -0.53037
 Alpha  occ. eigenvalues --   -0.52376  -0.52320  -0.51950  -0.51880  -0.51493
 Alpha  occ. eigenvalues --   -0.50629  -0.50345  -0.50262  -0.50006  -0.49981
 Alpha  occ. eigenvalues --   -0.49620  -0.49139  -0.48836  -0.48554  -0.48491
 Alpha  occ. eigenvalues --   -0.48097  -0.47795  -0.47740  -0.47722  -0.47542
 Alpha  occ. eigenvalues --   -0.47515  -0.47247  -0.47079  -0.47026  -0.46945
 Alpha  occ. eigenvalues --   -0.46660  -0.46626  -0.46188  -0.46097  -0.45731
 Alpha  occ. eigenvalues --   -0.45558  -0.45503  -0.45447  -0.45067  -0.44987
 Alpha  occ. eigenvalues --   -0.44703  -0.44483  -0.44374  -0.44240  -0.44191
 Alpha  occ. eigenvalues --   -0.43864  -0.43832  -0.43775  -0.43548  -0.43429
 Alpha  occ. eigenvalues --   -0.43265  -0.43205  -0.43059  -0.43042  -0.42731
 Alpha  occ. eigenvalues --   -0.42654  -0.42473  -0.42308  -0.42226  -0.42139
 Alpha  occ. eigenvalues --   -0.42019  -0.41665  -0.41534  -0.41487  -0.41337
 Alpha  occ. eigenvalues --   -0.41072  -0.41049  -0.40903  -0.40896  -0.40555
 Alpha  occ. eigenvalues --   -0.40308  -0.40284  -0.40150  -0.39888  -0.39736
 Alpha  occ. eigenvalues --   -0.39688  -0.39210  -0.38995  -0.38988  -0.38805
 Alpha  occ. eigenvalues --   -0.38791  -0.38738  -0.38406  -0.38403  -0.38237
 Alpha  occ. eigenvalues --   -0.38142  -0.37925  -0.37861  -0.37790  -0.37757
 Alpha  occ. eigenvalues --   -0.37493  -0.37215  -0.36958  -0.36772  -0.36718
 Alpha  occ. eigenvalues --   -0.36477  -0.36376  -0.36219  -0.35971  -0.35869
 Alpha  occ. eigenvalues --   -0.35718  -0.35650  -0.35521  -0.35273  -0.35253
 Alpha  occ. eigenvalues --   -0.35128  -0.35013  -0.34531  -0.34012  -0.33974
 Alpha  occ. eigenvalues --   -0.33551  -0.33498  -0.33045  -0.32879  -0.32517
 Alpha  occ. eigenvalues --   -0.32442  -0.31711  -0.31562  -0.31068  -0.31043
 Alpha  occ. eigenvalues --   -0.30678  -0.30648  -0.29792  -0.29098  -0.28955
 Alpha  occ. eigenvalues --   -0.28793  -0.28660  -0.27617  -0.27422  -0.26905
 Alpha  occ. eigenvalues --   -0.26070  -0.26048  -0.25949  -0.25832  -0.25670
 Alpha  occ. eigenvalues --   -0.25511  -0.25294  -0.25016  -0.21112  -0.21030
 Alpha  occ. eigenvalues --   -0.19314  -0.18627
 Alpha virt. eigenvalues --   -0.11175  -0.11146  -0.06069  -0.05486  -0.04426
 Alpha virt. eigenvalues --   -0.03583  -0.02147  -0.02046  -0.00546  -0.00033
 Alpha virt. eigenvalues --    0.00613   0.00872   0.01152   0.01370   0.01411

 Mulliken charges:
               1
     1  Mg  12.000221
     2  C    5.983164
     3  C    6.014763
     4  C    6.020945
     5  C    5.999205
     6  N    6.990791
     7  C    6.026131
     8  C    5.995427
     9  C    6.005723
    10  C    5.970008
    11  C    6.001926
    12  C    5.994999
    13  C    5.998378
    14  H    1.000101
    15  N    7.004439
    16  C    5.958476
    17  C    5.984365
    18  C    5.983118
    19  C    5.965809
    20  C    6.005331
    21  C    5.987304
    22  O    7.974695
    23  C    6.003079
    24  N    7.011244
    25  C    5.962729
    26  C    6.006170
    27  C    5.996115
    28  C    6.031222
    29  C    6.004458
    30  C    5.995138
    31  C    5.994512
    32  N    6.997738
    33  C    6.032543
    34  C    6.028577
    35  C    6.002180
    36  C    6.029716
    37  C    5.999458
    38  C    6.015689
    39  O    8.026820
    40  C    6.002010
    41  C    6.003601
    42  O    8.004965
    43  O    8.000285
    44  C    5.998086
    45  H    0.989871
    46  H    0.993741
    47  H    1.011732
    48  H    0.996359
    49  H    1.001290
    50  H    0.997463
    51  H    0.988279
    52  H    1.002347
    53  H    1.008524
    54  H    0.996464
    55  H    0.996750
    56  H    1.005263
    57  H    0.983947
    58  H    0.981452
    59  H    0.982645
    60  H    0.992778
    61  H    0.995268
    62  H    0.986907
    63  H    1.002788
    64  H    0.997832
    65  H    1.000545
    66  H    1.001557
    67  H    0.987866
    68  H    1.009502
    69  H    0.996059
    70  H    1.010267
    71  H    1.007827
    72  H    0.996168
    73  H    1.013455
    74  H    1.017029
    75  H    1.017035
    76  H    1.008461
    77  H    1.004319
    78  H    1.005043
    79  H    1.001509
    80  Mg  11.999998
    81  C    5.999947
    82  C    5.999981
    83  C    6.000037
    84  C    6.000024
    85  N    6.999972
    86  C    6.000015
    87  C    6.000008
    88  C    5.999988
    89  C    6.000038
    90  C    5.999998
    91  C    6.000001
    92  C    5.999996
    93  H    1.000012
    94  N    7.000008
    95  C    6.000032
    96  C    5.999995
    97  C    6.000013
    98  C    5.999988
    99  C    6.000000
   100  C    6.000023
   101  O    8.000019
   102  C    5.999990
   103  N    7.000027
   104  C    5.999991
   105  C    5.999982
   106  C    6.000013
   107  C    5.999959
   108  C    6.000006
   109  C    6.000003
   110  C    5.999996
   111  N    6.999995
   112  C    5.999974
   113  C    5.999991
   114  C    6.000022
   115  C    6.000004
   116  C    5.999996
   117  C    5.999974
   118  O    7.999963
   119  C    6.000012
   120  C    5.999990
   121  O    7.999980
   122  O    8.000008
   123  C    6.000004
   124  H    1.000018
   125  H    1.000004
   126  H    0.999978
   127  H    1.000012
   128  H    1.000000
   129  H    1.000023
   130  H    1.000014
   131  H    1.000007
   132  H    0.999985
   133  H    0.999993
   134  H    0.999984
   135  H    0.999993
   136  H    1.000012
   137  H    1.000013
   138  H    1.000040
   139  H    1.000019
   140  H    1.000019
   141  H    0.999995
   142  H    0.999993
   143  H    1.000013
   144  H    1.000014
   145  H    1.000010
   146  H    0.999995
   147  H    0.999992
   148  H    0.999981
   149  H    1.000013
   150  H    0.999994
   151  H    0.999984
   152  H    0.999963
   153  H    0.999988
   154  H    0.999973
   155  H    1.000015
   156  H    1.000006
   157  H    0.999995
   158  H    0.999982
 Sum of Mulliken charges = 624.00000

 Dipole moment (field-independent basis, Debye):
    X=              2.9304    Y=              5.0841    Z=             -8.3083  Tot=             10.1717
 Quadrupole moment (field-independent basis, Debye-Ang):
   XX=            149.7932   YY=             -7.0744   ZZ=             -2.5969
   XY=            126.5153   XZ=           -212.3746   YZ=              9.1745

 Normal termination of Gaussian 16 at Thu Oct 14 14:13:57 2021.
