 Gaussian 16, Revision A.03,
 Gaussian 16:  ES64L-G16RevA.03 25-Dec-2016

 --------------------------------------------------------
 #p PBE1PBE/Def2SVP td=(nstates=5) density=(transition=1)
 --------------------------------------------------------

 --------------------------------
 TDDFT excited states in gaussian
 --------------------------------
 Symbolic Z-matrix:
 Charge =  0 Multiplicity = 1

                         Standard orientation:
 ---------------------------------------------------------------------
 Center     Atomic      Atomic             Coordinates (Angstroms)
 Number     Number       Type             X           Y           Z
 ---------------------------------------------------------------------
      1         12           0      -28.236586    0.054789   -0.432781
      2          6           0      -24.894232   -0.548286   -0.251740
      3          6           0      -28.809551   -3.363454    0.271359
      4          6           0      -31.359505    0.855141    0.439574
      5          6           0      -27.564603    3.599098   -0.602890
      6          7           0      -26.981490   -1.685538   -0.075623
      7          6           0      -25.692998   -1.763374   -0.026106
      8          6           0      -25.160000   -3.240078   -0.006414
      9          6           0      -26.453399   -4.131641   -0.134502
     10          6           0      -27.544228   -3.012971   -0.008287
     11          6           0      -26.496723   -5.101331   -1.316306
     12          6           0      -24.214423   -3.540750    1.302170
     13          6           0      -24.375727   -2.666640    2.535325
     14          1           0      -23.873760   -3.144293    3.897950
     15          7           0      -29.850855   -1.107477    0.268350
     16          6           0      -29.922816   -2.470764    0.425385
     17          6           0      -31.185653   -2.822477    0.912140
     18          6           0      -31.968691   -1.608986    1.020486
     19          6           0      -31.047954   -0.519403    0.601797
     20          6           0      -31.586228   -4.279116    1.057579
     21          6           0      -33.430967   -1.563310    1.499530
     22          8           0      -33.974054   -2.645233    1.817173
     23          6           0      -34.236114   -0.382264    1.619169
     24          7           0      -29.308090    2.027674    0.039466
     25          6           0      -30.603655    1.985083    0.169640
     26          6           0      -31.266835    3.390906    0.118348
     27          6           0      -30.062117    4.276033   -0.269187
     28          6           0      -28.836233    3.276997   -0.317982
     29          6           0      -32.374346    3.516055   -0.864742
     30          6           0      -29.849156    5.508428    0.730468
     31          6           0      -30.143175    6.947277    0.136857
     32          7           0      -26.621530    1.330755   -0.547903
     33          6           0      -26.460077    2.718301   -0.648125
     34          6           0      -24.999548    3.021209   -0.764220
     35          6           0      -24.392778    1.772470   -0.568302
     36          6           0      -25.401179    0.776460   -0.407109
     37          6           0      -24.339872    4.298621   -0.956999
     38          6           0      -23.130276    1.204021   -0.437098
     39          8           0      -21.976119    1.651149   -0.508056
     40          6           0      -23.381696   -0.326287   -0.321197
     41          6           0      -22.609670   -1.028392   -1.463522
     42          8           0      -21.803813   -1.938071   -1.365422
     43          8           0      -22.928535   -0.512389   -2.701005
     44          6           0      -22.233757   -1.067269   -3.868756
     45          1           0      -28.882094   -4.419903    0.537427
     46          1           0      -32.400859    1.161828    0.556066
     47          1           0      -27.384502    4.652747   -0.825651
     48          1           0      -24.648563   -3.389317   -0.957714
     49          1           0      -26.625191   -4.736852    0.756158
     50          1           0      -27.291008   -4.807415   -2.002197
     51          1           0      -26.712710   -6.123510   -1.003351
     52          1           0      -25.564234   -5.215506   -1.869126
     53          1           0      -23.220479   -3.500471    0.855951
     54          1           0      -24.355745   -4.518535    1.763177
     55          1           0      -25.453060   -2.509752    2.581812
     56          1           0      -23.932616   -1.708454    2.263375
     57          1           0      -32.469930   -4.653405    0.540129
     58          1           0      -31.638699   -4.519773    2.119643
     59          1           0      -30.771913   -4.906111    0.694954
     60          1           0      -34.436364    0.191341    0.714369
     61          1           0      -33.714524    0.373659    2.205355
     62          1           0      -35.161827   -0.537703    2.172364
     63          1           0      -31.738340    3.779494    1.020906
     64          1           0      -30.105341    4.635836   -1.297253
     65          1           0      -33.375121    3.529037   -0.433305
     66          1           0      -32.453305    2.613268   -1.471474
     67          1           0      -32.237030    4.409179   -1.474092
     68          1           0      -28.790975    5.548235    0.992405
     69          1           0      -30.495948    5.494725    1.606679
     70          1           0      -30.744656    7.517784    0.843447
     71          1           0      -30.792528    6.823849   -0.729960
     72          1           0      -29.164037    7.419387    0.054137
     73          1           0      -25.050139    4.881755   -1.543620
     74          1           0      -23.416770    4.173193   -1.524041
     75          1           0      -24.078236    4.658514    0.037610
     76          1           0      -22.827103   -0.792171    0.493020
     77          1           0      -22.245676   -0.318765   -4.661259
     78          1           0      -22.655929   -1.950834   -4.347212
     79          1           0      -21.220543   -1.409839   -3.656606
     80         12           0       27.695194    0.744717   -0.427085
     81          6           0       26.842160   -2.616113    0.411274
     82          6           0       25.418275    1.662789    1.805575
     83          6           0       29.077422    3.828263   -0.375209
     84          6           0       30.607480   -0.644684   -1.939814
     85          7           0       26.263841   -0.309654    0.810322
     86          6           0       26.004295   -1.690053    0.952265
     87          6           0       24.844886   -1.996817    1.951774
     88          6           0       24.384969   -0.560394    2.330150
     89          6           0       25.350469    0.345382    1.536840
     90          6           0       22.888924   -0.450976    1.991632
     91          6           0       25.187299   -2.875146    3.231670
     92          6           0       24.529381   -4.247473    3.317611
     93          1           0       23.691787   -4.555907    4.575456
     94          7           0       27.280194    2.503233    0.468232
     95          6           0       26.256533    2.674624    1.399900
     96          6           0       26.124766    4.032478    1.744165
     97          6           0       27.065751    4.749242    1.028204
     98          6           0       27.866591    3.751443    0.348189
     99          6           0       25.091647    4.706387    2.721609
    100          6           0       27.164017    6.256033    1.075308
    101          8           0       26.378079    6.963861    1.631578
    102          6           0       28.342570    6.899137    0.191501
    103          7           0       29.601344    1.492177   -0.996309
    104          6           0       29.897031    2.824797   -0.902742
    105          6           0       31.413796    2.991307   -1.325827
    106          6           0       31.871487    1.654424   -1.932527
    107          6           0       30.626288    0.748860   -1.594847
    108          6           0       31.713182    4.219634   -2.137349
    109          6           0       33.088389    1.141805   -1.172380
    110          6           0       33.990610    0.170986   -1.886864
    111          7           0       28.457139   -1.234287   -0.942042
    112          6           0       29.619454   -1.615423   -1.568918
    113          6           0       29.654162   -3.024315   -1.723590
    114          6           0       28.535821   -3.535351   -1.023325
    115          6           0       27.919469   -2.377277   -0.470739
    116          6           0       30.724850   -3.836633   -2.333936
    117          6           0       27.762569   -4.696633   -0.562981
    118          8           0       27.934550   -5.893585   -0.829906
    119          6           0       26.608130   -4.165689    0.370838
    120          6           0       25.342985   -4.361382   -0.285500
    121          8           0       24.985551   -3.626325   -1.236240
    122          8           0       24.757188   -5.433072    0.283850
    123          6           0       23.345721   -5.745749   -0.071130
    124          1           0       24.651466    2.002786    2.505258
    125          1           0       29.459178    4.851297   -0.393876
    126          1           0       31.414968   -1.121612   -2.498657
    127          1           0       24.034680   -2.505349    1.429313
    128          1           0       24.529486   -0.320163    3.383043
    129          1           0       22.617759    0.598351    2.104093
    130          1           0       22.215263   -1.041030    2.612871
    131          1           0       22.672614   -0.749529    0.965260
    132          1           0       24.727547   -2.325579    4.053101
    133          1           0       26.267340   -2.935756    3.366042
    134          1           0       25.319955   -4.991512    3.214299
    135          1           0       23.832869   -4.362244    2.486320
    136          1           0       25.690165    5.283099    3.427086
    137          1           0       24.503203    3.967934    3.265926
    138          1           0       24.305022    5.295484    2.250208
    139          1           0       28.194247    7.977156    0.247010
    140          1           0       28.172905    6.463190   -0.793299
    141          1           0       29.231550    6.520157    0.695584
    142          1           0       31.920379    3.139363   -0.371470
    143          1           0       32.112089    1.652774   -2.995595
    144          1           0       32.561061    4.001861   -2.786220
    145          1           0       31.943141    5.003833   -1.415791
    146          1           0       30.858665    4.620213   -2.681480
    147          1           0       32.834753    0.690620   -0.212671
    148          1           0       33.726725    1.953358   -0.823141
    149          1           0       33.771895    0.092748   -2.951670
    150          1           0       33.853390   -0.808376   -1.428021
    151          1           0       35.036660    0.380066   -1.663103
    152          1           0       31.262857   -3.282017   -3.103388
    153          1           0       30.221648   -4.700657   -2.768606
    154          1           0       31.412941   -4.065350   -1.519783
    155          1           0       26.638535   -4.541414    1.393593
    156          1           0       23.372968   -6.834669   -0.009979
    157          1           0       23.036607   -5.361328   -1.042678
    158          1           0       22.664323   -5.496680    0.743056
 ---------------------------------------------------------------------

 SCF Done:  E(RPBE1PBE) =  -4067.34366150     A.U. after   19 cycles

 Excitation energies and oscillator strengths:

 Excited State   1:      Singlet-A      1.8173 eV  682.24 nm  f=0.0000  <S**2>=0.000
     312 -> 313        0.70711
 This state for optimization and/or second-order correction.
 Total Energy, E(TD-HF/TD-DFT) =  -4067.27687625
 Copying the excited state density for this state as the 1-particle RhoCI density.

 Excited State   2:      Singlet-A      1.8537 eV  668.86 nm  f=0.4192  <S**2>=0.000
     309 -> 315       -0.15880
     311 -> 313        0.69706
     311 <- 313       -0.12237

 Excited State   3:      Singlet-A      1.8689 eV  663.41 nm  f=0.3684  <S**2>=0.000
     310 -> 316        0.16688
     312 -> 314        0.69414
     312 <- 314       -0.10954

 Excited State   4:      Singlet-A      2.1410 eV  579.10 nm  f=0.0000  <S**2>=0.000
     311 -> 314        0.70711

 Excited State   5:      Singlet-A      2.2475 eV  551.65 nm  f=0.1097  <S**2>=0.000
     309 -> 313        0.65200
     311 -> 315        0.24628

 The electronic state is 1-A.
 Alpha  occ. eigenvalues --  -46.93718 -46.91932 -19.27150 -19.25487 -19.20316
 Alpha  occ. eigenvalues --  -19.19924 -19.19719 -19.19133 -19.19023 -19.17868
 Alpha  occ. eigenvalues --  -14.42704 -14.41959 -14.41766 -14.41410 -14.40117
 Alpha  occ. eigenvalues --  -14.39608 -14.39086 -14.38236 -10.36739 -10.36500
 Alpha  occ. eigenvalues --  -10.32693 -10.32498 -10.31654 -10.31597 -10.30555
 Alpha  occ. eigenvalues --  -10.30057 -10.29472 -10.29263 -10.29237 -10.28871
 Alpha  occ. eigenvalues --  -10.28691 -10.28690 -10.28599 -10.28577 -10.28492
 Alpha  occ. eigenvalues --  -10.28435 -10.27964 -10.27842 -10.27136 -10.27076
 Alpha  occ. eigenvalues --  -10.27050 -10.27029 -10.26975 -10.26674 -10.26510
 Alpha  occ. eigenvalues --  -10.26334 -10.26308 -10.26167 -10.26165 -10.25921
 Alpha  occ. eigenvalues --  -10.25858 -10.25854 -10.25657 -10.25636 -10.25619
 Alpha  occ. eigenvalues --  -10.25554 -10.25386 -10.25067 -10.25064 -10.25050
 Alpha  occ. eigenvalues --  -10.25030 -10.25022 -10.24816 -10.24814 -10.24803
 Alpha  occ. eigenvalues --  -10.24768 -10.24718 -10.24535 -10.24401 -10.24338
 Alpha  occ. eigenvalues --  -10.24131 -10.23937 -10.23832 -10.23588 -10.23580
 Alpha  occ. eigenvalues --  -10.23546 -10.23530 -10.23433 -10.23429 -10.23258
 Alpha  occ. eigenvalues --  -10.23088 -10.23084 -10.23027 -10.22824 -10.22644
 Alpha  occ. eigenvalues --  -10.22570  -3.15707  -3.14104  -1.88523  -1.88114
 Alpha  occ. eigenvalues --   -1.87895  -1.86920  -1.86458  -1.86353  -1.11412
 Alpha  occ. eigenvalues --   -1.10858  -1.06596  -1.03603  -1.03539  -1.02533
 Alpha  occ. eigenvalues --   -1.02189  -1.02148  -0.99604  -0.99122  -0.98670
 Alpha  occ. eigenvalues --   -0.98207  -0.97862  -0.97474  -0.97131  -0.96370
 Alpha  occ. eigenvalues --   -0.87243  -0.86621  -0.84036  -0.83963  -0.83738
 Alpha  occ. eigenvalues --   -0.83557  -0.83335  -0.82966  -0.82460  -0.82100
 Alpha  occ. eigenvalues --   -0.81636  -0.81016  -0.80823  -0.79762  -0.79041
 Alpha  occ. eigenvalues --   -0.79013  -0.78566  -0.78432  -0.77523  -0.77230
 Alpha  occ. eigenvalues --   -0.76827  -0.76149  -0.75692  -0.75491  -0.74566
 Alpha  occ. eigenvalues --   -0.74506  -0.72856  -0.72083  -0.71714  -0.71643
 Alpha  occ. eigenvalues --   -0.71264  -0.70900  -0.70656  -0.70560  -0.69720
 Alpha  occ. eigenvalues --   -0.69430  -0.67850  -0.67254  -0.66440  -0.66162
 Alpha  occ. eigenvalues --   -0.63984  -0.63536  -0.63279  -0.63022  -0.62763
 Alpha  occ. eigenvalues --   -0.62214  -0.61613  -0.61385  -0.60424  -0.60155
 Alpha  occ. eigenvalues --   -0.60063  -0.59992  -0.59509  -0.59372  -0.59143
 Alpha  occ. eigenvalues --   -0.59118  -0.57842  -0.56841  -0.55411  -0.54640
 Alpha  occ. eigenvalues --   -0.54590  -0.54217  -0.53897  -0.53591  -0.53173
 Alpha  occ. eigenvalues --   -0.53020  -0.52816  -0.52673  -0.51817  -0.51700
 Alpha  occ. eigenvalues --   -0.51028  -0.50930  -0.50554  -0.50267  -0.49991
 Alpha  occ. eigenvalues --   -0.49570  -0.49297  -0.49274  -0.48971  -0.48884
 Alpha  occ. eigenvalues --   -0.48427  -0.48425  -0.48054  -0.47777  -0.47747
 Alpha  occ. eigenvalues --   -0.47501  -0.47435  -0.47129  -0.46925  -0.46740
 Alpha  occ. eigenvalues --   -0.46736  -0.46242  -0.46108  -0.46096  -0.45833
 Alpha  occ. eigenvalues --   -0.45723  -0.45557  -0.45315  -0.45175  -0.45035
 Alpha  occ. eigenvalues --   -0.44854  -0.44805  -0.44515  -0.44478  -0.44345
 Alpha  occ. eigenvalues --   -0.44196  -0.43883  -0.43747  -0.43674  -0.43562
 Alpha  occ. eigenvalues --   -0.43437  -0.43285  -0.43060  -0.43024  -0.42935
 Alpha  occ. eigenvalues --   -0.42683  -0.42399  -0.42199  -0.42110  -0.41991
 Alpha  occ. eigenvalues --   -0.41910  -0.41655  -0.41560  -0.41381  -0.41110
 Alpha  occ. eigenvalues --   -0.41011  -0.40996  -0.40770  -0.40683  -0.40501
 Alpha  occ. eigenvalues --   -0.40305  -0.40077  -0.40034  -0.39895  -0.39843
 Alpha  occ. eigenvalues --   -0.39593  -0.39557  -0.39490  -0.39333  -0.39158
 Alpha  occ. eigenvalues --   -0.39091  -0.38874  -0.38571  -0.38507  -0.38380
 Alpha  occ. eigenvalues --   -0.38306  -0.38111  -0.37891  -0.37654  -0.37617
 Alpha  occ. eigenvalues --   -0.37484  -0.37363  -0.37203  -0.37153  -0.36858
 Alpha  occ. eigenvalues --   -0.36805  -0.36754  -0.36579  -0.36514  -0.36365
 Alpha  occ. eigenvalues --   -0.35835  -0.35714  -0.35579  -0.35520  -0.35185
 Alpha  occ. eigenvalues --   -0.35084  -0.35000  -0.34756  -0.34068  -0.34026
 Alpha  occ. eigenvalues --   -0.33603  -0.33375  -0.33161  -0.33049  -0.32893
 Alpha  occ. eigenvalues --   -0.32609  -0.32193  -0.31850  -0.31758  -0.31587
 Alpha  occ. eigenvalues --   -0.31312  -0.31053  -0.29791  -0.29640  -0.29409
 Alpha  occ. eigenvalues --   -0.29303  -0.29097  -0.28574  -0.27379  -0.27156
 Alpha  occ. eigenvalues --   -0.26395  -0.26140  -0.25867  -0.25765  -0.25507
 Alpha  occ. eigenvalues --   -0.25059  -0.24847  -0.24740  -0.21814  -0.21160
 Alpha  occ. eigenvalues --   -0.19328  -0.18864
 Alpha virt. eigenvalues --   -0.11948  -0.11225  -0.05440  -0.05239  -0.04202
 Alpha virt. eigenvalues --   -0.03704  -0.02372  -0.02050  -0.01670  -0.00508
 Alpha virt. eigenvalues --    0.00017   0.00474   0.00572   0.00831   0.01401

 Mulliken charges:
               1
     1  Mg  12.000000
     2  C    6.000000
     3  C    6.000000
     4  C    6.000000
     5  C    6.000000
     6  N    7.000000
     7  C    6.000000
     8  C    6.000000
     9  C    6.000000
    10  C    6.000000
    11  C    6.000000
    12  C    6.000000
    13  C    6.000000
    14  H    1.000000
    15  N    7.000000
    16  C    6.000000
    17  C    6.000000
    18  C    6.000000
    19  C    6.000000
    20  C    6.000000
    21  C    6.000000
    22  O    8.000000
    23  C    6.000000
    24  N    7.000000
    25  C    6.000000
    26  C    6.000000
    27  C    6.000000
    28  C    6.000000
    29  C    6.000000
    30  C    6.000000
    31  C    6.000000
    32  N    7.000000
    33  C    6.000000
    34  C    6.000000
    35  C    6.000000
    36  C    6.000000
    37  C    6.000000
    38  C    6.000000
    39  O    8.000000
    40  C    6.000000
    41  C    6.000000
    42  O    8.000000
    43  O    8.000000
    44  C    6.000000
    45  H    1.000000
    46  H    1.000000
    47  H    1.000000
    48  H    1.000000
    49  H    1.000000
    50  H    1.000000
    51  H    1.000000
    52  H    1.000000
    53  H    1.000000
    54  H    1.000000
    55  H    1.000000
    56  H    1.000000
    57  H    1.000000
    58  H    1.000000
    59  H    1.000000
    60  H    1.000000
    61  H    1.000000
    62  H    1.000000
    63  H    1.000000
    64  H    1.000000
    65  H    1.000000
    66  H    1.000000
    67  H    1.000000
    68  H    1.000000
    69  H    1.000000
    70  H    1.000000
    71  H    1.000000
    72  H    1.000000
    73  H    1.000000
    74  H    1.000000
    75  H    1.000000
    76  H    1.000000
    77  H    1.000000
    78  H    1.000000
    79  H    1.000000
    80  Mg  12.000000
    81  C    6.000000
    82  C    6.000000
    83  C    6.000000
    84  C    6.000000
    85  N    7.000000
    86  C    6.000000
    87  C    6.000000
    88  C    6.000000
    89  C    6.000000
    90  C    6.000000
    91  C    6.000000
    92  C    6.000000
    93  H    1.000000
    94  N    7.000000
    95  C    6.000000
    96  C    6.000000
    97  C    6.000000
    98  C    6.000000
    99  C    6.000000
   100  C    6.000000
   101  O    8.000000
   102  C    6.000000
   103  N    7.000000
   104  C    6.000000
   105  C    6.000000
   106  C    6.000000
   107  C    6.000000
   108  C    6.000000
   109  C    6.000000
   110  C    6.000000
   111  N    7.000000
   112  C    6.000000
   113  C    6.000000
   114  C    6.000000
   115  C    6.000000
   116  C    6.000000
   117  C    6.000000
   118  O    8.000000
   119  C    6.000000
   120  C    6.000000
   121  O    8.000000
   122  O    8.000000
   123  C    6.000000
   124  H    1.000000
   125  H    1.000000
   126  H    1.000000
   127  H    1.000000
   128  H    1.000000
   129  H    1.000000
   130  H    1.000000
   131  H    1.000000
   132  H    1.000000
   133  H    1.000000
   134  H    1.000000
   135  H    1.000000
   136  H    1.000000
   137  H    1.000000
   138  H    1.000000
   139  H    1.000000
   140  H    1.000000
   141  H    1.000000
   142  H    1.000000
   143  H    1.000000
   144  H    1.000000
   145  H    1.000000
   146  H    1.000000
   147  H    1.000000
   148  H    1.000000
   149  H    1.000000
   150  H    1.000000
   151  H    1.000000
   152  H    1.000000
   153  H    1.000000
   154  H    1.000000
   155  H    1.000000
   156  H    1.000000
   157  H    1.000000
   158  H    1.000000
 Sum of Mulliken charges = 624.00000

 Dipole moment (field-independent basis, Debye):
    X=             -0.0000    Y=              0.0000    Z=              0.0000  Tot=              0.0000
 Quadrupole moment (field-independent basis, Debye-Ang):
   XX=              0.0000   YY=              0.0000   ZZ=             -0.0000
   XY=              0.0000   XZ=              0.0000   YZ=              0.0000

 Normal termination of Gaussian 16 at Thu Oct 14 05:56:11 2021.
