 Gaussian 16, Revision A.03,
 Gaussian 16:  ES64L-G16RevA.03 25-Dec-2016

 --------------------------------------------------------
 #p PBE1PBE/Def2SVP td=(nstates=5) density=(transition=1)
 --------------------------------------------------------

 --------------------------------
 TDDFT excited states in gaussian
 --------------------------------
 Symbolic Z-matrix:
 Charge =  0 Multiplicity = 1

                         Standard orientation:
 ---------------------------------------------------------------------
 Center     Atomic      Atomic             Coordinates (Angstroms)
 Number     Number       Type             X           Y           Z
 ---------------------------------------------------------------------
      1         12           0      -17.280986    0.662727   -0.053049
      2          6           0      -15.950883   -2.186064   -1.464166
      3          6           0      -14.757279    2.420343   -1.552627
      4          6           0      -18.401333    3.412439    1.555775
      5          6           0      -19.423721   -1.286435    1.870121
      6          7           0      -15.460915    0.057646   -1.270480
      7          6           0      -15.251832   -1.055709   -1.860586
      8          6           0      -14.018810   -1.100346   -2.902721
      9          6           0      -13.474835    0.362775   -2.659861
     10          6           0      -14.576512    1.012456   -1.695240
     11          6           0      -12.046350    0.447090   -1.905269
     12          6           0      -14.411853   -1.399451   -4.414131
     13          6           0      -13.370462   -2.169327   -5.301494
     14          1           0      -11.993696   -2.333313   -4.732065
     15          7           0      -16.738891    2.603556   -0.056067
     16          6           0      -15.673789    3.208123   -0.832747
     17          6           0      -15.716251    4.645783   -0.586543
     18          6           0      -16.693340    4.935957    0.398113
     19          6           0      -17.359874    3.637099    0.643715
     20          6           0      -14.793304    5.494660   -1.384556
     21          6           0      -17.136754    6.276770    1.028882
     22          8           0      -17.909710    6.401420    1.931777
     23          6           0      -16.360765    7.514503    0.534993
     24          7           0      -18.640133    1.069710    1.586607
     25          6           0      -18.938907    2.233268    2.071521
     26          6           0      -19.808188    2.116241    3.355613
     27          6           0      -20.224927    0.626189    3.385581
     28          6           0      -19.404100    0.068254    2.199111
     29          6           0      -19.020783    2.572987    4.602157
     30          6           0      -21.768877    0.434916    3.276941
     31          6           0      -22.563566    0.845671    4.527112
     32          7           0      -17.655433   -1.351471    0.190837
     33          6           0      -18.635032   -1.976212    0.942054
     34          6           0      -18.552794   -3.380176    0.636206
     35          6           0      -17.482307   -3.578076   -0.286511
     36          6           0      -17.021964   -2.253626   -0.520416
     37          6           0      -19.360934   -4.387692    1.218678
     38          6           0      -16.755947   -4.484980   -1.117023
     39          8           0      -16.838571   -5.748525   -1.163990
     40          6           0      -15.652814   -3.603707   -1.821500
     41          6           0      -14.363539   -4.129397   -1.426269
     42          8           0      -13.799457   -3.863312   -0.365251
     43          8           0      -14.003053   -5.062448   -2.364880
     44          6           0      -12.833004   -5.869967   -1.959888
     45          1           0      -13.948945    3.003856   -1.997201
     46          1           0      -18.726153    4.347314    2.018716
     47          1           0      -20.164881   -1.845996    2.445405
     48          1           0      -13.340696   -1.830046   -2.459495
     49          1           0      -13.355256    0.880282   -3.611488
     50          1           0      -11.880802   -0.501444   -1.393621
     51          1           0      -12.062115    1.260602   -1.180141
     52          1           0      -11.177241    0.640499   -2.534879
     53          1           0      -14.542221   -0.406369   -4.843300
     54          1           0      -15.427629   -1.755797   -4.588780
     55          1           0      -13.234406   -1.738325   -6.293301
     56          1           0      -13.704093   -3.199770   -5.424224
     57          1           0      -13.810175    5.539931   -0.915165
     58          1           0      -15.227954    6.456041   -1.658648
     59          1           0      -14.675791    5.006017   -2.351488
     60          1           0      -16.626146    7.846825   -0.469103
     61          1           0      -15.332301    7.161487    0.603704
     62          1           0      -16.403617    8.391009    1.180837
     63          1           0      -20.658007    2.756476    3.120161
     64          1           0      -19.835867    0.156919    4.289165
     65          1           0      -17.935089    2.509286    4.526059
     66          1           0      -19.161670    2.016807    5.529529
     67          1           0      -19.312237    3.611383    4.759659
     68          1           0      -21.980319   -0.623182    3.128936
     69          1           0      -22.147101    0.978315    2.410390
     70          1           0      -21.861577    1.295258    5.229396
     71          1           0      -22.845155   -0.053899    5.074658
     72          1           0      -23.474351    1.431473    4.405332
     73          1           0      -20.368228   -3.971397    1.201159
     74          1           0      -19.147366   -4.638381    2.257609
     75          1           0      -19.199593   -5.318060    0.673199
     76          1           0      -15.813902   -3.815159   -2.878916
     77          1           0      -13.158180   -6.462746   -1.104454
     78          1           0      -11.944918   -5.255912   -1.814136
     79          1           0      -12.613937   -6.553317   -2.780489
     80         12           0       17.066832    0.343012   -0.008729
     81          6           0       15.302912   -2.504955    0.773279
     82          6           0       14.660773    1.352089   -2.226848
     83          6           0       18.788266    3.327823   -0.640377
     84          6           0       19.083755   -0.121771    2.755725
     85          7           0       15.095130   -0.447392   -0.443398
     86          6           0       14.604409   -1.726915   -0.169346
     87          6           0       13.222426   -1.941559   -0.791700
     88          6           0       13.224359   -0.780998   -1.818886
     89          6           0       14.364093    0.187210   -1.441122
     90          6           0       13.226493   -1.268596   -3.284263
     91          6           0       12.091723   -1.852512    0.252303
     92          6           0       10.938495   -2.908315    0.137912
     93          1           0        9.599327   -2.462617    0.579396
     94          7           0       16.784716    2.022059   -1.275185
     95          6           0       15.790089    2.209697   -2.172588
     96          6           0       16.040935    3.301766   -3.064704
     97          6           0       17.300993    3.818664   -2.721360
     98          6           0       17.711582    3.023981   -1.490577
     99          6           0       15.151003    3.668372   -4.254093
    100          6           0       18.062361    5.003749   -3.418599
    101          8           0       17.476575    5.632053   -4.337179
    102          6           0       19.564722    5.403422   -3.088748
    103          7           0       18.516965    1.600257    1.106277
    104          6           0       19.144133    2.668976    0.557450
    105          6           0       20.355292    3.105695    1.340978
    106          6           0       20.446304    2.048981    2.462964
    107          6           0       19.316451    1.088921    2.082040
    108          6           0       21.655023    3.286475    0.488652
    109          6           0       20.394241    2.681678    3.934580
    110          6           0       21.741135    2.711350    4.666241
    111          7           0       17.240254   -1.041246    1.448133
    112          6           0       18.135444   -1.158362    2.534171
    113          6           0       17.994315   -2.490719    3.136210
    114          6           0       16.950261   -3.053420    2.415336
    115          6           0       16.475621   -2.084594    1.515903
    116          6           0       18.735697   -3.117866    4.262123
    117          6           0       16.118249   -4.259553    2.299195
    118          8           0       16.251708   -5.404255    2.762332
    119          6           0       15.031990   -3.968762    1.187452
    120          6           0       15.162953   -4.934489    0.017355
    121          8           0       16.197003   -5.281957   -0.561776
    122          8           0       13.885474   -5.366886   -0.181560
    123          6           0       13.707686   -6.448080   -1.136310
    124          1           0       13.903600    1.681723   -2.941202
    125          1           0       19.455571    4.179022   -0.791139
    126          1           0       19.693684   -0.334673    3.635936
    127          1           0       13.175976   -2.932473   -1.244619
    128          1           0       12.267693   -0.290054   -1.640642
    129          1           0       12.886448   -2.278146   -3.514985
    130          1           0       14.272658   -1.264471   -3.589871
    131          1           0       12.642689   -0.618606   -3.935599
    132          1           0       11.656519   -0.855909    0.321175
    133          1           0       12.598504   -1.900515    1.216435
    134          1           0       11.210742   -3.792307    0.714512
    135          1           0       10.810689   -3.165220   -0.914570
    136          1           0       15.800831    3.626763   -5.127924
    137          1           0       14.589586    4.574792   -4.027235
    138          1           0       14.465955    2.825728   -4.347269
    139          1           0       19.516546    6.067193   -2.226302
    140          1           0       19.929570    5.949925   -3.958103
    141          1           0       20.129915    4.471228   -3.068595
    142          1           0       20.139519    4.082926    1.773098
    143          1           0       21.288277    1.359021    2.412056
    144          1           0       22.517450    2.826038    0.969859
    145          1           0       21.897000    4.333949    0.309727
    146          1           0       21.481229    2.891049   -0.511265
    147          1           0       19.751427    2.115805    4.608754
    148          1           0       19.939815    3.671730    3.898893
    149          1           0       21.832831    3.640727    5.228613
    150          1           0       22.553842    2.650638    3.942738
    151          1           0       21.885136    1.884622    5.361617
    152          1           0       19.538428   -2.436032    4.542954
    153          1           0       18.952436   -4.160708    4.029748
    154          1           0       18.060642   -3.083466    5.117908
    155          1           0       14.016142   -3.991032    1.582885
    156          1           0       14.275282   -6.321143   -2.059044
    157          1           0       12.685972   -6.684516   -1.433399
    158          1           0       14.036602   -7.387520   -0.691313
 ---------------------------------------------------------------------

 SCF Done:  E(RPBE1PBE) =  -4067.40799061     A.U. after   17 cycles

 Excitation energies and oscillator strengths:

 Excited State   1:      Singlet-A      1.8385 eV  674.38 nm  f=0.3468  <S**2>=0.000
     309 -> 315        0.16806
     312 -> 313        0.69268
     312 <- 313       -0.10468
 This state for optimization and/or second-order correction.
 Total Energy, E(TD-HF/TD-DFT) =  -4067.34042752
 Copying the excited state density for this state as the 1-particle RhoCI density.

 Excited State   2:      Singlet-A      1.9096 eV  649.28 nm  f=0.3745  <S**2>=0.000
     310 -> 316        0.19445
     311 -> 314        0.68529

 Excited State   3:      Singlet-A      1.9889 eV  623.39 nm  f=0.0000  <S**2>=0.000
     311 -> 313        0.70710

 Excited State   4:      Singlet-A      2.0214 eV  613.35 nm  f=0.0000  <S**2>=0.000
     312 -> 314        0.70711

 Excited State   5:      Singlet-A      2.2083 eV  561.44 nm  f=0.1064  <S**2>=0.000
     310 -> 314        0.65634
     311 -> 316       -0.25139

 The electronic state is 1-A.
 Alpha  occ. eigenvalues --  -46.92595 -46.91818 -19.27091 -19.25466 -19.20593
 Alpha  occ. eigenvalues --  -19.20195 -19.19717 -19.19548 -19.18925 -19.18672
 Alpha  occ. eigenvalues --  -14.42015 -14.41656 -14.41606 -14.41081 -14.39738
 Alpha  occ. eigenvalues --  -14.39330 -14.38902 -14.38669 -10.37064 -10.35552
 Alpha  occ. eigenvalues --  -10.33717 -10.33248 -10.32130 -10.32053 -10.29737
 Alpha  occ. eigenvalues --  -10.29462 -10.29317 -10.29030 -10.29026 -10.28743
 Alpha  occ. eigenvalues --  -10.28495 -10.28493 -10.28401 -10.28206 -10.28179
 Alpha  occ. eigenvalues --  -10.28125 -10.27989 -10.27820 -10.27737 -10.26892
 Alpha  occ. eigenvalues --  -10.26841 -10.26763 -10.26745 -10.26702 -10.26393
 Alpha  occ. eigenvalues --  -10.26367 -10.26015 -10.25984 -10.25969 -10.25947
 Alpha  occ. eigenvalues --  -10.25881 -10.25828 -10.25770 -10.25738 -10.25721
 Alpha  occ. eigenvalues --  -10.25608 -10.25469 -10.25446 -10.25396 -10.25386
 Alpha  occ. eigenvalues --  -10.25298 -10.25270 -10.24976 -10.24828 -10.24793
 Alpha  occ. eigenvalues --  -10.24726 -10.24710 -10.24650 -10.24635 -10.24436
 Alpha  occ. eigenvalues --  -10.24397 -10.24237 -10.24235 -10.24202 -10.23600
 Alpha  occ. eigenvalues --  -10.23595 -10.23546 -10.23478 -10.23429 -10.23250
 Alpha  occ. eigenvalues --  -10.23128 -10.22983 -10.22847 -10.22624 -10.22406
 Alpha  occ. eigenvalues --  -10.22216  -3.14706  -3.14008  -1.87512  -1.87067
 Alpha  occ. eigenvalues --   -1.86959  -1.86842  -1.86387  -1.86235  -1.11700
 Alpha  occ. eigenvalues --   -1.10288  -1.07114  -1.03271  -1.03154  -1.02685
 Alpha  occ. eigenvalues --   -1.02042  -1.01600  -1.00016  -0.99441  -0.98986
 Alpha  occ. eigenvalues --   -0.98751  -0.98276  -0.98035  -0.96760  -0.95341
 Alpha  occ. eigenvalues --   -0.86955  -0.85892  -0.83612  -0.83193  -0.83117
 Alpha  occ. eigenvalues --   -0.82989  -0.82596  -0.82043  -0.81830  -0.81788
 Alpha  occ. eigenvalues --   -0.81316  -0.81272  -0.81106  -0.80600  -0.78592
 Alpha  occ. eigenvalues --   -0.78237  -0.78210  -0.77730  -0.76806  -0.76580
 Alpha  occ. eigenvalues --   -0.75823  -0.75808  -0.75370  -0.75337  -0.74591
 Alpha  occ. eigenvalues --   -0.74542  -0.72765  -0.72348  -0.71744  -0.71715
 Alpha  occ. eigenvalues --   -0.71002  -0.70679  -0.70259  -0.70052  -0.69634
 Alpha  occ. eigenvalues --   -0.69182  -0.67224  -0.66705  -0.66166  -0.65908
 Alpha  occ. eigenvalues --   -0.63753  -0.63558  -0.63388  -0.63147  -0.62677
 Alpha  occ. eigenvalues --   -0.62362  -0.61591  -0.61351  -0.60589  -0.60199
 Alpha  occ. eigenvalues --   -0.59807  -0.59689  -0.59450  -0.59305  -0.59148
 Alpha  occ. eigenvalues --   -0.58641  -0.57352  -0.56151  -0.54512  -0.54482
 Alpha  occ. eigenvalues --   -0.54204  -0.53977  -0.53693  -0.53569  -0.53218
 Alpha  occ. eigenvalues --   -0.52905  -0.52467  -0.52363  -0.52159  -0.51786
 Alpha  occ. eigenvalues --   -0.50547  -0.50524  -0.50436  -0.50180  -0.49827
 Alpha  occ. eigenvalues --   -0.49775  -0.49594  -0.49108  -0.48575  -0.48426
 Alpha  occ. eigenvalues --   -0.47971  -0.47867  -0.47866  -0.47657  -0.47368
 Alpha  occ. eigenvalues --   -0.47298  -0.47163  -0.46995  -0.46758  -0.46619
 Alpha  occ. eigenvalues --   -0.46483  -0.46162  -0.45957  -0.45920  -0.45761
 Alpha  occ. eigenvalues --   -0.45599  -0.45573  -0.45494  -0.45446  -0.45294
 Alpha  occ. eigenvalues --   -0.44816  -0.44604  -0.44129  -0.44097  -0.43986
 Alpha  occ. eigenvalues --   -0.43718  -0.43698  -0.43585  -0.43225  -0.43151
 Alpha  occ. eigenvalues --   -0.43096  -0.42873  -0.42800  -0.42787  -0.42528
 Alpha  occ. eigenvalues --   -0.42476  -0.42457  -0.42261  -0.42132  -0.42004
 Alpha  occ. eigenvalues --   -0.41664  -0.41527  -0.41317  -0.41282  -0.41171
 Alpha  occ. eigenvalues --   -0.41151  -0.41017  -0.40719  -0.40717  -0.40403
 Alpha  occ. eigenvalues --   -0.40381  -0.40085  -0.39911  -0.39693  -0.39556
 Alpha  occ. eigenvalues --   -0.39209  -0.39195  -0.39074  -0.38925  -0.38763
 Alpha  occ. eigenvalues --   -0.38703  -0.38588  -0.38499  -0.38313  -0.38204
 Alpha  occ. eigenvalues --   -0.38193  -0.37888  -0.37782  -0.37738  -0.37586
 Alpha  occ. eigenvalues --   -0.37499  -0.37339  -0.37152  -0.37121  -0.37006
 Alpha  occ. eigenvalues --   -0.36780  -0.36617  -0.36519  -0.36483  -0.36293
 Alpha  occ. eigenvalues --   -0.36096  -0.36075  -0.35771  -0.35564  -0.35486
 Alpha  occ. eigenvalues --   -0.35152  -0.34689  -0.34681  -0.34322  -0.34261
 Alpha  occ. eigenvalues --   -0.33672  -0.33388  -0.33176  -0.33132  -0.32944
 Alpha  occ. eigenvalues --   -0.32616  -0.32395  -0.31968  -0.31939  -0.31490
 Alpha  occ. eigenvalues --   -0.31488  -0.31399  -0.30069  -0.29770  -0.29566
 Alpha  occ. eigenvalues --   -0.29097  -0.28686  -0.28588  -0.26976  -0.26964
 Alpha  occ. eigenvalues --   -0.26278  -0.26249  -0.25788  -0.25777  -0.25633
 Alpha  occ. eigenvalues --   -0.25416  -0.25391  -0.24961  -0.21104  -0.20617
 Alpha  occ. eigenvalues --   -0.18838  -0.18746
 Alpha virt. eigenvalues --   -0.11143  -0.10932  -0.05553  -0.05141  -0.04223
 Alpha virt. eigenvalues --   -0.04013  -0.02513  -0.02277  -0.01136  -0.00118
 Alpha virt. eigenvalues --    0.00219   0.00673   0.00874   0.01505   0.02409

 Mulliken charges:
               1
     1  Mg  11.999995
     2  C    6.000056
     3  C    5.999778
     4  C    5.999957
     5  C    6.000252
     6  N    7.000054
     7  C    5.999775
     8  C    6.000068
     9  C    5.999931
    10  C    6.000343
    11  C    5.999963
    12  C    6.000024
    13  C    5.999992
    14  H    1.000004
    15  N    6.999949
    16  C    6.000415
    17  C    6.000132
    18  C    6.000242
    19  C    6.000119
    20  C    5.999937
    21  C    6.000088
    22  O    8.000220
    23  C    5.999961
    24  N    6.999973
    25  C    6.000203
    26  C    5.999974
    27  C    6.000122
    28  C    5.999602
    29  C    5.999990
    30  C    6.000035
    31  C    5.999998
    32  N    7.000027
    33  C    5.999554
    34  C    5.999838
    35  C    5.999849
    36  C    5.999865
    37  C    6.000057
    38  C    5.999807
    39  O    7.999663
    40  C    6.000031
    41  C    5.999976
    42  O    7.999903
    43  O    8.000013
    44  C    6.000018
    45  H    1.000193
    46  H    1.000036
    47  H    0.999851
    48  H    0.999993
    49  H    1.000120
    50  H    1.000041
    51  H    0.999974
    52  H    1.000175
    53  H    0.999975
    54  H    1.000017
    55  H    1.000055
    56  H    0.999987
    57  H    1.000228
    58  H    1.000188
    59  H    1.000173
    60  H    1.000121
    61  H    1.000063
    62  H    1.000138
    63  H    0.999971
    64  H    0.999916
    65  H    0.999975
    66  H    1.000020
    67  H    0.999979
    68  H    1.000018
    69  H    0.999961
    70  H    0.999944
    71  H    0.999958
    72  H    0.999963
    73  H    0.999849
    74  H    0.999713
    75  H    0.999847
    76  H    0.999956
    77  H    0.999929
    78  H    0.999962
    79  H    0.999957
    80  Mg  12.001023
    81  C    5.973006
    82  C    6.009136
    83  C    6.024351
    84  C    6.000568
    85  N    6.984302
    86  C    6.034476
    87  C    5.992644
    88  C    6.008424
    89  C    5.969740
    90  C    6.002934
    91  C    6.000386
    92  C    5.998661
    93  H    1.003734
    94  N    7.004457
    95  C    5.967183
    96  C    5.979695
    97  C    5.987796
    98  C    5.962720
    99  C    6.001744
   100  C    5.988956
   101  O    7.979215
   102  C    5.998022
   103  N    7.006866
   104  C    5.965369
   105  C    6.010766
   106  C    5.992192
   107  C    6.031454
   108  C    6.000664
   109  C    5.996905
   110  C    5.999444
   111  N    6.999978
   112  C    6.035624
   113  C    6.024064
   114  C    6.003254
   115  C    6.026460
   116  C    5.998266
   117  C    6.017339
   118  O    8.030269
   119  C    6.000493
   120  C    6.005388
   121  O    8.002398
   122  O    8.001565
   123  C    5.998407
   124  H    0.989770
   125  H    0.994635
   126  H    1.012765
   127  H    0.998211
   128  H    0.994998
   129  H    0.987319
   130  H    0.999237
   131  H    1.000790
   132  H    1.008313
   133  H    0.992736
   134  H    0.995272
   135  H    1.003846
   136  H    0.986306
   137  H    0.983834
   138  H    0.985149
   139  H    0.990097
   140  H    0.989397
   141  H    0.991731
   142  H    0.999228
   143  H    0.997565
   144  H    0.990441
   145  H    1.002373
   146  H    1.003393
   147  H    0.996896
   148  H    1.011027
   149  H    1.005273
   150  H    1.005245
   151  H    0.997991
   152  H    1.014691
   153  H    1.015026
   154  H    1.018345
   155  H    1.007369
   156  H    1.004860
   157  H    1.005078
   158  H    1.000459
 Sum of Mulliken charges = 624.00000

 Dipole moment (field-independent basis, Debye):
    X=              1.5387    Y=             -6.9482    Z=              6.9884  Tot=              9.9741
 Quadrupole moment (field-independent basis, Debye-Ang):
   XX=             49.7675   YY=             -3.2305   ZZ=              0.3257
   XY=           -120.8032   XZ=            121.4456   YZ=              5.0702

 Normal termination of Gaussian 16 at Fri Oct 15 11:37:06 2021.
