 Gaussian 16, Revision A.03,
 Gaussian 16:  ES64L-G16RevA.03 25-Dec-2016

 --------------------------------------------------------
 #p PBE1PBE/Def2SVP td=(nstates=5) density=(transition=1)
 --------------------------------------------------------

 --------------------------------
 TDDFT excited states in gaussian
 --------------------------------
 Symbolic Z-matrix:
 Charge =  0 Multiplicity = 1

                         Standard orientation:
 ---------------------------------------------------------------------
 Center     Atomic      Atomic             Coordinates (Angstroms)
 Number     Number       Type             X           Y           Z
 ---------------------------------------------------------------------
      1         12           0       11.295844   -0.369199   -0.105798
      2          6           0        9.692404    2.668906    0.075221
      3          6           0       14.358276    1.101465    0.325549
      4          6           0       12.882955   -3.492087   -0.097914
      5          6           0        8.284005   -2.007236    0.308781
      6          7           0       11.851842    1.669005    0.381928
      7          6           0       11.082026    2.826283    0.236393
      8          6           0       11.901861    4.084752    0.532033
      9          6           0       13.328593    3.491465    0.411765
     10          6           0       13.210349    1.954238    0.457346
     11          6           0       14.122796    4.060545   -0.784259
     12          6           0       11.583980    4.676036    1.919727
     13          6           0       11.462601    6.236264    2.012972
     14          1           0       11.867678    6.846872    3.297494
     15          7           0       13.298814   -1.056363    0.030640
     16          6           0       14.417487   -0.300210    0.112032
     17          6           0       15.617601   -1.053320   -0.097642
     18          6           0       15.220897   -2.374778   -0.360681
     19          6           0       13.711149   -2.359426   -0.172653
     20          6           0       17.017745   -0.442364   -0.183395
     21          6           0       16.151855   -3.595897   -0.695993
     22          8           0       17.397385   -3.426211   -0.656434
     23          6           0       15.611861   -5.014951   -1.165375
     24          7           0       10.693687   -2.449489    0.380606
     25          6           0       11.495381   -3.520785    0.165381
     26          6           0       10.745822   -4.828244    0.181409
     27          6           0        9.276815   -4.387612    0.359290
     28          6           0        9.398621   -2.862458    0.309763
     29          6           0       11.019550   -5.753875   -1.050145
     30          6           0        8.579645   -5.017018    1.657932
     31          6           0        7.584664   -6.146245    1.366060
     32          7           0        9.361898    0.170548    0.087117
     33          6           0        8.180393   -0.591430    0.221276
     34          6           0        7.015743    0.289283    0.061652
     35          6           0        7.587432    1.547022   -0.071041
     36          6           0        8.976981    1.407320    0.079029
     37          6           0        5.563665   -0.030199    0.067882
     38          6           0        7.267169    2.971780   -0.238325
     39          8           0        6.216653    3.551276   -0.559651
     40          6           0        8.635441    3.763254   -0.194778
     41          6           0        8.890253    4.503625   -1.500851
     42          8           0        8.750703    4.074767   -2.650629
     43          8           0        9.235847    5.757526   -1.092458
     44          6           0        9.374164    6.763476   -2.132203
     45          1           0       15.341007    1.559069    0.456357
     46          1           0       13.251863   -4.516703   -0.179355
     47          1           0        7.298789   -2.462328    0.428579
     48          1           0       11.677268    4.849828   -0.211890
     49          1           0       13.818738    3.837025    1.321903
     50          1           0       13.827419    5.015019   -1.219904
     51          1           0       13.981525    3.344270   -1.593498
     52          1           0       15.183704    4.169103   -0.560114
     53          1           0       12.263815    4.324790    2.695493
     54          1           0       10.668891    4.173299    2.233654
     55          1           0       10.430803    6.522832    1.809752
     56          1           0       12.132607    6.678026    1.274059
     57          1           0       17.407302   -0.742021   -1.156041
     58          1           0       17.573630   -0.668542    0.726597
     59          1           0       16.839388    0.630990   -0.247588
     60          1           0       15.379196   -5.564320   -0.253900
     61          1           0       16.439105   -5.495143   -1.687525
     62          1           0       14.858111   -4.816445   -1.927798
     63          1           0       11.070109   -5.388901    1.058203
     64          1           0        8.618160   -4.539477   -0.495500
     65          1           0       10.095411   -6.162556   -1.457934
     66          1           0       11.672603   -6.592105   -0.807946
     67          1           0       11.586868   -5.195935   -1.793953
     68          1           0        7.982553   -4.287536    2.204989
     69          1           0        9.339328   -5.332128    2.373172
     70          1           0        7.677211   -6.922375    2.125974
     71          1           0        7.795283   -6.577975    0.387855
     72          1           0        6.543862   -5.823813    1.343025
     73          1           0        5.469476   -1.115338    0.109634
     74          1           0        5.054178    0.539166   -0.709769
     75          1           0        5.192082    0.295737    1.039964
     76          1           0        8.689486    4.454080    0.647034
     77          1           0        9.926252    6.421009   -3.008349
     78          1           0        9.815386    7.717535   -1.843828
     79          1           0        8.387054    7.067528   -2.481376
     80         12           0      -10.824883   -0.808122   -0.399704
     81          6           0      -11.746237    2.579872   -0.248690
     82          6           0       -7.646412    0.089092    0.556580
     83          6           0      -10.264977   -4.019397    0.165775
     84          6           0      -14.205402   -1.621759   -1.126289
     85          7           0       -9.906187    1.062735    0.332140
     86          6           0      -10.468152    2.365321    0.308293
     87          6           0       -9.456191    3.427443    0.441920
     88          6           0       -8.112808    2.593085    0.603075
     89          6           0       -8.561102    1.147724    0.454602
     90          6           0       -6.991715    3.082745   -0.345294
     91          6           0       -9.601346    4.280626    1.665004
     92          6           0      -10.060695    3.574974    2.949611
     93          1           0       -9.515718    4.008471    4.366039
     94          7           0       -9.162078   -1.876067    0.242159
     95          6           0       -7.952444   -1.323034    0.453350
     96          6           0       -7.002898   -2.381667    0.689189
     97          6           0       -7.710224   -3.596117    0.510726
     98          6           0       -9.110746   -3.219277    0.260567
     99          6           0       -5.560449   -2.203360    1.080103
    100          6           0       -7.106112   -4.998241    0.582164
    101          8           0       -5.925081   -5.160807    0.819236
    102          6           0       -7.831408   -6.308692    0.499742
    103          7           0      -12.098934   -2.536844   -0.217063
    104          6           0      -11.603589   -3.798251   -0.019976
    105          6           0      -12.674511   -4.891148   -0.344314
    106          6           0      -13.980466   -4.046250   -0.445636
    107          6           0      -13.407188   -2.657699   -0.625864
    108          6           0      -12.435998   -5.690696   -1.647981
    109          6           0      -14.860358   -3.948288    0.888756
    110          6           0      -16.323942   -4.159705    0.744295
    111          7           0      -12.558614    0.176784   -0.738494
    112          6           0      -13.737655   -0.271772   -1.190022
    113          6           0      -14.537962    0.869979   -1.773793
    114          6           0      -13.722484    1.999968   -1.447349
    115          6           0      -12.607102    1.538570   -0.692559
    116          6           0      -15.884584    0.873569   -2.482922
    117          6           0      -13.724775    3.434437   -1.448532
    118          8           0      -14.558628    4.227835   -1.855661
    119          6           0      -12.406360    3.862937   -0.686393
    120          6           0      -12.839932    4.543298    0.595497
    121          8           0      -13.366992    4.049086    1.536747
    122          8           0      -12.412892    5.853178    0.544739
    123          6           0      -12.507389    6.554002    1.829355
    124          1           0       -6.603836    0.394910    0.664220
    125          1           0      -10.059098   -5.091041    0.174311
    126          1           0      -15.184633   -1.950586   -1.480423
    127          1           0       -9.519318    4.056189   -0.446214
    128          1           0       -7.700547    2.539731    1.610642
    129          1           0       -6.160416    3.156267    0.356099
    130          1           0       -7.316852    4.039904   -0.753169
    131          1           0       -6.726881    2.349646   -1.107480
    132          1           0      -10.142005    5.211720    1.493076
    133          1           0       -8.677810    4.748206    2.007107
    134          1           0       -9.845058    2.519744    2.778610
    135          1           0      -11.144030    3.680440    2.889016
    136          1           0       -5.293822   -2.864425    1.905393
    137          1           0       -5.362170   -1.152910    1.292686
    138          1           0       -5.008117   -2.501762    0.188721
    139          1           0       -8.515122   -6.518551    1.321667
    140          1           0       -7.012304   -7.008925    0.664265
    141          1           0       -8.174141   -6.547420   -0.507624
    142          1           0      -12.683674   -5.600561    0.483083
    143          1           0      -14.606953   -4.316905   -1.295947
    144          1           0      -13.213972   -5.425339   -2.363606
    145          1           0      -12.235722   -6.742959   -1.446819
    146          1           0      -11.501608   -5.351755   -2.093911
    147          1           0      -14.683175   -3.005641    1.406049
    148          1           0      -14.451368   -4.733468    1.524848
    149          1           0      -16.704733   -4.956431    1.382965
    150          1           0      -16.636967   -4.352909   -0.282019
    151          1           0      -16.891408   -3.282480    1.053858
    152          1           0      -16.537466    1.521322   -1.897867
    153          1           0      -16.173656   -0.164590   -2.651102
    154          1           0      -15.717170    1.406734   -3.418680
    155          1           0      -11.769791    4.508306   -1.291272
    156          1           0      -12.392763    5.890544    2.686442
    157          1           0      -13.510246    6.980740    1.810105
    158          1           0      -11.833481    7.406572    1.749748
 ---------------------------------------------------------------------

 SCF Done:  E(RPBE1PBE) =  -4067.38471994     A.U. after   16 cycles

 Excitation energies and oscillator strengths:

 Excited State   1:      Singlet-A      1.8271 eV  678.57 nm  f=0.6056  <S**2>=0.000
     309 -> 316        0.15328
     311 -> 314       -0.26542
     312 -> 313        0.64259
     312 <- 313       -0.10580
 This state for optimization and/or second-order correction.
 Total Energy, E(TD-HF/TD-DFT) =  -4067.31757401
 Copying the excited state density for this state as the 1-particle RhoCI density.

 Excited State   2:      Singlet-A      1.8400 eV  673.83 nm  f=0.1255  <S**2>=0.000
     310 -> 315        0.15572
     311 -> 314        0.63988
     312 -> 313        0.26589

 Excited State   3:      Singlet-A      1.8820 eV  658.78 nm  f=0.0000  <S**2>=0.000
     311 -> 313        0.70708

 Excited State   4:      Singlet-A      1.8864 eV  657.25 nm  f=0.0000  <S**2>=0.000
     312 -> 314        0.70707

 Excited State   5:      Singlet-A      2.2417 eV  553.08 nm  f=0.0932  <S**2>=0.000
     310 -> 314        0.64063
     311 -> 315       -0.28293

 The electronic state is 1-A.
 Alpha  occ. eigenvalues --  -46.92569 -46.91908 -19.27091 -19.25194 -19.20591
 Alpha  occ. eigenvalues --  -19.20530 -19.19690 -19.19303 -19.18916 -19.18395
 Alpha  occ. eigenvalues --  -14.41991 -14.41823 -14.41627 -14.41359 -14.39712
 Alpha  occ. eigenvalues --  -14.39194 -14.39067 -14.38878 -10.37061 -10.36177
 Alpha  occ. eigenvalues --  -10.33689 -10.32121 -10.32080 -10.31698 -10.29714
 Alpha  occ. eigenvalues --  -10.29325 -10.29009 -10.29000 -10.28937 -10.28714
 Alpha  occ. eigenvalues --  -10.28600 -10.28567 -10.28461 -10.28424 -10.28388
 Alpha  occ. eigenvalues --  -10.28299 -10.28017 -10.27794 -10.27712 -10.27530
 Alpha  occ. eigenvalues --  -10.27018 -10.26435 -10.26371 -10.26359 -10.26290
 Alpha  occ. eigenvalues --  -10.26087 -10.26057 -10.25963 -10.25924 -10.25907
 Alpha  occ. eigenvalues --  -10.25895 -10.25855 -10.25855 -10.25801 -10.25753
 Alpha  occ. eigenvalues --  -10.25728 -10.25724 -10.25697 -10.25553 -10.25449
 Alpha  occ. eigenvalues --  -10.25302 -10.25244 -10.24999 -10.24800 -10.24694
 Alpha  occ. eigenvalues --  -10.24668 -10.24606 -10.24593 -10.24398 -10.24221
 Alpha  occ. eigenvalues --  -10.24163 -10.24074 -10.24032 -10.24019 -10.24008
 Alpha  occ. eigenvalues --  -10.23852 -10.23572 -10.23518 -10.23517 -10.23459
 Alpha  occ. eigenvalues --  -10.23176 -10.22860 -10.22842 -10.22766 -10.22762
 Alpha  occ. eigenvalues --  -10.22603  -3.14681  -3.14130  -1.87486  -1.87042
 Alpha  occ. eigenvalues --   -1.86934  -1.86931  -1.86509  -1.86371  -1.11931
 Alpha  occ. eigenvalues --   -1.11700  -1.05090  -1.04646  -1.03717  -1.03265
 Alpha  occ. eigenvalues --   -1.03126  -1.02681  -0.99415  -0.99158  -0.98723
 Alpha  occ. eigenvalues --   -0.98628  -0.98008  -0.97855  -0.97202  -0.96737
 Alpha  occ. eigenvalues --   -0.87478  -0.85874  -0.84066  -0.83694  -0.83150
 Alpha  occ. eigenvalues --   -0.83087  -0.82971  -0.82651  -0.81777  -0.81764
 Alpha  occ. eigenvalues --   -0.81244  -0.80583  -0.80574  -0.80055  -0.78950
 Alpha  occ. eigenvalues --   -0.78573  -0.78415  -0.78197  -0.76928  -0.76781
 Alpha  occ. eigenvalues --   -0.75840  -0.75788  -0.75312  -0.75107  -0.74757
 Alpha  occ. eigenvalues --   -0.74519  -0.72313  -0.72244  -0.71745  -0.71718
 Alpha  occ. eigenvalues --   -0.71062  -0.70981  -0.70295  -0.70241  -0.69608
 Alpha  occ. eigenvalues --   -0.69446  -0.67198  -0.67112  -0.66142  -0.66024
 Alpha  occ. eigenvalues --   -0.63871  -0.63505  -0.63367  -0.63230  -0.62989
 Alpha  occ. eigenvalues --   -0.62344  -0.61566  -0.61475  -0.60552  -0.60248
 Alpha  occ. eigenvalues --   -0.59673  -0.59562  -0.59431  -0.59124  -0.58994
 Alpha  occ. eigenvalues --   -0.58838  -0.57336  -0.56594  -0.54486  -0.54466
 Alpha  occ. eigenvalues --   -0.54181  -0.54022  -0.53544  -0.53467  -0.53344
 Alpha  occ. eigenvalues --   -0.53188  -0.52623  -0.52345  -0.51954  -0.51771
 Alpha  occ. eigenvalues --   -0.51056  -0.50496  -0.50470  -0.50425  -0.49901
 Alpha  occ. eigenvalues --   -0.49815  -0.49606  -0.49579  -0.49137  -0.48633
 Alpha  occ. eigenvalues --   -0.48395  -0.47948  -0.47840  -0.47555  -0.47513
 Alpha  occ. eigenvalues --   -0.47271  -0.46961  -0.46818  -0.46728  -0.46588
 Alpha  occ. eigenvalues --   -0.46574  -0.46209  -0.46143  -0.45899  -0.45885
 Alpha  occ. eigenvalues --   -0.45742  -0.45729  -0.45550  -0.45473  -0.45467
 Alpha  occ. eigenvalues --   -0.44569  -0.44563  -0.44169  -0.44103  -0.43970
 Alpha  occ. eigenvalues --   -0.43931  -0.43879  -0.43674  -0.43454  -0.43363
 Alpha  occ. eigenvalues --   -0.43193  -0.43165  -0.43005  -0.42855  -0.42763
 Alpha  occ. eigenvalues --   -0.42508  -0.42227  -0.42166  -0.42097  -0.41979
 Alpha  occ. eigenvalues --   -0.41824  -0.41756  -0.41547  -0.41503  -0.41399
 Alpha  occ. eigenvalues --   -0.41298  -0.41151  -0.41046  -0.40685  -0.40641
 Alpha  occ. eigenvalues --   -0.40541  -0.40377  -0.40196  -0.40067  -0.39910
 Alpha  occ. eigenvalues --   -0.39518  -0.39432  -0.39191  -0.39113  -0.38780
 Alpha  occ. eigenvalues --   -0.38735  -0.38679  -0.38631  -0.38570  -0.38355
 Alpha  occ. eigenvalues --   -0.38287  -0.38166  -0.37975  -0.37708  -0.37592
 Alpha  occ. eigenvalues --   -0.37316  -0.37309  -0.37130  -0.37124  -0.36997
 Alpha  occ. eigenvalues --   -0.36982  -0.36945  -0.36754  -0.36682  -0.36506
 Alpha  occ. eigenvalues --   -0.36069  -0.36013  -0.35731  -0.35603  -0.35527
 Alpha  occ. eigenvalues --   -0.35198  -0.34747  -0.34654  -0.34224  -0.33986
 Alpha  occ. eigenvalues --   -0.33658  -0.33366  -0.33346  -0.33109  -0.32778
 Alpha  occ. eigenvalues --   -0.32389  -0.32185  -0.32031  -0.31920  -0.31460
 Alpha  occ. eigenvalues --   -0.31394  -0.30677  -0.30044  -0.29845  -0.29763
 Alpha  occ. eigenvalues --   -0.29346  -0.28662  -0.28611  -0.26951  -0.26941
 Alpha  occ. eigenvalues --   -0.26252  -0.26029  -0.25767  -0.25608  -0.25457
 Alpha  occ. eigenvalues --   -0.25405  -0.25194  -0.25099  -0.21168  -0.21079
 Alpha  occ. eigenvalues --   -0.18720  -0.18646
 Alpha virt. eigenvalues --   -0.11181  -0.11118  -0.05525  -0.05259  -0.03992
 Alpha virt. eigenvalues --   -0.03950  -0.02492  -0.01857  -0.01262  -0.01110
 Alpha virt. eigenvalues --    0.00223   0.00699   0.00955   0.01079   0.01471

 Mulliken charges:
               1
     1  Mg  11.999746
     2  C    6.010308
     3  C    5.996850
     4  C    5.990843
     5  C    5.999255
     6  N    7.006046
     7  C    5.987041
     8  C    6.002890
     9  C    5.996713
    10  C    6.011549
    11  C    5.998787
    12  C    5.999789
    13  C    6.000385
    14  H    0.998965
    15  N    6.998246
    16  C    6.012471
    17  C    6.007865
    18  C    6.004709
    19  C    6.014293
    20  C    5.999333
    21  C    6.004214
    22  O    8.008320
    23  C    6.000671
    24  N    6.997271
    25  C    6.013232
    26  C    5.995835
    27  C    6.002955
    28  C    5.988195
    29  C    5.999736
    30  C    6.001355
    31  C    6.000294
    32  N    6.999963
    33  C    5.986724
    34  C    5.990511
    35  C    5.998857
    36  C    5.989948
    37  C    6.000515
    38  C    5.993170
    39  O    7.988226
    40  C    5.999891
    41  C    5.997952
    42  O    7.999147
    43  O    7.999389
    44  C    6.000471
    45  H    1.004299
    46  H    1.002091
    47  H    0.994254
    48  H    1.000855
    49  H    1.002157
    50  H    1.005107
    51  H    1.000303
    52  H    0.999964
    53  H    0.996938
    54  H    1.002583
    55  H    1.001778
    56  H    0.998735
    57  H    1.005440
    58  H    1.006398
    59  H    1.005801
    60  H    1.003788
    61  H    1.004313
    62  H    1.003113
    63  H    1.000364
    64  H    1.000620
    65  H    1.003376
    66  H    0.999288
    67  H    0.998907
    68  H    1.000866
    69  H    0.996027
    70  H    0.998007
    71  H    0.998092
    72  H    0.999833
    73  H    0.993680
    74  H    0.993850
    75  H    0.992359
    76  H    0.997311
    77  H    0.998299
    78  H    0.998371
    79  H    0.999905
    80  Mg  12.001787
    81  C    6.025123
    82  C    5.993349
    83  C    5.980358
    84  C    6.006336
    85  N    7.006190
    86  C    5.963511
    87  C    6.012881
    88  C    5.992257
    89  C    6.026558
    90  C    5.998221
    91  C    6.003181
    92  C    6.005139
    93  H    0.992205
    94  N    6.992682
    95  C    6.036263
    96  C    6.020707
    97  C    6.004867
    98  C    6.039089
    99  C    5.997634
   100  C    6.009884
   101  O    8.017474
   102  C    5.996654
   103  N    6.996805
   104  C    6.030061
   105  C    5.994050
   106  C    6.004959
   107  C    5.978532
   108  C    6.000136
   109  C    6.006661
   110  C    6.000298
   111  N    7.001052
   112  C    5.968336
   113  C    5.964082
   114  C    6.004643
   115  C    5.965673
   116  C    6.000348
   117  C    5.986086
   118  O    7.976885
   119  C    5.998306
   120  C    5.997450
   121  O    7.996552
   122  O    7.998078
   123  C    6.001153
   124  H    1.011785
   125  H    1.006805
   126  H    0.989608
   127  H    0.998748
   128  H    0.998377
   129  H    1.000462
   130  H    1.011252
   131  H    0.998473
   132  H    1.003159
   133  H    0.992254
   134  H    0.991286
   135  H    1.006021
   136  H    1.014767
   137  H    1.016003
   138  H    1.016437
   139  H    1.009518
   140  H    1.009890
   141  H    1.010156
   142  H    0.999603
   143  H    1.000171
   144  H    1.011034
   145  H    1.000021
   146  H    0.995820
   147  H    1.000719
   148  H    0.987129
   149  H    0.995022
   150  H    0.999416
   151  H    1.002667
   152  H    0.982992
   153  H    0.983925
   154  H    0.982690
   155  H    0.991029
   156  H    0.996353
   157  H    0.998609
   158  H    0.995306
 Sum of Mulliken charges = 624.00000

 Dipole moment (field-independent basis, Debye):
    X=             11.7627    Y=             -5.7520    Z=              1.8324  Tot=             13.2214
 Quadrupole moment (field-independent basis, Debye-Ang):
   XX=            -82.0308   YY=              6.2224   ZZ=             -3.6966
   XY=             35.1012   XZ=            -27.3710   YZ=              0.8880

 Normal termination of Gaussian 16 at Fri Oct 15 14:57:23 2021.
