 Gaussian 16, Revision A.03,
 Gaussian 16:  ES64L-G16RevA.03 25-Dec-2016

 --------------------------------------------------------
 #p PBE1PBE/Def2SVP td=(nstates=5) density=(transition=1)
 --------------------------------------------------------

 --------------------------------
 TDDFT excited states in gaussian
 --------------------------------
 Symbolic Z-matrix:
 Charge =  0 Multiplicity = 1

                         Standard orientation:
 ---------------------------------------------------------------------
 Center     Atomic      Atomic             Coordinates (Angstroms)
 Number     Number       Type             X           Y           Z
 ---------------------------------------------------------------------
      1         12           0      -25.309557   -0.416514   -0.070742
      2          6           0      -24.124266    2.756133   -0.881253
      3          6           0      -25.941765    0.664978    3.133246
      4          6           0      -26.164198   -3.607767    0.627712
      5          6           0      -24.240611   -1.518421   -3.297639
      6          7           0      -24.947375    1.451396    0.983409
      7          6           0      -24.486778    2.624741    0.471022
      8          6           0      -24.561624    3.755384    1.505299
      9          6           0      -25.018418    2.963303    2.809248
     10          6           0      -25.338638    1.575886    2.243197
     11          6           0      -23.914873    2.901372    3.858399
     12          6           0      -25.637331    4.866121    1.231868
     13          6           0      -25.364751    6.243252    1.778798
     14          1           0      -24.331465    6.424777    2.798650
     15          7           0      -26.033925   -1.297161    1.590302
     16          6           0      -26.216986   -0.664752    2.836306
     17          6           0      -26.902305   -1.615127    3.672468
     18          6           0      -27.037821   -2.845376    2.980800
     19          6           0      -26.393941   -2.627277    1.662034
     20          6           0      -27.187708   -1.372918    5.139190
     21          6           0      -27.687668   -4.108553    3.363643
     22          8           0      -27.551824   -5.141947    2.743959
     23          6           0      -28.478081   -4.218075    4.717807
     24          7           0      -25.389812   -2.333344   -1.230936
     25          6           0      -25.750344   -3.461026   -0.695161
     26          6           0      -25.607711   -4.641798   -1.702124
     27          6           0      -25.074479   -3.997882   -2.969012
     28          6           0      -24.814899   -2.517518   -2.511228
     29          6           0      -24.742387   -5.824731   -1.057841
     30          6           0      -26.026763   -4.150520   -4.173896
     31          6           0      -25.747888   -5.341273   -5.165476
     32          7           0      -24.646183    0.406611   -1.798231
     33          6           0      -24.246555   -0.151196   -3.038044
     34          6           0      -23.804331    0.850361   -3.931708
     35          6           0      -23.670824    2.009333   -3.054703
     36          6           0      -24.238560    1.642708   -1.801028
     37          6           0      -23.210875    0.618092   -5.309201
     38          6           0      -23.180180    3.337872   -3.075911
     39          8           0      -22.688709    4.019541   -3.966671
     40          6           0      -23.566728    3.939655   -1.569460
     41          6           0      -22.282367    4.497648   -1.030361
     42          8           0      -21.249900    3.840190   -0.862406
     43          8           0      -22.328771    5.912381   -0.853616
     44          6           0      -21.077582    6.543630   -0.328914
     45          1           0      -26.114410    1.075808    4.130898
     46          1           0      -26.281695   -4.631798    0.987279
     47          1           0      -23.944991   -1.789949   -4.312837
     48          1           0      -23.548404    4.146674    1.599504
     49          1           0      -25.877802    3.417252    3.302524
     50          1           0      -23.124756    3.620202    3.643069
     51          1           0      -23.527915    1.892583    4.004860
     52          1           0      -24.214730    3.280374    4.835433
     53          1           0      -26.589220    4.499543    1.614508
     54          1           0      -25.798326    4.880041    0.153691
     55          1           0      -26.271600    6.563803    2.291133
     56          1           0      -25.118314    6.910875    0.953139
     57          1           0      -26.616151   -2.023609    5.800937
     58          1           0      -28.261645   -1.483132    5.295289
     59          1           0      -26.934963   -0.383621    5.520310
     60          1           0      -27.723778   -4.383706    5.487460
     61          1           0      -29.066038   -5.135836    4.735322
     62          1           0      -29.005054   -3.290301    4.937249
     63          1           0      -26.634518   -4.991077   -1.812219
     64          1           0      -24.069734   -4.343804   -3.206829
     65          1           0      -23.884149   -6.058861   -1.687540
     66          1           0      -25.270610   -6.777421   -1.014775
     67          1           0      -24.412189   -5.426307   -0.097619
     68          1           0      -25.952566   -3.217602   -4.733809
     69          1           0      -27.035775   -4.211120   -3.765797
     70          1           0      -25.011148   -4.998120   -5.892668
     71          1           0      -26.589846   -5.821060   -5.664852
     72          1           0      -25.216202   -6.024584   -4.504145
     73          1           0      -24.090650    0.556495   -5.949216
     74          1           0      -22.664429   -0.323239   -5.353881
     75          1           0      -22.401798    1.285664   -5.608359
     76          1           0      -24.352741    4.687350   -1.682467
     77          1           0      -20.245314    6.420673   -1.021025
     78          1           0      -20.709839    6.232171    0.649129
     79          1           0      -21.394707    7.586290   -0.348619
     80         12           0       24.328542   -0.729971   -0.023036
     81          6           0       26.065746    2.263623   -0.730424
     82          6           0       22.910568    0.681518    2.598318
     83          6           0       23.462813   -3.863134    1.028929
     84          6           0       26.752347   -2.380876   -2.275785
     85          7           0       24.548996    1.257096    0.839142
     86          6           0       25.094837    2.350804    0.268925
     87          6           0       24.603132    3.607301    1.013918
     88          6           0       23.612281    3.118662    2.021285
     89          6           0       23.697177    1.570142    1.864646
     90          6           0       23.830058    3.748792    3.457526
     91          6           0       24.089136    4.821924    0.170793
     92          6           0       22.892532    5.749085    0.652997
     93          1           0       23.044939    7.271126    0.516684
     94          7           0       23.112003   -1.435008    1.468275
     95          6           0       22.604741   -0.656171    2.483735
     96          6           0       21.770449   -1.492730    3.298731
     97          6           0       21.921241   -2.879314    2.904867
     98          6           0       22.897420   -2.776129    1.797824
     99          6           0       21.069570   -0.873096    4.439155
    100          6           0       21.216446   -4.159599    3.417287
    101          8           0       21.518791   -5.222151    2.983618
    102          6           0       19.990362   -4.059072    4.265088
    103          7           0       25.080800   -2.824128   -0.538126
    104          6           0       24.410529   -3.873734   -0.011934
    105          6           0       24.911097   -5.237477   -0.586493
    106          6           0       25.934536   -4.786556   -1.673115
    107          6           0       25.965969   -3.246819   -1.508714
    108          6           0       25.521677   -6.181739    0.414705
    109          6           0       25.653746   -5.183902   -3.164513
    110          6           0       24.636834   -4.419519   -3.942772
    111          7           0       26.053771   -0.286380   -1.293415
    112          6           0       26.834720   -1.027898   -2.132909
    113          6           0       27.714271   -0.150432   -2.866055
    114          6           0       27.480179    1.160884   -2.374781
    115          6           0       26.489373    1.011355   -1.383234
    116          6           0       28.803077   -0.529031   -3.806979
    117          6           0       27.868460    2.540642   -2.444851
    118          8           0       28.664465    3.156858   -3.144081
    119          6           0       26.936955    3.329473   -1.418983
    120          6           0       27.717543    4.247070   -0.493124
    121          8           0       28.505479    3.858011    0.329876
    122          8           0       27.338310    5.559446   -0.726188
    123          6           0       28.065394    6.525935    0.097588
    124          1           0       22.246801    1.108809    3.353344
    125          1           0       23.098091   -4.826336    1.391059
    126          1           0       27.397827   -2.851369   -3.020269
    127          1           0       25.558162    3.919047    1.436830
    128          1           0       22.633243    3.496566    1.725429
    129          1           0       24.586113    4.531518    3.397908
    130          1           0       24.011314    2.928615    4.152134
    131          1           0       22.954917    4.314460    3.777827
    132          1           0       23.782164    4.419891   -0.795044
    133          1           0       24.894377    5.514214   -0.076410
    134          1           0       22.752463    5.482120    1.700666
    135          1           0       21.984103    5.456134    0.126517
    136          1           0       21.081750   -1.622515    5.230241
    137          1           0       20.033411   -0.729012    4.135320
    138          1           0       21.394558    0.073066    4.872211
    139          1           0       20.405274   -4.079167    5.271983
    140          1           0       19.296271   -4.850866    3.981655
    141          1           0       19.468410   -3.103366    4.212349
    142          1           0       24.133587   -5.748473   -1.154705
    143          1           0       26.992259   -5.014143   -1.544495
    144          1           0       25.344092   -5.847874    1.437831
    145          1           0       26.605614   -6.244491    0.314976
    146          1           0       25.041039   -7.143649    0.238069
    147          1           0       25.357089   -6.231636   -3.214172
    148          1           0       26.614146   -5.229300   -3.678500
    149          1           0       23.934565   -3.940997   -3.259905
    150          1           0       23.956445   -4.923836   -4.629310
    151          1           0       25.216863   -3.737140   -4.564894
    152          1           0       29.578719   -1.163290   -3.378769
    153          1           0       29.398038    0.375658   -3.934590
    154          1           0       28.410277   -0.936551   -4.738913
    155          1           0       26.248498    3.909152   -2.034211
    156          1           0       27.150686    6.752894    0.644343
    157          1           0       28.354394    7.295248   -0.618078
    158          1           0       28.878610    6.078222    0.669251
 ---------------------------------------------------------------------

 SCF Done:  E(RPBE1PBE) =  -4067.39207360     A.U. after   16 cycles

 Excitation energies and oscillator strengths:

 Excited State   1:      Singlet-A      1.8459 eV  671.67 nm  f=0.3563  <S**2>=0.000
     309 -> 315        0.17466
     311 -> 313        0.69230
     311 <- 313       -0.10446
 This state for optimization and/or second-order correction.
 Total Energy, E(TD-HF/TD-DFT) =  -4067.32423818
 Copying the excited state density for this state as the 1-particle RhoCI density.

 Excited State   2:      Singlet-A      1.8611 eV  666.20 nm  f=0.3736  <S**2>=0.000
     310 -> 316       -0.17933
     312 -> 314        0.69126
     312 <- 314       -0.10765

 Excited State   3:      Singlet-A      1.8625 eV  665.67 nm  f=0.0000  <S**2>=0.000
     312 -> 313        0.70711

 Excited State   4:      Singlet-A      2.1314 eV  581.71 nm  f=0.0000  <S**2>=0.000
     311 -> 314        0.70711

 Excited State   5:      Singlet-A      2.1921 eV  565.60 nm  f=0.1030  <S**2>=0.000
     310 -> 314        0.65385
     312 -> 316        0.25418

 The electronic state is 1-A.
 Alpha  occ. eigenvalues --  -46.93383 -46.91428 -19.25449 -19.24937 -19.20253
 Alpha  occ. eigenvalues --  -19.19799 -19.19683 -19.19199 -19.18905 -19.18902
 Alpha  occ. eigenvalues --  -14.42165 -14.41744 -14.41238 -14.41231 -14.39760
 Alpha  occ. eigenvalues --  -14.39239 -14.39125 -14.38505 -10.36220 -10.36131
 Alpha  occ. eigenvalues --  -10.32764 -10.32316 -10.31968 -10.31838 -10.29276
 Alpha  occ. eigenvalues --  -10.29114 -10.29031 -10.28870 -10.28830 -10.28800
 Alpha  occ. eigenvalues --  -10.28540 -10.28517 -10.28513 -10.28416 -10.28395
 Alpha  occ. eigenvalues --  -10.28347 -10.28186 -10.27140 -10.27138 -10.27019
 Alpha  occ. eigenvalues --  -10.26918 -10.26881 -10.26783 -10.26348 -10.26253
 Alpha  occ. eigenvalues --  -10.26061 -10.26036 -10.25996 -10.25880 -10.25813
 Alpha  occ. eigenvalues --  -10.25811 -10.25658 -10.25579 -10.25512 -10.25487
 Alpha  occ. eigenvalues --  -10.25470 -10.25443 -10.25435 -10.25287 -10.25280
 Alpha  occ. eigenvalues --  -10.25227 -10.25165 -10.25070 -10.24914 -10.24634
 Alpha  occ. eigenvalues --  -10.24527 -10.24402 -10.24392 -10.24327 -10.24126
 Alpha  occ. eigenvalues --  -10.23997 -10.23969 -10.23957 -10.23824 -10.23778
 Alpha  occ. eigenvalues --  -10.23767 -10.23621 -10.23493 -10.23406 -10.23331
 Alpha  occ. eigenvalues --  -10.23261 -10.22844 -10.22798 -10.22669 -10.22556
 Alpha  occ. eigenvalues --  -10.22363  -3.15276  -3.13700  -1.88086  -1.87658
 Alpha  occ. eigenvalues --   -1.87488  -1.86554  -1.86067  -1.85944  -1.11074
 Alpha  occ. eigenvalues --   -1.08297  -1.07577  -1.05590  -1.03990  -1.03771
 Alpha  occ. eigenvalues --   -1.03392  -1.00773  -0.99827  -0.98818  -0.98767
 Alpha  occ. eigenvalues --   -0.98191  -0.97774  -0.97118  -0.96875  -0.96469
 Alpha  occ. eigenvalues --   -0.86645  -0.85975  -0.83599  -0.83546  -0.83266
 Alpha  occ. eigenvalues --   -0.83140  -0.82680  -0.82540  -0.82056  -0.81773
 Alpha  occ. eigenvalues --   -0.81684  -0.81411  -0.80772  -0.80443  -0.78579
 Alpha  occ. eigenvalues --   -0.78259  -0.77945  -0.77409  -0.76654  -0.76501
 Alpha  occ. eigenvalues --   -0.76230  -0.75753  -0.75156  -0.74756  -0.74626
 Alpha  occ. eigenvalues --   -0.74328  -0.72873  -0.72575  -0.71687  -0.71432
 Alpha  occ. eigenvalues --   -0.71391  -0.71218  -0.70240  -0.70192  -0.69442
 Alpha  occ. eigenvalues --   -0.69015  -0.67681  -0.66793  -0.66084  -0.65865
 Alpha  occ. eigenvalues --   -0.64092  -0.63862  -0.63632  -0.63402  -0.62694
 Alpha  occ. eigenvalues --   -0.62621  -0.61693  -0.61317  -0.60219  -0.59759
 Alpha  occ. eigenvalues --   -0.59509  -0.59478  -0.59269  -0.58768  -0.58634
 Alpha  occ. eigenvalues --   -0.58504  -0.56264  -0.56101  -0.54824  -0.54522
 Alpha  occ. eigenvalues --   -0.54300  -0.54084  -0.53971  -0.53377  -0.53267
 Alpha  occ. eigenvalues --   -0.52929  -0.52547  -0.52451  -0.51934  -0.51910
 Alpha  occ. eigenvalues --   -0.50852  -0.50604  -0.50412  -0.49906  -0.49599
 Alpha  occ. eigenvalues --   -0.49569  -0.49246  -0.49164  -0.48649  -0.48622
 Alpha  occ. eigenvalues --   -0.48152  -0.47884  -0.47753  -0.47739  -0.47407
 Alpha  occ. eigenvalues --   -0.47405  -0.47082  -0.46948  -0.46867  -0.46780
 Alpha  occ. eigenvalues --   -0.46694  -0.46369  -0.46249  -0.45794  -0.45719
 Alpha  occ. eigenvalues --   -0.45488  -0.45362  -0.45317  -0.45164  -0.44839
 Alpha  occ. eigenvalues --   -0.44698  -0.44644  -0.44474  -0.44221  -0.44131
 Alpha  occ. eigenvalues --   -0.43909  -0.43868  -0.43860  -0.43663  -0.43624
 Alpha  occ. eigenvalues --   -0.43377  -0.43226  -0.43195  -0.43061  -0.42920
 Alpha  occ. eigenvalues --   -0.42892  -0.42402  -0.42311  -0.42274  -0.41929
 Alpha  occ. eigenvalues --   -0.41898  -0.41837  -0.41813  -0.41691  -0.41597
 Alpha  occ. eigenvalues --   -0.41463  -0.40764  -0.40525  -0.40492  -0.40275
 Alpha  occ. eigenvalues --   -0.40171  -0.40018  -0.39883  -0.39536  -0.39354
 Alpha  occ. eigenvalues --   -0.39315  -0.39313  -0.39042  -0.38928  -0.38859
 Alpha  occ. eigenvalues --   -0.38857  -0.38758  -0.38498  -0.38383  -0.38306
 Alpha  occ. eigenvalues --   -0.38097  -0.37969  -0.37811  -0.37806  -0.37688
 Alpha  occ. eigenvalues --   -0.37596  -0.37473  -0.37196  -0.37061  -0.36895
 Alpha  occ. eigenvalues --   -0.36882  -0.36772  -0.36719  -0.36524  -0.36417
 Alpha  occ. eigenvalues --   -0.36232  -0.35752  -0.35750  -0.35483  -0.35124
 Alpha  occ. eigenvalues --   -0.34995  -0.34754  -0.34457  -0.34079  -0.33893
 Alpha  occ. eigenvalues --   -0.33635  -0.33050  -0.32839  -0.32836  -0.32374
 Alpha  occ. eigenvalues --   -0.32324  -0.32080  -0.31964  -0.31276  -0.30873
 Alpha  occ. eigenvalues --   -0.30819  -0.30775  -0.29749  -0.29531  -0.29221
 Alpha  occ. eigenvalues --   -0.28802  -0.28668  -0.28613  -0.27035  -0.26526
 Alpha  occ. eigenvalues --   -0.26444  -0.26069  -0.25744  -0.25589  -0.25532
 Alpha  occ. eigenvalues --   -0.25384  -0.25121  -0.25014  -0.21143  -0.20754
 Alpha  occ. eigenvalues --   -0.19175  -0.18679
 Alpha virt. eigenvalues --   -0.11572  -0.11077  -0.05271  -0.05083  -0.04015
 Alpha virt. eigenvalues --   -0.03770  -0.02073  -0.01943  -0.01645  -0.00036
 Alpha virt. eigenvalues --    0.00331   0.00973   0.01103   0.01284   0.01726

 Mulliken charges:
               1
     1  Mg  12.000634
     2  C    5.971956
     3  C    6.000874
     4  C    6.020350
     5  C    6.001514
     6  N    6.983993
     7  C    6.035460
     8  C    5.988423
     9  C    6.012165
    10  C    5.974318
    11  C    6.004074
    12  C    5.997850
    13  C    5.999674
    14  H    1.004169
    15  N    7.008791
    16  C    5.965790
    17  C    5.979502
    18  C    5.982314
    19  C    5.972750
    20  C    6.004357
    21  C    5.990366
    22  O    7.969447
    23  C    6.001994
    24  N    7.007623
    25  C    5.972715
    26  C    6.001580
    27  C    5.996119
    28  C    6.023436
    29  C    6.002441
    30  C    5.996086
    31  C    6.001233
    32  N    6.999816
    33  C    6.031269
    34  C    6.025846
    35  C    6.006006
    36  C    6.028438
    37  C    5.999791
    38  C    6.013994
    39  O    8.031034
    40  C    6.008001
    41  C    6.004280
    42  O    8.003467
    43  O    8.002110
    44  C    5.998503
    45  H    0.986526
    46  H    0.997776
    47  H    1.011964
    48  H    0.997470
    49  H    0.997191
    50  H    0.985557
    51  H    1.001995
    52  H    0.996644
    53  H    1.009468
    54  H    0.992620
    55  H    1.003173
    56  H    0.995808
    57  H    0.982166
    58  H    0.983629
    59  H    0.984213
    60  H    0.991879
    61  H    0.986327
    62  H    0.995437
    63  H    1.003758
    64  H    0.999758
    65  H    0.992553
    66  H    1.000906
    67  H    1.005839
    68  H    0.994410
    69  H    1.009901
    70  H    0.998217
    71  H    1.004806
    72  H    1.005718
    73  H    1.014736
    74  H    1.016190
    75  H    1.012836
    76  H    1.005709
    77  H    1.000367
    78  H    1.006107
    79  H    1.003794
    80  Mg  11.999981
    81  C    6.000070
    82  C    5.999939
    83  C    5.999942
    84  C    6.000008
    85  N    7.000063
    86  C    5.999859
    87  C    6.000034
    88  C    5.999947
    89  C    6.000161
    90  C    6.000001
    91  C    6.000009
    92  C    5.999995
    93  H    0.999992
    94  N    6.999957
    95  C    6.000159
    96  C    6.000082
    97  C    6.000088
    98  C    6.000116
    99  C    5.999984
   100  C    6.000033
   101  O    8.000102
   102  C    5.999971
   103  N    6.999974
   104  C    6.000133
   105  C    5.999957
   106  C    6.000008
   107  C    5.999896
   108  C    5.999997
   109  C    6.000021
   110  C    6.000028
   111  N    7.000009
   112  C    5.999871
   113  C    5.999849
   114  C    5.999973
   115  C    5.999873
   116  C    6.000008
   117  C    5.999960
   118  O    7.999886
   119  C    5.999992
   120  C    5.999984
   121  O    8.000012
   122  O    7.999988
   123  C    6.000008
   124  H    1.000027
   125  H    1.000021
   126  H    0.999968
   127  H    1.000024
   128  H    0.999994
   129  H    1.000046
   130  H    1.000006
   131  H    1.000002
   132  H    0.999989
   133  H    1.000021
   134  H    0.999992
   135  H    0.999963
   136  H    1.000081
   137  H    1.000048
   138  H    1.000073
   139  H    1.000063
   140  H    1.000045
   141  H    1.000002
   142  H    0.999992
   143  H    1.000022
   144  H    0.999988
   145  H    1.000046
   146  H    1.000011
   147  H    0.999970
   148  H    1.000013
   149  H    0.999958
   150  H    0.999954
   151  H    1.000015
   152  H    0.999942
   153  H    0.999963
   154  H    0.999920
   155  H    0.999954
   156  H    0.999972
   157  H    0.999987
   158  H    1.000007
 Sum of Mulliken charges = 624.00000

 Dipole moment (field-independent basis, Debye):
    X=              3.7949    Y=              3.5013    Z=             -8.6683  Tot=             10.0896
 Quadrupole moment (field-independent basis, Debye-Ang):
   XX=           -194.0847   YY=             -0.5609   ZZ=              0.6621
   XY=            -90.2807   XZ=            221.0107   YZ=              5.0465

 Normal termination of Gaussian 16 at Fri Oct 15 10:09:09 2021.
