 Gaussian 16, Revision A.03,
 Gaussian 16:  ES64L-G16RevA.03 25-Dec-2016

 --------------------------------------------------------
 #p PBE1PBE/Def2SVP td=(nstates=5) density=(transition=1)
 --------------------------------------------------------

 --------------------------------
 TDDFT excited states in gaussian
 --------------------------------
 Symbolic Z-matrix:
 Charge =  0 Multiplicity = 1

                         Standard orientation:
 ---------------------------------------------------------------------
 Center     Atomic      Atomic             Coordinates (Angstroms)
 Number     Number       Type             X           Y           Z
 ---------------------------------------------------------------------
      1         12           0       24.239032   -0.780448    0.307875
      2          6           0       24.152586    2.286030   -1.330007
      3          6           0       23.981150    0.864883    3.302746
      4          6           0       24.651078   -3.784175    1.864175
      5          6           0       24.752770   -2.243124   -2.890559
      6          7           0       24.120431    1.322751    0.916840
      7          6           0       23.979510    2.372679    0.048179
      8          6           0       23.754173    3.618912    0.907899
      9          6           0       24.006022    3.183027    2.340327
     10          6           0       24.000064    1.667361    2.176939
     11          6           0       25.208189    3.702771    3.082045
     12          6           0       22.358934    4.373075    0.678138
     13          6           0       22.022412    5.509758    1.696152
     14          1           0       22.456468    6.960204    1.358708
     15          7           0       24.155819   -1.365335    2.297300
     16          6           0       24.076338   -0.550153    3.378367
     17          6           0       24.148668   -1.397841    4.539944
     18          6           0       24.349100   -2.743094    4.111771
     19          6           0       24.419825   -2.689123    2.720931
     20          6           0       24.034414   -0.812524    5.913672
     21          6           0       24.611188   -3.973269    5.028635
     22          8           0       25.107914   -4.999251    4.599457
     23          6           0       24.404674   -3.962442    6.467769
     24          7           0       24.616090   -2.611137   -0.390508
     25          6           0       24.706324   -3.742197    0.420227
     26          6           0       24.919708   -5.032608   -0.390032
     27          6           0       24.661346   -4.532848   -1.852119
     28          6           0       24.629861   -3.022306   -1.687394
     29          6           0       26.124131   -5.819456   -0.075167
     30          6           0       23.395692   -5.125824   -2.686760
     31          6           0       23.611536   -5.859384   -4.013844
     32          7           0       24.481696   -0.120794   -1.772511
     33          6           0       24.694716   -0.845001   -2.911801
     34          6           0       24.765744    0.001288   -4.055008
     35          6           0       24.474237    1.299119   -3.484815
     36          6           0       24.399798    1.160126   -2.070494
     37          6           0       24.968894   -0.481421   -5.440571
     38          6           0       24.200026    2.676156   -3.825685
     39          8           0       24.083726    3.280926   -4.873462
     40          6           0       23.983025    3.388757   -2.364551
     41          6           0       24.823694    4.604742   -2.221521
     42          8           0       26.033675    4.583205   -2.164842
     43          8           0       24.092646    5.730771   -2.147586
     44          6           0       24.813776    6.998985   -1.745390
     45          1           0       23.845390    1.379114    4.256759
     46          1           0       24.786924   -4.732417    2.388095
     47          1           0       24.890061   -2.878103   -3.768495
     48          1           0       24.559655    4.250197    0.532949
     49          1           0       23.178336    3.513452    2.967409
     50          1           0       25.818251    2.800046    3.073803
     51          1           0       24.957895    4.088805    4.070296
     52          1           0       25.773464    4.430838    2.499854
     53          1           0       21.649329    3.552159    0.783528
     54          1           0       22.325769    4.789897   -0.327781
     55          1           0       22.483942    5.330519    2.666406
     56          1           0       20.944148    5.504779    1.855539
     57          1           0       23.811173    0.250872    6.005465
     58          1           0       25.023594   -0.918230    6.357918
     59          1           0       23.362285   -1.373711    6.563135
     60          1           0       24.801250   -3.145760    7.070099
     61          1           0       24.678961   -4.880212    6.987763
     62          1           0       23.317097   -3.972181    6.536648
     63          1           0       24.033832   -5.564461   -0.041894
     64          1           0       25.636535   -4.762042   -2.281444
     65          1           0       25.969951   -6.816684    0.337866
     66          1           0       26.709630   -5.245611    0.643636
     67          1           0       26.758822   -6.025651   -0.936906
     68          1           0       22.732548   -4.289432   -2.906818
     69          1           0       22.734852   -5.822362   -2.169394
     70          1           0       23.367578   -5.279328   -4.904237
     71          1           0       23.195671   -6.865739   -4.053874
     72          1           0       24.686629   -5.988228   -4.139791
     73          1           0       25.774941   -1.214772   -5.435425
     74          1           0       25.148252    0.329102   -6.146450
     75          1           0       24.126369   -1.130093   -5.682468
     76          1           0       22.947235    3.726663   -2.361512
     77          1           0       24.134679    7.768987   -2.110789
     78          1           0       25.785020    7.018727   -2.239342
     79          1           0       24.844685    7.007017   -0.655758
     80         12           0      -25.028592   -0.393804   -0.275274
     81          6           0      -22.461363    2.040054   -0.283815
     82          6           0      -26.527602    1.398327    2.030029
     83          6           0      -26.740549   -3.141892    0.394983
     84          6           0      -22.814680   -2.376999   -2.223069
     85          7           0      -24.538363    1.639725    0.594157
     86          6           0      -23.564862    2.456611    0.417277
     87          6           0      -23.871081    3.824943    1.060231
     88          6           0      -24.949853    3.455017    2.200816
     89          6           0      -25.341060    2.025429    1.638311
     90          6           0      -24.419194    3.411146    3.688318
     91          6           0      -24.545956    4.825766   -0.015772
     92          6           0      -24.284701    6.364940    0.060514
     93          1           0      -23.992172    6.949903    1.491283
     94          7           0      -26.585049   -0.761297    0.888909
     95          6           0      -27.103930    0.185085    1.759698
     96          6           0      -28.286075   -0.422777    2.466301
     97          6           0      -28.358397   -1.777863    1.934907
     98          6           0      -27.232315   -2.024575    1.030188
     99          6           0      -29.062490    0.354605    3.512376
    100          6           0      -29.414111   -2.818360    2.237533
    101          8           0      -29.410372   -3.974933    1.793543
    102          6           0      -30.556967   -2.440109    3.089760
    103          7           0      -24.860467   -2.519727   -0.941859
    104          6           0      -25.690959   -3.421168   -0.449849
    105          6           0      -25.591478   -4.771302   -1.289906
    106          6           0      -24.239799   -4.474867   -2.139716
    107          6           0      -23.971113   -3.017153   -1.775646
    108          6           0      -25.571557   -6.065041   -0.410457
    109          6           0      -24.285698   -4.682744   -3.689144
    110          6           0      -23.480605   -5.826572   -4.250318
    111          7           0      -23.112906   -0.181347   -1.303161
    112          6           0      -22.390455   -1.100435   -2.037825
    113          6           0      -21.135299   -0.569456   -2.372215
    114          6           0      -21.108725    0.647992   -1.665884
    115          6           0      -22.291669    0.858526   -0.997733
    116          6           0      -20.090148   -1.171938   -3.168378
    117          6           0      -20.287554    1.782767   -1.492280
    118          8           0      -19.188889    2.185252   -1.962516
    119          6           0      -21.029634    2.619772   -0.355722
    120          6           0      -20.977269    4.070537   -0.666982
    121          8           0      -21.475100    4.655458   -1.626751
    122          8           0      -20.325109    4.712573    0.432592
    123          6           0      -20.145486    6.167514    0.347357
    124          1           0      -27.056127    2.091679    2.688231
    125          1           0      -27.354466   -4.024898    0.580913
    126          1           0      -22.175518   -2.963986   -2.886924
    127          1           0      -22.992489    4.107235    1.639725
    128          1           0      -25.696092    4.248160    2.232070
    129          1           0      -23.330364    3.421238    3.732873
    130          1           0      -24.706014    2.487141    4.190059
    131          1           0      -24.826498    4.298485    4.172787
    132          1           0      -25.624487    4.674597   -0.063369
    133          1           0      -24.249953    4.494890   -1.011461
    134          1           0      -25.105246    6.969124   -0.327816
    135          1           0      -23.316664    6.538280   -0.411189
    136          1           0      -30.140679    0.250383    3.385728
    137          1           0      -28.820318    1.417313    3.524819
    138          1           0      -28.701263    0.082230    4.503748
    139          1           0      -30.221034   -2.094416    4.067790
    140          1           0      -31.224475   -3.293123    3.212196
    141          1           0      -31.208531   -1.664198    2.687850
    142          1           0      -26.389278   -4.867736   -2.026239
    143          1           0      -23.365358   -4.958594   -1.701956
    144          1           0      -25.527836   -5.804328    0.647154
    145          1           0      -24.727207   -6.594594   -0.852222
    146          1           0      -26.443127   -6.651708   -0.697882
    147          1           0      -23.898868   -3.772728   -4.148299
    148          1           0      -25.322728   -4.781983   -4.010428
    149          1           0      -23.161805   -6.366395   -3.359643
    150          1           0      -22.593917   -5.405493   -4.725631
    151          1           0      -24.065040   -6.505194   -4.870380
    152          1           0      -20.552649   -1.489741   -4.102447
    153          1           0      -19.729716   -2.142857   -2.828393
    154          1           0      -19.314711   -0.433806   -3.374058
    155          1           0      -20.527190    2.422299    0.591736
    156          1           0      -19.562168    6.534507    1.192249
    157          1           0      -21.112379    6.644128    0.509843
    158          1           0      -19.594641    6.407035   -0.561591
 ---------------------------------------------------------------------

 SCF Done:  E(RPBE1PBE) =  -4067.34843319     A.U. after   16 cycles

 Excitation energies and oscillator strengths:

 Excited State   1:      Singlet-A      1.8570 eV  667.66 nm  f=0.3809  <S**2>=0.000
     310 -> 316       -0.17292
     312 -> 313        0.69305
     312 <- 313       -0.11171
 This state for optimization and/or second-order correction.
 Total Energy, E(TD-HF/TD-DFT) =  -4067.28019014
 Copying the excited state density for this state as the 1-particle RhoCI density.

 Excited State   2:      Singlet-A      1.9488 eV  636.21 nm  f=0.3530  <S**2>=0.000
     309 -> 315       -0.20419
     311 -> 314        0.68091

 Excited State   3:      Singlet-A      1.9849 eV  624.64 nm  f=0.0000  <S**2>=0.000
     312 -> 314        0.70711

 Excited State   4:      Singlet-A      2.1351 eV  580.70 nm  f=0.0000  <S**2>=0.000
     311 -> 313        0.70711

 Excited State   5:      Singlet-A      2.2125 eV  560.38 nm  f=0.0826  <S**2>=0.000
     309 -> 314        0.64637
     311 -> 315        0.26600

 The electronic state is 1-A.
 Alpha  occ. eigenvalues --  -46.92808 -46.91249 -19.25044 -19.24639 -19.20425
 Alpha  occ. eigenvalues --  -19.19261 -19.19197 -19.18908 -19.18782 -19.18458
 Alpha  occ. eigenvalues --  -14.42202 -14.41674 -14.41529 -14.41168 -14.39681
 Alpha  occ. eigenvalues --  -14.38712 -14.38318 -14.38085 -10.36315 -10.34935
 Alpha  occ. eigenvalues --  -10.32676 -10.32221 -10.31793 -10.31685 -10.29342
 Alpha  occ. eigenvalues --  -10.29312 -10.29263 -10.28912 -10.28832 -10.28682
 Alpha  occ. eigenvalues --  -10.28420 -10.28416 -10.28363 -10.28327 -10.28089
 Alpha  occ. eigenvalues --  -10.28075 -10.27946 -10.27427 -10.27306 -10.27112
 Alpha  occ. eigenvalues --  -10.26858 -10.26722 -10.26532 -10.26507 -10.26312
 Alpha  occ. eigenvalues --  -10.26176 -10.26092 -10.26089 -10.25974 -10.25925
 Alpha  occ. eigenvalues --  -10.25787 -10.25741 -10.25506 -10.25506 -10.25443
 Alpha  occ. eigenvalues --  -10.25428 -10.25316 -10.25311 -10.25144 -10.25122
 Alpha  occ. eigenvalues --  -10.25112 -10.24997 -10.24898 -10.24750 -10.24706
 Alpha  occ. eigenvalues --  -10.24694 -10.24653 -10.24643 -10.24495 -10.24490
 Alpha  occ. eigenvalues --  -10.24339 -10.23985 -10.23907 -10.23881 -10.23677
 Alpha  occ. eigenvalues --  -10.23646 -10.23400 -10.23372 -10.23318 -10.23185
 Alpha  occ. eigenvalues --  -10.23083 -10.23022 -10.23013 -10.22936 -10.22867
 Alpha  occ. eigenvalues --  -10.22409  -3.14845  -3.13486  -1.87688  -1.87227
 Alpha  occ. eigenvalues --   -1.87054  -1.86344  -1.85864  -1.85712  -1.10595
 Alpha  occ. eigenvalues --   -1.08700  -1.05679  -1.04257  -1.04115  -1.02057
 Alpha  occ. eigenvalues --   -1.01559  -1.01533  -1.00455  -0.99877  -0.99840
 Alpha  occ. eigenvalues --   -0.98784  -0.98247  -0.97931  -0.96983  -0.96104
 Alpha  occ. eigenvalues --   -0.87388  -0.86785  -0.83852  -0.83463  -0.83008
 Alpha  occ. eigenvalues --   -0.82957  -0.82631  -0.82213  -0.81925  -0.81865
 Alpha  occ. eigenvalues --   -0.81661  -0.81239  -0.81135  -0.80980  -0.78888
 Alpha  occ. eigenvalues --   -0.78611  -0.78286  -0.77978  -0.77019  -0.76779
 Alpha  occ. eigenvalues --   -0.76693  -0.76247  -0.75806  -0.75697  -0.75081
 Alpha  occ. eigenvalues --   -0.75038  -0.73295  -0.73112  -0.72102  -0.72069
 Alpha  occ. eigenvalues --   -0.71557  -0.71293  -0.70243  -0.70189  -0.69599
 Alpha  occ. eigenvalues --   -0.69506  -0.67724  -0.67221  -0.66764  -0.66255
 Alpha  occ. eigenvalues --   -0.63663  -0.63428  -0.63253  -0.62967  -0.62705
 Alpha  occ. eigenvalues --   -0.62331  -0.61640  -0.61332  -0.60451  -0.60111
 Alpha  occ. eigenvalues --   -0.60078  -0.60046  -0.59896  -0.59179  -0.59096
 Alpha  occ. eigenvalues --   -0.58739  -0.55986  -0.55848  -0.55096  -0.55054
 Alpha  occ. eigenvalues --   -0.54748  -0.54269  -0.53928  -0.53576  -0.53430
 Alpha  occ. eigenvalues --   -0.53053  -0.52557  -0.52336  -0.51897  -0.51677
 Alpha  occ. eigenvalues --   -0.51510  -0.50957  -0.50361  -0.50313  -0.50022
 Alpha  occ. eigenvalues --   -0.49745  -0.49340  -0.49067  -0.48853  -0.48570
 Alpha  occ. eigenvalues --   -0.48386  -0.48114  -0.47773  -0.47757  -0.47558
 Alpha  occ. eigenvalues --   -0.47349  -0.47118  -0.47095  -0.47042  -0.46888
 Alpha  occ. eigenvalues --   -0.46718  -0.46675  -0.46113  -0.45861  -0.45747
 Alpha  occ. eigenvalues --   -0.45593  -0.45520  -0.45418  -0.45082  -0.45055
 Alpha  occ. eigenvalues --   -0.45003  -0.44794  -0.44544  -0.44499  -0.44256
 Alpha  occ. eigenvalues --   -0.44039  -0.43922  -0.43792  -0.43679  -0.43584
 Alpha  occ. eigenvalues --   -0.43446  -0.43281  -0.43205  -0.43059  -0.42843
 Alpha  occ. eigenvalues --   -0.42670  -0.42490  -0.42397  -0.42324  -0.42126
 Alpha  occ. eigenvalues --   -0.42035  -0.41790  -0.41681  -0.41570  -0.41550
 Alpha  occ. eigenvalues --   -0.41329  -0.41202  -0.41088  -0.40962  -0.40912
 Alpha  occ. eigenvalues --   -0.40772  -0.40325  -0.40167  -0.39891  -0.39814
 Alpha  occ. eigenvalues --   -0.39753  -0.39558  -0.39223  -0.39033  -0.39011
 Alpha  occ. eigenvalues --   -0.38853  -0.38807  -0.38754  -0.38508  -0.38422
 Alpha  occ. eigenvalues --   -0.38158  -0.38058  -0.37806  -0.37655  -0.37530
 Alpha  occ. eigenvalues --   -0.37509  -0.36789  -0.36757  -0.36628  -0.36493
 Alpha  occ. eigenvalues --   -0.36391  -0.36313  -0.36123  -0.35988  -0.35885
 Alpha  occ. eigenvalues --   -0.35798  -0.35666  -0.35537  -0.35290  -0.35277
 Alpha  occ. eigenvalues --   -0.35071  -0.35030  -0.34445  -0.34194  -0.33990
 Alpha  occ. eigenvalues --   -0.33740  -0.33514  -0.32896  -0.32713  -0.32458
 Alpha  occ. eigenvalues --   -0.32286  -0.31903  -0.31578  -0.31328  -0.31060
 Alpha  occ. eigenvalues --   -0.30973  -0.30694  -0.29809  -0.29469  -0.29237
 Alpha  occ. eigenvalues --   -0.28972  -0.28810  -0.27867  -0.27439  -0.26598
 Alpha  occ. eigenvalues --   -0.26064  -0.26046  -0.25964  -0.25330  -0.25312
 Alpha  occ. eigenvalues --   -0.25180  -0.25033  -0.24661  -0.21129  -0.21103
 Alpha  occ. eigenvalues --   -0.19330  -0.18756
 Alpha virt. eigenvalues --   -0.11215  -0.11191  -0.06086  -0.05356  -0.04442
 Alpha virt. eigenvalues --   -0.03576  -0.02163  -0.01706  -0.00562  -0.00050
 Alpha virt. eigenvalues --    0.00575   0.00826   0.01136   0.01363   0.01395

 Mulliken charges:
               1
     1  Mg  12.002792
     2  C    6.016783
     3  C    5.985244
     4  C    5.985058
     5  C    6.009549
     6  N    7.005130
     7  C    5.967876
     8  C    6.006505
     9  C    5.993422
    10  C    6.027290
    11  C    5.998944
    12  C    6.004775
    13  C    5.998171
    14  H    1.001217
    15  N    6.996357
    16  C    6.034460
    17  C    6.027895
    18  C    6.008269
    19  C    6.031856
    20  C    5.995471
    21  C    6.012012
    22  O    8.020815
    23  C    5.993046
    24  N    6.996261
    25  C    6.040460
    26  C    5.991371
    27  C    6.013413
    28  C    5.964727
    29  C    5.997674
    30  C    6.002725
    31  C    6.000305
    32  N    7.002415
    33  C    5.969858
    34  C    5.969224
    35  C    5.997331
    36  C    5.970608
    37  C    6.000972
    38  C    5.983730
    39  O    7.970126
    40  C    5.997077
    41  C    5.996576
    42  O    7.995162
    43  O    7.998912
    44  C    6.000830
    45  H    1.008260
    46  H    1.008969
    47  H    0.989074
    48  H    1.000853
    49  H    0.999451
    50  H    0.995579
    51  H    1.000265
    52  H    1.011846
    53  H    0.993946
    54  H    1.005553
    55  H    0.993574
    56  H    0.997883
    57  H    1.019627
    58  H    1.021076
    59  H    1.019338
    60  H    1.004796
    61  H    1.013360
    62  H    1.007291
    63  H    0.999106
    64  H    0.998076
    65  H    1.001626
    66  H    0.996787
    67  H    1.011989
    68  H    1.002945
    69  H    0.988808
    70  H    1.004208
    71  H    0.994654
    72  H    0.998148
    73  H    0.982120
    74  H    0.986844
    75  H    0.979782
    76  H    0.992985
    77  H    0.996615
    78  H    0.998265
    79  H    0.993610
    80  Mg  11.999995
    81  C    6.000024
    82  C    5.999953
    83  C    5.999982
    84  C    6.000025
    85  N    7.000009
    86  C    6.000013
    87  C    5.999988
    88  C    6.000011
    89  C    5.999985
    90  C    6.000009
    91  C    5.999995
    92  C    6.000004
    93  H    0.999988
    94  N    6.999989
    95  C    5.999981
    96  C    6.000009
    97  C    5.999963
    98  C    6.000001
    99  C    6.000001
   100  C    5.999965
   101  O    7.999953
   102  C    6.000012
   103  N    6.999998
   104  C    6.000007
   105  C    6.000027
   106  C    5.999990
   107  C    6.000027
   108  C    6.000003
   109  C    5.999991
   110  C    6.000003
   111  N    7.000021
   112  C    5.999996
   113  C    6.000031
   114  C    5.999955
   115  C    6.000036
   116  C    6.000001
   117  C    6.000061
   118  O    8.000060
   119  C    5.999978
   120  C    6.000015
   121  O    8.000025
   122  O    7.999990
   123  C    5.999994
   124  H    0.999979
   125  H    0.999986
   126  H    1.000029
   127  H    0.999990
   128  H    0.999992
   129  H    0.999970
   130  H    0.999988
   131  H    0.999986
   132  H    1.000022
   133  H    1.000006
   134  H    1.000015
   135  H    1.000008
   136  H    0.999967
   137  H    0.999969
   138  H    0.999942
   139  H    0.999980
   140  H    0.999968
   141  H    0.999996
   142  H    0.999997
   143  H    0.999984
   144  H    0.999987
   145  H    0.999979
   146  H    0.999998
   147  H    1.000008
   148  H    1.000024
   149  H    0.999988
   150  H    1.000008
   151  H    1.000015
   152  H    1.000056
   153  H    1.000032
   154  H    1.000045
   155  H    0.999993
   156  H    0.999998
   157  H    1.000008
   158  H    1.000026
 Sum of Mulliken charges = 624.00000

 Dipole moment (field-independent basis, Debye):
    X=             -0.0594    Y=             -3.4760    Z=              9.8029  Tot=             10.4011
 Quadrupole moment (field-independent basis, Debye-Ang):
   XX=             -4.5943   YY=              1.6694   ZZ=              5.9856
   XY=            -85.3573   XZ=            240.1677   YZ=             -8.4599

 Normal termination of Gaussian 16 at Fri Oct 15 04:21:19 2021.
