 Gaussian 16, Revision A.03,
 Gaussian 16:  ES64L-G16RevA.03 25-Dec-2016

 --------------------------------------------------------
 #p PBE1PBE/Def2SVP td=(nstates=5) density=(transition=1)
 --------------------------------------------------------

 --------------------------------
 TDDFT excited states in gaussian
 --------------------------------
 Symbolic Z-matrix:
 Charge =  0 Multiplicity = 1

                         Standard orientation:
 ---------------------------------------------------------------------
 Center     Atomic      Atomic             Coordinates (Angstroms)
 Number     Number       Type             X           Y           Z
 ---------------------------------------------------------------------
      1         12           0      -30.579239    0.306085    0.207378
      2          6           0      -27.778468   -1.648197   -0.409747
      3          6           0      -31.835579   -0.512525   -2.813485
      4          6           0      -33.143748    2.360827    0.844723
      5          6           0      -29.117234    1.223552    3.254142
      6          7           0      -29.828076   -0.991063   -1.385934
      7          6           0      -28.754525   -1.744247   -1.407221
      8          6           0      -28.765527   -2.558987   -2.781829
      9          6           0      -29.550149   -1.565254   -3.612082
     10          6           0      -30.528914   -0.983180   -2.543188
     11          6           0      -28.594318   -0.555734   -4.283622
     12          6           0      -29.284140   -4.043070   -2.549883
     13          6           0      -28.897503   -5.033394   -3.652671
     14          1           0      -28.292087   -4.497425   -4.938515
     15          7           0      -32.318695    0.705711   -0.745586
     16          6           0      -32.689487    0.188448   -1.984574
     17          6           0      -34.119900    0.552561   -2.213692
     18          6           0      -34.512797    1.474654   -1.152609
     19          6           0      -33.256308    1.578336   -0.363994
     20          6           0      -34.909326    0.059538   -3.403215
     21          6           0      -35.910633    2.178661   -0.829039
     22          8           0      -36.108611    2.885523    0.164961
     23          6           0      -37.036306    1.925534   -1.810057
     24          7           0      -31.000624    1.655196    1.718731
     25          6           0      -32.102642    2.398974    1.764475
     26          6           0      -32.112464    3.392061    2.967384
     27          6           0      -30.959276    2.814740    3.800688
     28          6           0      -30.328733    1.785320    2.916382
     29          6           0      -31.940015    4.886579    2.577039
     30          6           0      -31.256956    2.368187    5.300957
     31          6           0      -31.381145    0.904827    5.571865
     32          7           0      -28.735246    0.070297    1.162993
     33          6           0      -28.308806    0.431634    2.396483
     34          6           0      -26.993397   -0.016006    2.686750
     35          6           0      -26.719653   -0.877226    1.577937
     36          6           0      -27.809175   -0.759007    0.745538
     37          6           0      -26.022077    0.240290    3.809722
     38          6           0      -25.800074   -1.789843    0.966454
     39          8           0      -24.705710   -2.186755    1.304260
     40          6           0      -26.484542   -2.461700   -0.266420
     41          6           0      -25.594271   -2.378473   -1.428148
     42          8           0      -25.232649   -1.311762   -1.901154
     43          8           0      -25.055172   -3.627798   -1.828573
     44          6           0      -24.063985   -3.584781   -2.915086
     45          1           0      -32.175591   -0.747991   -3.823026
     46          1           0      -33.972564    3.053108    1.002000
     47          1           0      -28.671850    1.570827    4.188378
     48          1           0      -27.744780   -2.697330   -3.135697
     49          1           0      -30.197109   -2.018257   -4.362886
     50          1           0      -28.699770   -0.809693   -5.338905
     51          1           0      -27.557990   -0.672578   -3.963924
     52          1           0      -29.044197    0.425382   -4.133177
     53          1           0      -30.372174   -4.052691   -2.479247
     54          1           0      -28.775176   -4.377891   -1.645728
     55          1           0      -29.798227   -5.598126   -3.891270
     56          1           0      -28.201295   -5.743028   -3.206336
     57          1           0      -34.600846   -0.944150   -3.697930
     58          1           0      -34.899732    0.680869   -4.298148
     59          1           0      -35.950581   -0.051021   -3.100819
     60          1           0      -36.592614    2.176257   -2.773289
     61          1           0      -37.900251    2.578294   -1.688544
     62          1           0      -37.384157    0.896732   -1.715521
     63          1           0      -33.051074    3.338806    3.518782
     64          1           0      -30.184027    3.579952    3.786349
     65          1           0      -31.242422    5.290622    3.311073
     66          1           0      -32.842781    5.494083    2.536361
     67          1           0      -31.557011    4.920525    1.557074
     68          1           0      -32.117684    2.931335    5.661852
     69          1           0      -30.403666    2.636510    5.923436
     70          1           0      -30.524026    0.613418    6.179392
     71          1           0      -31.227838    0.242488    4.718971
     72          1           0      -32.269582    0.622397    6.136783
     73          1           0      -26.388521    0.987897    4.514100
     74          1           0      -25.042045    0.461038    3.385753
     75          1           0      -25.861758   -0.579150    4.510708
     76          1           0      -26.711444   -3.511301   -0.081343
     77          1           0      -23.790335   -4.555320   -3.328199
     78          1           0      -23.202393   -3.113145   -2.441737
     79          1           0      -24.471904   -2.890123   -3.648415
     80         12           0       30.650381    0.117186   -0.378321
     81          6           0       27.453010   -0.363301    0.923796
     82          6           0       29.745487    3.309822   -1.312568
     83          6           0       33.742394    0.388453   -1.443294
     84          6           0       31.750009   -2.761390    1.567741
     85          7           0       28.688726    1.312158   -0.234870
     86          6           0       27.519728    0.932104    0.362311
     87          6           0       26.480313    1.986086    0.215756
     88          6           0       27.242800    3.188686   -0.470619
     89          6           0       28.687360    2.602197   -0.717794
     90          6           0       26.510967    3.810665   -1.686518
     91          6           0       25.845557    2.403317    1.564621
     92          6           0       24.321160    2.337024    1.489292
     93          1           0       23.524311    3.608589    1.910195
     94          7           0       31.605101    1.641399   -1.291404
     95          6           0       31.074090    2.880582   -1.646338
     96          6           0       32.137433    3.564998   -2.370430
     97          6           0       33.329658    2.706450   -2.457698
     98          6           0       32.911824    1.448100   -1.762540
     99          6           0       32.047567    4.954375   -2.762091
    100          6           0       34.615253    3.194382   -2.984398
    101          8           0       34.786637    4.301953   -3.448988
    102          6           0       35.886045    2.421234   -2.919616
    103          7           0       32.410457   -0.972494    0.044396
    104          6           0       33.502880   -0.805206   -0.768428
    105          6           0       34.596241   -1.777451   -0.378655
    106          6           0       34.101796   -2.398700    0.873860
    107          6           0       32.711022   -1.997929    0.900460
    108          6           0       35.051207   -2.771902   -1.524034
    109          6           0       34.764961   -1.802242    2.162602
    110          6           0       34.889198   -2.695868    3.308811
    111          7           0       29.809176   -1.332072    0.965773
    112          6           0       30.339014   -2.456699    1.611828
    113          6           0       29.265269   -3.245734    2.128902
    114          6           0       28.128691   -2.470274    1.932479
    115          6           0       28.515564   -1.267324    1.240818
    116          6           0       29.446337   -4.568057    2.778111
    117          6           0       26.744737   -2.393049    2.184079
    118          8           0       26.009980   -3.173275    2.747472
    119          6           0       26.247715   -1.092971    1.513428
    120          6           0       25.185963   -1.425141    0.550202
    121          8           0       25.361288   -1.764552   -0.632195
    122          8           0       23.972067   -1.459294    1.197323
    123          6           0       22.745400   -1.667416    0.445164
    124          1           0       29.371172    4.283210   -1.634683
    125          1           0       34.807716    0.370526   -1.686460
    126          1           0       32.119904   -3.632028    2.113331
    127          1           0       25.851492    1.627673   -0.599729
    128          1           0       27.364707    4.054654    0.179300
    129          1           0       25.486893    3.464540   -1.541481
    130          1           0       26.932503    3.602312   -2.669935
    131          1           0       26.512604    4.897172   -1.602821
    132          1           0       26.022023    3.444081    1.835606
    133          1           0       26.256132    1.727466    2.314571
    134          1           0       24.139848    1.613685    2.284144
    135          1           0       24.063650    1.937399    0.509540
    136          1           0       31.058176    5.318572   -2.484562
    137          1           0       32.099007    5.153632   -3.832909
    138          1           0       32.786485    5.533716   -2.207381
    139          1           0       35.522472    1.462983   -3.290702
    140          1           0       36.197062    2.349535   -1.877059
    141          1           0       36.643037    2.847604   -3.578205
    142          1           0       35.451456   -1.125010   -0.206397
    143          1           0       34.055082   -3.486779    0.919776
    144          1           0       34.624446   -2.472487   -2.481465
    145          1           0       34.924077   -3.829901   -1.292093
    146          1           0       36.103767   -2.669815   -1.786763
    147          1           0       34.225567   -0.902203    2.457958
    148          1           0       35.779031   -1.463620    1.950822
    149          1           0       35.821208   -3.254276    3.214900
    150          1           0       34.028015   -3.356509    3.414218
    151          1           0       35.114722   -2.114568    4.203446
    152          1           0       30.215391   -5.152724    2.273493
    153          1           0       28.527391   -5.147896    2.865758
    154          1           0       29.881270   -4.318382    3.745936
    155          1           0       25.701205   -0.444683    2.198502
    156          1           0       22.533211   -2.656834    0.039906
    157          1           0       22.676520   -0.925159   -0.349821
    158          1           0       21.958433   -1.526799    1.185187
 ---------------------------------------------------------------------

 SCF Done:  E(RPBE1PBE) =  -4067.35912799     A.U. after   16 cycles

 Excitation energies and oscillator strengths:

 Excited State   1:      Singlet-A      1.8373 eV  674.81 nm  f=0.3540  <S**2>=0.000
     309 -> 315       -0.18248
     311 -> 313        0.68987
     311 <- 313       -0.10422
 This state for optimization and/or second-order correction.
 Total Energy, E(TD-HF/TD-DFT) =  -4067.29160750
 Copying the excited state density for this state as the 1-particle RhoCI density.

 Excited State   2:      Singlet-A      1.8723 eV  662.22 nm  f=0.3799  <S**2>=0.000
     310 -> 316        0.17565
     312 -> 314        0.69312
     312 <- 314       -0.10656

 Excited State   3:      Singlet-A      1.9473 eV  636.69 nm  f=0.0000  <S**2>=0.000
     312 -> 313        0.70711

 Excited State   4:      Singlet-A      2.0944 eV  591.97 nm  f=0.0000  <S**2>=0.000
     311 -> 314        0.70711

 Excited State   5:      Singlet-A      2.1967 eV  564.42 nm  f=0.0978  <S**2>=0.000
     309 -> 313        0.64586
     311 -> 315        0.27292

 The electronic state is 1-A.
 Alpha  occ. eigenvalues --  -46.92304 -46.91181 -19.25498 -19.24627 -19.20491
 Alpha  occ. eigenvalues --  -19.19729 -19.19561 -19.18611 -19.18344 -19.17574
 Alpha  occ. eigenvalues --  -14.41815 -14.41434 -14.41387 -14.41100 -14.39904
 Alpha  occ. eigenvalues --  -14.39641 -14.38838 -14.38433 -10.36070 -10.35923
 Alpha  occ. eigenvalues --  -10.34196 -10.31433 -10.31336 -10.30789 -10.29310
 Alpha  occ. eigenvalues --  -10.29304 -10.29166 -10.28882 -10.28865 -10.28704
 Alpha  occ. eigenvalues --  -10.28691 -10.28540 -10.28403 -10.28334 -10.28320
 Alpha  occ. eigenvalues --  -10.28231 -10.28157 -10.27817 -10.27680 -10.27656
 Alpha  occ. eigenvalues --  -10.26853 -10.26817 -10.26482 -10.26476 -10.26383
 Alpha  occ. eigenvalues --  -10.26181 -10.26150 -10.26138 -10.26123 -10.26041
 Alpha  occ. eigenvalues --  -10.26011 -10.25921 -10.25761 -10.25733 -10.25665
 Alpha  occ. eigenvalues --  -10.25432 -10.25384 -10.25374 -10.25325 -10.25253
 Alpha  occ. eigenvalues --  -10.25121 -10.25047 -10.25033 -10.24913 -10.24780
 Alpha  occ. eigenvalues --  -10.24769 -10.24745 -10.24701 -10.24637 -10.24281
 Alpha  occ. eigenvalues --  -10.24274 -10.24087 -10.24034 -10.23925 -10.23759
 Alpha  occ. eigenvalues --  -10.23678 -10.23434 -10.23282 -10.23226 -10.23083
 Alpha  occ. eigenvalues --  -10.22971 -10.22497 -10.22459 -10.22238 -10.22194
 Alpha  occ. eigenvalues --  -10.22015  -3.14376  -3.13520  -1.87220  -1.86759
 Alpha  occ. eigenvalues --   -1.86589  -1.86375  -1.85860  -1.85793  -1.10185
 Alpha  occ. eigenvalues --   -1.09266  -1.05017  -1.04831  -1.04556  -1.04525
 Alpha  occ. eigenvalues --   -1.01612  -1.01477  -1.00379  -0.99577  -0.99439
 Alpha  occ. eigenvalues --   -0.98795  -0.98454  -0.97718  -0.97615  -0.96152
 Alpha  occ. eigenvalues --   -0.87006  -0.86605  -0.85096  -0.83838  -0.83552
 Alpha  occ. eigenvalues --   -0.83365  -0.82813  -0.82521  -0.82038  -0.81590
 Alpha  occ. eigenvalues --   -0.81584  -0.81283  -0.80754  -0.80538  -0.79513
 Alpha  occ. eigenvalues --   -0.78850  -0.78524  -0.78026  -0.77724  -0.77018
 Alpha  occ. eigenvalues --   -0.76785  -0.76589  -0.75719  -0.75340  -0.75142
 Alpha  occ. eigenvalues --   -0.74452  -0.72999  -0.72749  -0.72271  -0.71611
 Alpha  occ. eigenvalues --   -0.71398  -0.71022  -0.70606  -0.70140  -0.69726
 Alpha  occ. eigenvalues --   -0.69432  -0.67854  -0.67344  -0.66475  -0.65627
 Alpha  occ. eigenvalues --   -0.63787  -0.63697  -0.63461  -0.63152  -0.62367
 Alpha  occ. eigenvalues --   -0.62333  -0.61850  -0.60919  -0.60888  -0.60398
 Alpha  occ. eigenvalues --   -0.59796  -0.59590  -0.59260  -0.59172  -0.58777
 Alpha  occ. eigenvalues --   -0.58417  -0.56599  -0.55899  -0.55284  -0.55062
 Alpha  occ. eigenvalues --   -0.54215  -0.54061  -0.53995  -0.53747  -0.53621
 Alpha  occ. eigenvalues --   -0.52700  -0.52552  -0.52525  -0.52104  -0.51837
 Alpha  occ. eigenvalues --   -0.50975  -0.50400  -0.50374  -0.50240  -0.50026
 Alpha  occ. eigenvalues --   -0.50014  -0.49723  -0.49329  -0.49006  -0.48807
 Alpha  occ. eigenvalues --   -0.48429  -0.48217  -0.47890  -0.47731  -0.47462
 Alpha  occ. eigenvalues --   -0.47449  -0.47138  -0.47079  -0.46928  -0.46752
 Alpha  occ. eigenvalues --   -0.46639  -0.46472  -0.46446  -0.46322  -0.46263
 Alpha  occ. eigenvalues --   -0.45955  -0.45847  -0.45801  -0.45198  -0.45095
 Alpha  occ. eigenvalues --   -0.45045  -0.44998  -0.44635  -0.44392  -0.44180
 Alpha  occ. eigenvalues --   -0.44096  -0.44088  -0.43878  -0.43759  -0.43603
 Alpha  occ. eigenvalues --   -0.43484  -0.43469  -0.43230  -0.43210  -0.43101
 Alpha  occ. eigenvalues --   -0.43088  -0.42340  -0.42285  -0.42006  -0.41823
 Alpha  occ. eigenvalues --   -0.41708  -0.41670  -0.41481  -0.41261  -0.41259
 Alpha  occ. eigenvalues --   -0.41138  -0.41011  -0.40869  -0.40756  -0.40518
 Alpha  occ. eigenvalues --   -0.40484  -0.40482  -0.40068  -0.39735  -0.39676
 Alpha  occ. eigenvalues --   -0.39439  -0.39312  -0.39227  -0.39138  -0.38861
 Alpha  occ. eigenvalues --   -0.38831  -0.38545  -0.38504  -0.38344  -0.38203
 Alpha  occ. eigenvalues --   -0.38077  -0.38075  -0.37937  -0.37875  -0.37797
 Alpha  occ. eigenvalues --   -0.37782  -0.37408  -0.37399  -0.36979  -0.36943
 Alpha  occ. eigenvalues --   -0.36670  -0.36596  -0.36345  -0.36267  -0.36133
 Alpha  occ. eigenvalues --   -0.36041  -0.35915  -0.35818  -0.35571  -0.35507
 Alpha  occ. eigenvalues --   -0.35136  -0.34984  -0.34877  -0.34114  -0.34069
 Alpha  occ. eigenvalues --   -0.33506  -0.33173  -0.33050  -0.32663  -0.32559
 Alpha  occ. eigenvalues --   -0.32299  -0.32005  -0.31702  -0.31380  -0.31225
 Alpha  occ. eigenvalues --   -0.31223  -0.30567  -0.29695  -0.29514  -0.29031
 Alpha  occ. eigenvalues --   -0.28906  -0.28576  -0.28208  -0.27014  -0.26850
 Alpha  occ. eigenvalues --   -0.26623  -0.26000  -0.25679  -0.25469  -0.25469
 Alpha  occ. eigenvalues --   -0.25252  -0.25037  -0.24312  -0.21246  -0.20838
 Alpha  occ. eigenvalues --   -0.19206  -0.18973
 Alpha virt. eigenvalues --   -0.11598  -0.11294  -0.05952  -0.04803  -0.04197
 Alpha virt. eigenvalues --   -0.03931  -0.02032  -0.02029  -0.00171  -0.00032
 Alpha virt. eigenvalues --    0.00127   0.00761   0.00873   0.01239   0.01407

 Mulliken charges:
               1
     1  Mg  11.999980
     2  C    5.999911
     3  C    6.000058
     4  C    6.000032
     5  C    5.999995
     6  N    6.999946
     7  C    6.000137
     8  C    5.999999
     9  C    6.000010
    10  C    5.999877
    11  C    5.999983
    12  C    5.999979
    13  C    6.000002
    14  H    1.000012
    15  N    7.000118
    16  C    5.999785
    17  C    5.999838
    18  C    5.999827
    19  C    5.999907
    20  C    6.000024
    21  C    5.999965
    22  O    7.999850
    23  C    6.000003
    24  N    7.000060
    25  C    5.999902
    26  C    6.000029
    27  C    5.999972
    28  C    6.000140
    29  C    6.000003
    30  C    5.999990
    31  C    5.999992
    32  N    7.000027
    33  C    6.000105
    34  C    6.000126
    35  C    6.000010
    36  C    6.000163
    37  C    6.000006
    38  C    6.000103
    39  O    8.000167
    40  C    5.999954
    41  C    6.000062
    42  O    7.999995
    43  O    8.000004
    44  C    5.999994
    45  H    0.999918
    46  H    0.999959
    47  H    1.000073
    48  H    0.999999
    49  H    0.999996
    50  H    0.999984
    51  H    0.999942
    52  H    1.000008
    53  H    1.000053
    54  H    0.999973
    55  H    1.000013
    56  H    1.000001
    57  H    0.999924
    58  H    0.999891
    59  H    0.999923
    60  H    0.999972
    61  H    0.999915
    62  H    0.999953
    63  H    1.000000
    64  H    1.000010
    65  H    0.999949
    66  H    0.999995
    67  H    1.000004
    68  H    1.000042
    69  H    1.000002
    70  H    0.999999
    71  H    0.999996
    72  H    1.000038
    73  H    1.000089
    74  H    1.000095
    75  H    1.000125
    76  H    1.000047
    77  H    1.000040
    78  H    1.000018
    79  H    1.000015
    80  Mg  12.001367
    81  C    6.013107
    82  C    5.986606
    83  C    5.982717
    84  C    6.014997
    85  N    7.004290
    86  C    5.970224
    87  C    6.012496
    88  C    5.992442
    89  C    6.026494
    90  C    5.997366
    91  C    6.000993
    92  C    6.001196
    93  H    0.992618
    94  N    6.991362
    95  C    6.040887
    96  C    6.021628
    97  C    6.011153
    98  C    6.036192
    99  C    5.990635
   100  C    6.006938
   101  O    8.017488
   102  C    5.999587
   103  N    7.006146
   104  C    6.031958
   105  C    5.992758
   106  C    6.006804
   107  C    5.965165
   108  C    5.999303
   109  C    6.006278
   110  C    6.000976
   111  N    7.002478
   112  C    5.961166
   113  C    5.975445
   114  C    5.996460
   115  C    5.970161
   116  C    6.000453
   117  C    5.981946
   118  O    7.969306
   119  C    6.002871
   120  C    5.995248
   121  O    7.991673
   122  O    8.000313
   123  C    6.003135
   124  H    1.009580
   125  H    1.010534
   126  H    0.991172
   127  H    0.996818
   128  H    1.000579
   129  H    1.011013
   130  H    0.997461
   131  H    0.999720
   132  H    0.992963
   133  H    1.006611
   134  H    1.004019
   135  H    0.999541
   136  H    1.018352
   137  H    1.020757
   138  H    1.018894
   139  H    1.005662
   140  H    1.009822
   141  H    1.011414
   142  H    0.999079
   143  H    1.002452
   144  H    0.997587
   145  H    1.011625
   146  H    1.001584
   147  H    0.995120
   148  H    0.986663
   149  H    0.995051
   150  H    1.005625
   151  H    0.996590
   152  H    0.982579
   153  H    0.987484
   154  H    0.982656
   155  H    0.990751
   156  H    0.997181
   157  H    0.993999
   158  H    0.996231
 Sum of Mulliken charges = 624.00000

 Dipole moment (field-independent basis, Debye):
    X=              4.9595    Y=              6.8712    Z=             -5.4601  Tot=             10.0808
 Quadrupole moment (field-independent basis, Debye-Ang):
   XX=            293.8229   YY=              3.6076   ZZ=              1.3354
   XY=            211.7126   XZ=           -171.8141   YZ=             -1.5764

 Normal termination of Gaussian 16 at Fri Oct 15 19:09:37 2021.
