 Gaussian 16, Revision A.03,
 Gaussian 16:  ES64L-G16RevA.03 25-Dec-2016

 --------------------------------------------------------
 #p PBE1PBE/Def2SVP td=(nstates=5) density=(transition=1)
 --------------------------------------------------------

 --------------------------------
 TDDFT excited states in gaussian
 --------------------------------
 Symbolic Z-matrix:
 Charge =  0 Multiplicity = 1

                         Standard orientation:
 ---------------------------------------------------------------------
 Center     Atomic      Atomic             Coordinates (Angstroms)
 Number     Number       Type             X           Y           Z
 ---------------------------------------------------------------------
      1         12           0       20.469361    0.107531    0.463409
      2          6           0       18.005752   -1.796600   -1.331991
      3          6           0       21.525453    1.306634   -2.701667
      4          6           0       23.023130    1.935287    1.991114
      5          6           0       19.650295   -1.383810    3.338359
      6          7           0       19.903885   -0.422148   -1.830075
      7          6           0       18.819472   -1.112396   -2.243489
      8          6           0       18.768877   -1.139544   -3.813485
      9          6           0       20.052756   -0.301753   -4.154666
     10          6           0       20.509072    0.319689   -2.814695
     11          6           0       21.158410   -1.164348   -4.857538
     12          6           0       17.492133   -0.528213   -4.390088
     13          6           0       16.848182   -1.278265   -5.509620
     14          1           0       15.509948   -0.770740   -6.065896
     15          7           0       21.897672    1.566205   -0.181842
     16          6           0       22.159737    1.888116   -1.509370
     17          6           0       23.190301    2.907185   -1.529972
     18          6           0       23.570140    3.187439   -0.227839
     19          6           0       22.874739    2.150799    0.607136
     20          6           0       23.837392    3.444202   -2.774156
     21          6           0       24.655404    4.185202    0.350157
     22          8           0       24.937893    4.377515    1.507451
     23          6           0       25.330968    5.148484   -0.601655
     24          7           0       21.331460    0.165781    2.294655
     25          6           0       22.349670    0.957236    2.758591
     26          6           0       22.784589    0.570052    4.191346
     27          6           0       21.559725   -0.303117    4.699926
     28          6           0       20.772169   -0.495108    3.348057
     29          6           0       24.178099   -0.134618    4.237486
     30          6           0       20.698675    0.373659    5.809518
     31          6           0       19.898307    1.598204    5.371671
     32          7           0       19.174128   -1.293677    0.969301
     33          6           0       18.864176   -1.805940    2.259963
     34          6           0       17.793849   -2.797151    2.175566
     35          6           0       17.411235   -2.773214    0.822372
     36          6           0       18.244028   -1.857154    0.126805
     37          6           0       17.235688   -3.556742    3.287992
     38          6           0       16.463699   -3.388518   -0.101357
     39          8           0       15.556750   -4.171866    0.125118
     40          6           0       16.861516   -2.848452   -1.578728
     41          6           0       15.500716   -2.311413   -2.028732
     42          8           0       14.904330   -1.291865   -1.637618
     43          8           0       14.976592   -3.157351   -2.898490
     44          6           0       13.768624   -2.730418   -3.714862
     45          1           0       21.792510    1.725057   -3.674009
     46          1           0       23.798345    2.460744    2.554269
     47          1           0       19.385715   -1.775610    4.322408
     48          1           0       18.753242   -2.200538   -4.060505
     49          1           0       19.820419    0.546503   -4.799944
     50          1           0       21.515631   -0.792627   -5.817910
     51          1           0       20.937617   -2.231516   -4.886874
     52          1           0       22.137165   -1.173772   -4.377375
     53          1           0       17.905508    0.280263   -4.993329
     54          1           0       16.814081   -0.147700   -3.625382
     55          1           0       16.697289   -2.355886   -5.427808
     56          1           0       17.562420   -1.157282   -6.324144
     57          1           0       23.315156    3.109085   -3.669928
     58          1           0       24.889837    3.184814   -2.899062
     59          1           0       23.828645    4.529221   -2.879170
     60          1           0       24.620065    5.808273   -1.098926
     61          1           0       25.859753    4.461944   -1.262904
     62          1           0       26.097477    5.612023    0.019417
     63          1           0       22.947340    1.532313    4.678078
     64          1           0       21.742739   -1.360685    4.891354
     65          1           0       24.944382    0.479974    4.709843
     66          1           0       24.575867   -0.549998    3.312222
     67          1           0       23.945406   -1.007046    4.848347
     68          1           0       21.314433    0.435384    6.706919
     69          1           0       19.938348   -0.346523    6.111266
     70          1           0       20.086332    1.953067    4.359003
     71          1           0       20.198840    2.397845    6.048235
     72          1           0       18.819984    1.459685    5.302317
     73          1           0       16.444438   -4.256367    3.017882
     74          1           0       16.855067   -2.804360    3.978639
     75          1           0       18.061639   -4.074502    3.777730
     76          1           0       17.070925   -3.661092   -2.274307
     77          1           0       13.722263   -3.423835   -4.554868
     78          1           0       13.884788   -1.742541   -4.159592
     79          1           0       12.843736   -2.696625   -3.137894
     80         12           0      -20.077264   -0.458673   -0.274119
     81          6           0      -19.630456    2.953949    0.063406
     82          6           0      -16.591925   -0.883387    0.240517
     83          6           0      -20.505582   -3.848734   -0.016827
     84          6           0      -23.508892   -0.068128   -0.294462
     85          7           0      -18.336547    0.921483   -0.026330
     86          6           0      -18.428685    2.281332    0.183640
     87          6           0      -17.078764    2.949487    0.642905
     88          6           0      -16.038317    1.780353    0.304142
     89          6           0      -17.001485    0.482044    0.105686
     90          6           0      -15.041374    1.961393   -0.903222
     91          6           0      -17.025919    3.357256    2.073234
     92          6           0      -16.823857    4.809936    2.459339
     93          1           0      -16.123853    5.059096    3.804951
     94          7           0      -18.706968   -2.153322   -0.026027
     95          6           0      -17.309497   -2.054609    0.110765
     96          6           0      -16.737764   -3.363115    0.145048
     97          6           0      -17.908088   -4.275705    0.230160
     98          6           0      -19.143892   -3.447349    0.075924
     99          6           0      -15.246235   -3.644417    0.354654
    100          6           0      -17.727324   -5.792664    0.413575
    101          8           0      -16.670966   -6.406197    0.535267
    102          6           0      -18.933305   -6.574279    0.798275
    103          7           0      -21.843133   -1.832412    0.016352
    104          6           0      -21.708815   -3.160943   -0.095920
    105          6           0      -23.063212   -3.766501    0.269667
    106          6           0      -24.121917   -2.578357    0.105747
    107          6           0      -23.105879   -1.368779   -0.105173
    108          6           0      -23.424756   -4.903633   -0.750423
    109          6           0      -25.162658   -2.284897    1.263018
    110          6           0      -26.652405   -2.492120    1.034266
    111          7           0      -21.369841    1.148870   -0.221656
    112          6           0      -22.767069    1.170857   -0.274058
    113          6           0      -23.238321    2.516667   -0.153903
    114          6           0      -22.047195    3.293292   -0.010232
    115          6           0      -20.940090    2.363595   -0.113386
    116          6           0      -24.649594    3.013652   -0.147313
    117          6           0      -21.499259    4.580848    0.112929
    118          8           0      -22.088210    5.641415    0.175652
    119          6           0      -19.935281    4.422222    0.248266
    120          6           0      -19.286329    5.417341   -0.619640
    121          8           0      -18.756040    6.437404   -0.194326
    122          8           0      -19.395320    5.036127   -1.948660
    123          6           0      -18.800483    6.017927   -2.883142
    124          1           0      -15.535242   -1.136038    0.346254
    125          1           0      -20.543901   -4.940425   -0.015322
    126          1           0      -24.595652    0.031542   -0.259481
    127          1           0      -16.870986    3.813983    0.013326
    128          1           0      -15.490049    1.580539    1.225481
    129          1           0      -15.076750    3.012072   -1.191017
    130          1           0      -15.252151    1.328553   -1.765408
    131          1           0      -14.056673    1.660502   -0.547501
    132          1           0      -16.159749    2.852042    2.503213
    133          1           0      -17.951806    3.076256    2.573955
    134          1           0      -17.809138    5.258171    2.584066
    135          1           0      -16.217377    5.366359    1.745086
    136          1           0      -14.537620   -2.838274    0.543336
    137          1           0      -15.001697   -4.228107   -0.532476
    138          1           0      -15.247941   -4.425737    1.114007
    139          1           0      -19.569285   -7.000920    0.023829
    140          1           0      -19.544777   -6.053026    1.534975
    141          1           0      -18.560462   -7.468442    1.299221
    142          1           0      -23.088252   -4.167854    1.283032
    143          1           0      -24.633171   -2.661114   -0.852715
    144          1           0      -23.711373   -5.774001   -0.160176
    145          1           0      -22.635232   -5.173680   -1.452861
    146          1           0      -24.253038   -4.642545   -1.409522
    147          1           0      -24.973605   -1.243877    1.524076
    148          1           0      -24.903581   -2.985346    2.058177
    149          1           0      -27.141659   -1.842083    1.760089
    150          1           0      -26.908154   -3.521018    1.288323
    151          1           0      -27.096159   -2.245358    0.070328
    152          1           0      -24.582989    4.096798   -0.041748
    153          1           0      -25.163437    2.512856    0.672657
    154          1           0      -25.213309    2.824610   -1.061050
    155          1           0      -19.738835    4.714556    1.280347
    156          1           0      -19.549843    6.749916   -3.184206
    157          1           0      -18.360773    5.431297   -3.689723
    158          1           0      -17.952963    6.538843   -2.438564
 ---------------------------------------------------------------------

 SCF Done:  E(RPBE1PBE) =  -4067.34773530     A.U. after   16 cycles

 Excitation energies and oscillator strengths:

 Excited State   1:      Singlet-A      1.6822 eV  737.03 nm  f=0.0000  <S**2>=0.000
     312 -> 313        0.70711
 This state for optimization and/or second-order correction.
 Total Energy, E(TD-HF/TD-DFT) =  -4067.28591539
 Copying the excited state density for this state as the 1-particle RhoCI density.

 Excited State   2:      Singlet-A      1.8203 eV  681.14 nm  f=0.3592  <S**2>=0.000
     310 -> 316       -0.17695
     312 -> 314        0.69224
     312 <- 314       -0.10908

 Excited State   3:      Singlet-A      1.8585 eV  667.12 nm  f=0.3601  <S**2>=0.000
     309 -> 315       -0.17009
     311 -> 313        0.69177
     311 <- 313       -0.10671

 Excited State   4:      Singlet-A      2.1844 eV  567.59 nm  f=0.1535  <S**2>=0.000
     309 -> 313        0.65882
     311 -> 315        0.23362

 Excited State   5:      Singlet-A      2.2491 eV  551.26 nm  f=0.0000  <S**2>=0.000
     311 -> 314        0.70710

 The electronic state is 1-A.
 Alpha  occ. eigenvalues --  -46.93841 -46.91712 -19.25806 -19.25579 -19.20123
 Alpha  occ. eigenvalues --  -19.19652 -19.19628 -19.19138 -19.18773 -19.18273
 Alpha  occ. eigenvalues --  -14.42935 -14.41961 -14.41529 -14.41113 -14.39730
 Alpha  occ. eigenvalues --  -14.39612 -14.39609 -14.39415 -10.36182 -10.35515
 Alpha  occ. eigenvalues --  -10.32684 -10.32606 -10.32221 -10.31517 -10.30658
 Alpha  occ. eigenvalues --  -10.29525 -10.29489 -10.29429 -10.29234 -10.29226
 Alpha  occ. eigenvalues --  -10.29087 -10.28984 -10.28819 -10.28755 -10.28749
 Alpha  occ. eigenvalues --  -10.28680 -10.28287 -10.28187 -10.27833 -10.27789
 Alpha  occ. eigenvalues --  -10.27676 -10.27212 -10.27165 -10.26987 -10.26668
 Alpha  occ. eigenvalues --  -10.26552 -10.26489 -10.26472 -10.26413 -10.26299
 Alpha  occ. eigenvalues --  -10.26271 -10.26260 -10.26237 -10.26216 -10.26200
 Alpha  occ. eigenvalues --  -10.26199 -10.26076 -10.25986 -10.25948 -10.25843
 Alpha  occ. eigenvalues --  -10.25749 -10.25655 -10.25600 -10.25171 -10.25117
 Alpha  occ. eigenvalues --  -10.25099 -10.24918 -10.24725 -10.24489 -10.24357
 Alpha  occ. eigenvalues --  -10.24265 -10.24212 -10.24102 -10.23808 -10.23694
 Alpha  occ. eigenvalues --  -10.23674 -10.23657 -10.23649 -10.23570 -10.23468
 Alpha  occ. eigenvalues --  -10.23375 -10.23213 -10.22961 -10.22939 -10.22817
 Alpha  occ. eigenvalues --  -10.22609  -3.15643  -3.13979  -1.88510  -1.87991
 Alpha  occ. eigenvalues --   -1.87866  -1.86805  -1.86370  -1.86208  -1.10737
 Alpha  occ. eigenvalues --   -1.10326  -1.06143  -1.04823  -1.04738  -1.04610
 Alpha  occ. eigenvalues --   -1.02356  -1.00100  -0.99653  -0.98749  -0.98385
 Alpha  occ. eigenvalues --   -0.97737  -0.97033  -0.96861  -0.96375  -0.96239
 Alpha  occ. eigenvalues --   -0.87025  -0.85214  -0.83754  -0.83612  -0.83484
 Alpha  occ. eigenvalues --   -0.83017  -0.82472  -0.82284  -0.81998  -0.81706
 Alpha  occ. eigenvalues --   -0.81693  -0.81235  -0.80753  -0.79928  -0.78700
 Alpha  occ. eigenvalues --   -0.78387  -0.78198  -0.77857  -0.77131  -0.76634
 Alpha  occ. eigenvalues --   -0.76352  -0.75653  -0.75329  -0.75245  -0.75097
 Alpha  occ. eigenvalues --   -0.74495  -0.72420  -0.72237  -0.71609  -0.71460
 Alpha  occ. eigenvalues --   -0.71246  -0.71163  -0.70498  -0.70274  -0.69845
 Alpha  occ. eigenvalues --   -0.69479  -0.68004  -0.67053  -0.66715  -0.66083
 Alpha  occ. eigenvalues --   -0.64404  -0.63759  -0.63536  -0.63161  -0.62397
 Alpha  occ. eigenvalues --   -0.61963  -0.61513  -0.60653  -0.60056  -0.59886
 Alpha  occ. eigenvalues --   -0.59876  -0.59746  -0.59619  -0.59299  -0.59135
 Alpha  occ. eigenvalues --   -0.58649  -0.57583  -0.56397  -0.54796  -0.54369
 Alpha  occ. eigenvalues --   -0.54108  -0.54002  -0.53920  -0.53664  -0.53480
 Alpha  occ. eigenvalues --   -0.52433  -0.52387  -0.51962  -0.51483  -0.51126
 Alpha  occ. eigenvalues --   -0.50642  -0.50489  -0.50273  -0.50000  -0.49994
 Alpha  occ. eigenvalues --   -0.49631  -0.49332  -0.49150  -0.48503  -0.48490
 Alpha  occ. eigenvalues --   -0.48272  -0.47807  -0.47803  -0.47733  -0.47528
 Alpha  occ. eigenvalues --   -0.47377  -0.47315  -0.47259  -0.47008  -0.46957
 Alpha  occ. eigenvalues --   -0.46683  -0.46637  -0.46200  -0.46119  -0.45934
 Alpha  occ. eigenvalues --   -0.45668  -0.45571  -0.45459  -0.44955  -0.44789
 Alpha  occ. eigenvalues --   -0.44714  -0.44385  -0.44294  -0.44203  -0.44159
 Alpha  occ. eigenvalues --   -0.43876  -0.43843  -0.43626  -0.43560  -0.43520
 Alpha  occ. eigenvalues --   -0.43335  -0.43217  -0.43071  -0.42946  -0.42742
 Alpha  occ. eigenvalues --   -0.42656  -0.42324  -0.42238  -0.42150  -0.41912
 Alpha  occ. eigenvalues --   -0.41748  -0.41499  -0.41437  -0.41349  -0.41320
 Alpha  occ. eigenvalues --   -0.41061  -0.40914  -0.40788  -0.40741  -0.40566
 Alpha  occ. eigenvalues --   -0.40493  -0.40345  -0.40295  -0.40148  -0.39955
 Alpha  occ. eigenvalues --   -0.39901  -0.39700  -0.39429  -0.39297  -0.39221
 Alpha  occ. eigenvalues --   -0.39011  -0.38999  -0.38817  -0.38661  -0.38475
 Alpha  occ. eigenvalues --   -0.38415  -0.38248  -0.37937  -0.37873  -0.37769
 Alpha  occ. eigenvalues --   -0.37763  -0.37522  -0.37271  -0.37226  -0.37021
 Alpha  occ. eigenvalues --   -0.36970  -0.36729  -0.36410  -0.36375  -0.36232
 Alpha  occ. eigenvalues --   -0.36018  -0.35731  -0.35294  -0.35264  -0.35140
 Alpha  occ. eigenvalues --   -0.34939  -0.34648  -0.34543  -0.34388  -0.34025
 Alpha  occ. eigenvalues --   -0.33562  -0.33359  -0.33057  -0.32857  -0.32530
 Alpha  occ. eigenvalues --   -0.32438  -0.32190  -0.31766  -0.31723  -0.31080
 Alpha  occ. eigenvalues --   -0.30915  -0.30662  -0.29764  -0.29342  -0.29110
 Alpha  occ. eigenvalues --   -0.28750  -0.28672  -0.27631  -0.27420  -0.26917
 Alpha  occ. eigenvalues --   -0.26091  -0.26081  -0.25844  -0.25797  -0.25681
 Alpha  occ. eigenvalues --   -0.25544  -0.25522  -0.25009  -0.21562  -0.21042
 Alpha  occ. eigenvalues --   -0.19748  -0.18638
 Alpha virt. eigenvalues --   -0.12128  -0.11158  -0.05847  -0.05497  -0.04124
 Alpha virt. eigenvalues --   -0.03594  -0.02214  -0.02057  -0.00381   0.00385
 Alpha virt. eigenvalues --    0.00602   0.00636   0.00860   0.01357   0.01737

 Mulliken charges:
               1
     1  Mg  12.000000
     2  C    6.000000
     3  C    6.000000
     4  C    6.000000
     5  C    6.000000
     6  N    7.000000
     7  C    6.000000
     8  C    6.000000
     9  C    6.000000
    10  C    6.000000
    11  C    6.000000
    12  C    6.000000
    13  C    6.000000
    14  H    1.000000
    15  N    7.000000
    16  C    6.000000
    17  C    6.000000
    18  C    6.000000
    19  C    6.000000
    20  C    6.000000
    21  C    6.000000
    22  O    8.000000
    23  C    6.000000
    24  N    7.000000
    25  C    6.000000
    26  C    6.000000
    27  C    6.000000
    28  C    6.000000
    29  C    6.000000
    30  C    6.000000
    31  C    6.000000
    32  N    7.000000
    33  C    6.000000
    34  C    6.000000
    35  C    6.000000
    36  C    6.000000
    37  C    6.000000
    38  C    6.000000
    39  O    8.000000
    40  C    6.000000
    41  C    6.000000
    42  O    8.000000
    43  O    8.000000
    44  C    6.000000
    45  H    1.000000
    46  H    1.000000
    47  H    1.000000
    48  H    1.000000
    49  H    1.000000
    50  H    1.000000
    51  H    1.000000
    52  H    1.000000
    53  H    1.000000
    54  H    1.000000
    55  H    1.000000
    56  H    1.000000
    57  H    1.000000
    58  H    1.000000
    59  H    1.000000
    60  H    1.000000
    61  H    1.000000
    62  H    1.000000
    63  H    1.000000
    64  H    1.000000
    65  H    1.000000
    66  H    1.000000
    67  H    1.000000
    68  H    1.000000
    69  H    1.000000
    70  H    1.000000
    71  H    1.000000
    72  H    1.000000
    73  H    1.000000
    74  H    1.000000
    75  H    1.000000
    76  H    1.000000
    77  H    1.000000
    78  H    1.000000
    79  H    1.000000
    80  Mg  12.000000
    81  C    6.000000
    82  C    6.000000
    83  C    6.000000
    84  C    6.000000
    85  N    7.000000
    86  C    6.000000
    87  C    6.000000
    88  C    6.000000
    89  C    6.000000
    90  C    6.000000
    91  C    6.000000
    92  C    6.000000
    93  H    1.000000
    94  N    7.000000
    95  C    6.000000
    96  C    6.000000
    97  C    6.000000
    98  C    6.000000
    99  C    6.000000
   100  C    6.000000
   101  O    8.000000
   102  C    6.000000
   103  N    7.000000
   104  C    6.000000
   105  C    6.000000
   106  C    6.000000
   107  C    6.000000
   108  C    6.000000
   109  C    6.000000
   110  C    6.000000
   111  N    7.000000
   112  C    6.000000
   113  C    6.000000
   114  C    6.000000
   115  C    6.000000
   116  C    6.000000
   117  C    6.000000
   118  O    8.000000
   119  C    6.000000
   120  C    6.000000
   121  O    8.000000
   122  O    8.000000
   123  C    6.000000
   124  H    1.000000
   125  H    1.000000
   126  H    1.000000
   127  H    1.000000
   128  H    1.000000
   129  H    1.000000
   130  H    1.000000
   131  H    1.000000
   132  H    1.000000
   133  H    1.000000
   134  H    1.000000
   135  H    1.000000
   136  H    1.000000
   137  H    1.000000
   138  H    1.000000
   139  H    1.000000
   140  H    1.000000
   141  H    1.000000
   142  H    1.000000
   143  H    1.000000
   144  H    1.000000
   145  H    1.000000
   146  H    1.000000
   147  H    1.000000
   148  H    1.000000
   149  H    1.000000
   150  H    1.000000
   151  H    1.000000
   152  H    1.000000
   153  H    1.000000
   154  H    1.000000
   155  H    1.000000
   156  H    1.000000
   157  H    1.000000
   158  H    1.000000
 Sum of Mulliken charges = 624.00000

 Dipole moment (field-independent basis, Debye):
    X=              0.0000    Y=              0.0000    Z=             -0.0000  Tot=              0.0000
 Quadrupole moment (field-independent basis, Debye-Ang):
   XX=              0.0000   YY=              0.0000   ZZ=             -0.0000
   XY=              0.0000   XZ=             -0.0000   YZ=              0.0000

 Normal termination of Gaussian 16 at Thu Oct 14 16:43:18 2021.
