 Gaussian 16, Revision A.03,
 Gaussian 16:  ES64L-G16RevA.03 25-Dec-2016

 --------------------------------------------------------
 #p PBE1PBE/Def2SVP td=(nstates=5) density=(transition=1)
 --------------------------------------------------------

 --------------------------------
 TDDFT excited states in gaussian
 --------------------------------
 Symbolic Z-matrix:
 Charge =  0 Multiplicity = 1

                         Standard orientation:
 ---------------------------------------------------------------------
 Center     Atomic      Atomic             Coordinates (Angstroms)
 Number     Number       Type             X           Y           Z
 ---------------------------------------------------------------------
      1         12           0       26.207541    0.173860    0.365328
      2          6           0       23.113125   -1.311585   -0.170563
      3          6           0       27.248833   -1.446637   -2.651500
      4          6           0       29.012907    1.884259    0.464009
      5          6           0       24.731494    2.179095    2.846867
      6          7           0       25.234784   -1.110941   -1.268177
      7          6           0       23.969378   -1.645228   -1.172981
      8          6           0       23.673297   -2.519067   -2.394870
      9          6           0       25.096595   -2.738582   -2.978193
     10          6           0       25.926958   -1.680167   -2.301021
     11          6           0       25.774196   -4.153953   -2.801121
     12          6           0       22.700031   -1.860246   -3.386192
     13          6           0       22.241260   -2.719732   -4.501522
     14          1           0       20.893892   -2.315114   -5.212845
     15          7           0       27.927101    0.238398   -0.927742
     16          6           0       28.169421   -0.515375   -2.086710
     17          6           0       29.470829   -0.163244   -2.582133
     18          6           0       29.953244    0.918495   -1.756767
     19          6           0       28.944024    1.038922   -0.648457
     20          6           0       30.072476   -0.767473   -3.880911
     21          6           0       31.279975    1.636015   -2.024992
     22          8           0       32.071711    1.236034   -2.862356
     23          6           0       31.613878    2.845455   -1.238066
     24          7           0       26.843912    1.655180    1.657063
     25          6           0       28.071204    2.164436    1.505780
     26          6           0       28.264974    3.390648    2.486907
     27          6           0       26.890153    3.562595    3.240234
     28          6           0       26.042252    2.396473    2.489792
     29          6           0       29.505979    3.375389    3.417675
     30          6           0       26.302790    4.963832    2.967213
     31          6           0       25.425122    5.533882    4.088121
     32          7           0       24.314424    0.446025    1.232260
     33          6           0       23.889381    1.188815    2.297967
     34          6           0       22.512591    0.793999    2.618975
     35          6           0       22.224692   -0.223787    1.749720
     36          6           0       23.288046   -0.369732    0.887963
     37          6           0       21.671087    1.322244    3.785243
     38          6           0       21.195997   -1.131841    1.340018
     39          8           0       20.091889   -1.352723    1.773072
     40          6           0       21.737660   -1.888501    0.081403
     41          6           0       21.855927   -3.328493    0.440401
     42          8           0       22.382987   -3.793218    1.412867
     43          8           0       21.365565   -4.096773   -0.629747
     44          6           0       21.481558   -5.519134   -0.476851
     45          1           0       27.500135   -2.055822   -3.521713
     46          1           0       29.892207    2.509149    0.636401
     47          1           0       24.261502    2.734990    3.660988
     48          1           0       23.323562   -3.471757   -1.999482
     49          1           0       25.217461   -2.511982   -4.036929
     50          1           0       26.090782   -4.420097   -3.809382
     51          1           0       25.292897   -4.869618   -2.134040
     52          1           0       26.710630   -3.979242   -2.271544
     53          1           0       23.099737   -1.015620   -3.948046
     54          1           0       21.832702   -1.474056   -2.850637
     55          1           0       22.152283   -3.729134   -4.099912
     56          1           0       23.032841   -2.778553   -5.248340
     57          1           0       29.919959    0.105928   -4.515755
     58          1           0       29.481243   -1.545113   -4.364887
     59          1           0       31.099554   -1.124409   -3.959320
     60          1           0       30.721782    3.468336   -1.303405
     61          1           0       32.422563    3.372245   -1.744903
     62          1           0       31.816331    2.450051   -0.242388
     63          1           0       28.431066    4.252908    1.840517
     64          1           0       26.918194    3.357437    4.309914
     65          1           0       30.222038    4.103260    3.034825
     66          1           0       29.873584    2.352179    3.487738
     67          1           0       29.234255    3.764895    4.398750
     68          1           0       25.731065    4.849986    2.046548
     69          1           0       27.046501    5.712279    2.692945
     70          1           0       25.920444    6.475365    4.328004
     71          1           0       25.291335    4.870000    4.942299
     72          1           0       24.438434    5.790082    3.702041
     73          1           0       20.633466    1.567851    3.561578
     74          1           0       22.248324    2.192524    4.098407
     75          1           0       21.836650    0.629268    4.610302
     76          1           0       21.001079   -1.734057   -0.707166
     77          1           0       20.469183   -5.894650   -0.327617
     78          1           0       22.123463   -5.923402    0.306223
     79          1           0       21.898540   -5.910202   -1.404514
     80         12           0      -26.104208    0.729399   -0.095523
     81          6           0      -23.351644   -1.153682    1.125793
     82          6           0      -28.116969   -1.969621    0.988958
     83          6           0      -28.676304    2.173030   -1.490009
     84          6           0      -23.871460    3.097780   -1.321166
     85          7           0      -25.763780   -1.374929    0.953030
     86          6           0      -24.543839   -1.804530    1.414851
     87          6           0      -24.629287   -3.085167    2.227867
     88          6           0      -26.179160   -3.385017    2.048350
     89          6           0      -26.747070   -2.157607    1.319228
     90          6           0      -26.400991   -4.750383    1.404315
     91          6           0      -24.216841   -2.830911    3.694417
     92          6           0      -23.431892   -3.960906    4.463501
     93          1           0      -23.519525   -5.407026    3.921406
     94          7           0      -28.144716    0.225295   -0.172901
     95          6           0      -28.741489   -0.958803    0.261014
     96          6           0      -30.182795   -0.873754   -0.023093
     97          6           0      -30.369371    0.393513   -0.665686
     98          6           0      -29.020020    0.984864   -0.746776
     99          6           0      -31.104032   -1.939559    0.248694
    100          6           0      -31.662595    1.013935   -1.184725
    101          8           0      -31.651724    2.085467   -1.811185
    102          6           0      -32.976003    0.450945   -0.806150
    103          7           0      -26.240020    2.349641   -1.334756
    104          6           0      -27.439446    2.811124   -1.698497
    105          6           0      -27.303174    4.076926   -2.605719
    106          6           0      -25.806532    4.460368   -2.377751
    107          6           0      -25.241675    3.269772   -1.668440
    108          6           0      -27.740528    3.853597   -4.098135
    109          6           0      -25.843658    5.723959   -1.435853
    110          6           0      -25.738327    5.555197    0.119073
    111          7           0      -24.061707    1.025930   -0.034124
    112          6           0      -23.293196    2.055382   -0.607121
    113          6           0      -21.860244    1.755312   -0.364262
    114          6           0      -21.867730    0.505981    0.244946
    115          6           0      -23.161140    0.085654    0.472130
    116          6           0      -20.825666    2.540030   -1.015638
    117          6           0      -20.958728   -0.562321    0.652979
    118          8           0      -19.737353   -0.591540    0.552525
    119          6           0      -21.891457   -1.726605    1.232875
    120          6           0      -21.683562   -2.997570    0.497243
    121          8           0      -22.342662   -3.398450   -0.457747
    122          8           0      -20.609971   -3.695169    1.082427
    123          6           0      -20.136488   -4.947993    0.538768
    124          1           0      -28.826758   -2.623953    1.500129
    125          1           0      -29.496005    2.718365   -1.963198
    126          1           0      -23.278714    3.927331   -1.711507
    127          1           0      -24.013426   -3.885618    1.817058
    128          1           0      -26.572904   -3.522407    3.055050
    129          1           0      -27.040534   -5.427035    1.969997
    130          1           0      -25.503234   -5.318978    1.161643
    131          1           0      -26.967332   -4.569422    0.489777
    132          1           0      -25.085250   -2.579057    4.303013
    133          1           0      -23.617469   -1.927735    3.574700
    134          1           0      -23.823338   -4.072137    5.474135
    135          1           0      -22.445635   -3.538108    4.654861
    136          1           0      -31.914745   -1.499464    0.829711
    137          1           0      -30.580633   -2.826794    0.603715
    138          1           0      -31.379876   -2.215879   -0.769468
    139          1           0      -33.204026   -0.493746   -1.300699
    140          1           0      -33.764458    1.139706   -1.108944
    141          1           0      -32.929496    0.189897    0.250714
    142          1           0      -28.036902    4.704670   -2.100016
    143          1           0      -25.314145    4.746565   -3.307472
    144          1           0      -28.768960    4.186379   -4.239058
    145          1           0      -27.547708    2.805754   -4.325959
    146          1           0      -27.068980    4.466798   -4.698827
    147          1           0      -26.642038    6.390898   -1.761869
    148          1           0      -24.861033    6.169866   -1.592700
    149          1           0      -26.499607    6.237885    0.495439
    150          1           0      -24.774011    5.871805    0.518596
    151          1           0      -25.974418    4.567003    0.512344
    152          1           0      -21.073956    2.630232   -2.072374
    153          1           0      -19.903819    1.963566   -0.931877
    154          1           0      -20.614246    3.450669   -0.455814
    155          1           0      -21.535612   -1.842275    2.257110
    156          1           0      -19.281684   -4.835041   -0.127610
    157          1           0      -20.964031   -5.577498    0.211312
    158          1           0      -19.856853   -5.469729    1.454471
 ---------------------------------------------------------------------

 SCF Done:  E(RPBE1PBE) =  -4067.37894862     A.U. after   16 cycles

 Excitation energies and oscillator strengths:

 Excited State   1:      Singlet-A      1.8158 eV  682.82 nm  f=0.0000  <S**2>=0.000
     312 -> 313        0.70711
 This state for optimization and/or second-order correction.
 Total Energy, E(TD-HF/TD-DFT) =  -4067.31222079
 Copying the excited state density for this state as the 1-particle RhoCI density.

 Excited State   2:      Singlet-A      1.8853 eV  657.63 nm  f=0.3765  <S**2>=0.000
     310 -> 316        0.18505
     312 -> 314        0.68854
     312 <- 314       -0.10055

 Excited State   3:      Singlet-A      1.9035 eV  651.33 nm  f=0.3703  <S**2>=0.000
     309 -> 315        0.17017
     311 -> 313        0.69332
     311 <- 313       -0.10645

 Excited State   4:      Singlet-A      2.2635 eV  547.74 nm  f=0.0751  <S**2>=0.000
     310 -> 314        0.63961
     312 -> 316       -0.29066

 Excited State   5:      Singlet-A      2.2700 eV  546.18 nm  f=0.0000  <S**2>=0.000
     311 -> 314        0.70711

 The electronic state is 1-A.
 Alpha  occ. eigenvalues --  -46.93029 -46.91900 -19.25656 -19.24636 -19.20731
 Alpha  occ. eigenvalues --  -19.20066 -19.19641 -19.18940 -19.18802 -19.18701
 Alpha  occ. eigenvalues --  -14.42211 -14.41779 -14.41427 -14.40968 -14.39720
 Alpha  occ. eigenvalues --  -14.39192 -14.38886 -14.38704 -10.36561 -10.36439
 Alpha  occ. eigenvalues --  -10.32621 -10.32243 -10.31796 -10.31474 -10.29881
 Alpha  occ. eigenvalues --  -10.29054 -10.28917 -10.28674 -10.28597 -10.28536
 Alpha  occ. eigenvalues --  -10.28524 -10.28481 -10.28440 -10.28385 -10.28096
 Alpha  occ. eigenvalues --  -10.28015 -10.27850 -10.27759 -10.27288 -10.27124
 Alpha  occ. eigenvalues --  -10.26889 -10.26735 -10.26523 -10.26341 -10.26318
 Alpha  occ. eigenvalues --  -10.26157 -10.26140 -10.26076 -10.26057 -10.25970
 Alpha  occ. eigenvalues --  -10.25896 -10.25789 -10.25740 -10.25464 -10.25463
 Alpha  occ. eigenvalues --  -10.25458 -10.25245 -10.25229 -10.25170 -10.25110
 Alpha  occ. eigenvalues --  -10.25096 -10.25008 -10.25001 -10.24965 -10.24761
 Alpha  occ. eigenvalues --  -10.24668 -10.24653 -10.24421 -10.24242 -10.24223
 Alpha  occ. eigenvalues --  -10.24116 -10.23977 -10.23956 -10.23916 -10.23732
 Alpha  occ. eigenvalues --  -10.23705 -10.23640 -10.23241 -10.23239 -10.23123
 Alpha  occ. eigenvalues --  -10.23110 -10.22761 -10.22717 -10.22682 -10.22555
 Alpha  occ. eigenvalues --  -10.21920  -3.15033  -3.14024  -1.87879  -1.87411
 Alpha  occ. eigenvalues --   -1.87241  -1.86873  -1.86412  -1.86234  -1.11409
 Alpha  occ. eigenvalues --   -1.09374  -1.05267  -1.04658  -1.04492  -1.03757
 Alpha  occ. eigenvalues --   -1.03708  -1.02040  -0.99282  -0.99268  -0.98583
 Alpha  occ. eigenvalues --   -0.98428  -0.98283  -0.97755  -0.97444  -0.96172
 Alpha  occ. eigenvalues --   -0.87747  -0.86365  -0.83944  -0.83645  -0.83470
 Alpha  occ. eigenvalues --   -0.83100  -0.82904  -0.82722  -0.82440  -0.81580
 Alpha  occ. eigenvalues --   -0.81106  -0.80863  -0.80622  -0.80183  -0.79408
 Alpha  occ. eigenvalues --   -0.78343  -0.78323  -0.77605  -0.77323  -0.76759
 Alpha  occ. eigenvalues --   -0.76671  -0.76242  -0.75672  -0.75220  -0.75179
 Alpha  occ. eigenvalues --   -0.74804  -0.73077  -0.72085  -0.71697  -0.71455
 Alpha  occ. eigenvalues --   -0.71261  -0.71187  -0.70534  -0.70076  -0.69825
 Alpha  occ. eigenvalues --   -0.69121  -0.67775  -0.66620  -0.66477  -0.65751
 Alpha  occ. eigenvalues --   -0.63768  -0.63642  -0.63413  -0.63193  -0.62345
 Alpha  occ. eigenvalues --   -0.62298  -0.61046  -0.61029  -0.60489  -0.60107
 Alpha  occ. eigenvalues --   -0.59417  -0.59333  -0.59181  -0.59108  -0.58990
 Alpha  occ. eigenvalues --   -0.58759  -0.57301  -0.56107  -0.54754  -0.54697
 Alpha  occ. eigenvalues --   -0.54540  -0.53916  -0.53860  -0.53565  -0.53327
 Alpha  occ. eigenvalues --   -0.53103  -0.52566  -0.52443  -0.52234  -0.51741
 Alpha  occ. eigenvalues --   -0.51097  -0.50812  -0.50401  -0.50060  -0.49928
 Alpha  occ. eigenvalues --   -0.49776  -0.49475  -0.48955  -0.48798  -0.48596
 Alpha  occ. eigenvalues --   -0.48414  -0.48179  -0.48143  -0.47817  -0.47796
 Alpha  occ. eigenvalues --   -0.47696  -0.47519  -0.47341  -0.47322  -0.46886
 Alpha  occ. eigenvalues --   -0.46555  -0.46313  -0.46305  -0.46152  -0.46124
 Alpha  occ. eigenvalues --   -0.45961  -0.45455  -0.45318  -0.45317  -0.45139
 Alpha  occ. eigenvalues --   -0.44966  -0.44866  -0.44512  -0.44449  -0.44301
 Alpha  occ. eigenvalues --   -0.44072  -0.43956  -0.43752  -0.43651  -0.43443
 Alpha  occ. eigenvalues --   -0.43350  -0.43102  -0.42967  -0.42865  -0.42763
 Alpha  occ. eigenvalues --   -0.42674  -0.42236  -0.42217  -0.42049  -0.42020
 Alpha  occ. eigenvalues --   -0.41911  -0.41758  -0.41622  -0.41264  -0.41120
 Alpha  occ. eigenvalues --   -0.41097  -0.40895  -0.40862  -0.40738  -0.40559
 Alpha  occ. eigenvalues --   -0.40188  -0.40119  -0.39855  -0.39714  -0.39387
 Alpha  occ. eigenvalues --   -0.39358  -0.39051  -0.39032  -0.38957  -0.38794
 Alpha  occ. eigenvalues --   -0.38745  -0.38643  -0.38467  -0.38384  -0.38216
 Alpha  occ. eigenvalues --   -0.38184  -0.38143  -0.38016  -0.37789  -0.37739
 Alpha  occ. eigenvalues --   -0.37627  -0.37497  -0.37250  -0.37157  -0.36821
 Alpha  occ. eigenvalues --   -0.36796  -0.36674  -0.36643  -0.36389  -0.36042
 Alpha  occ. eigenvalues --   -0.35902  -0.35462  -0.35400  -0.35217  -0.35195
 Alpha  occ. eigenvalues --   -0.34802  -0.34739  -0.34646  -0.34207  -0.33729
 Alpha  occ. eigenvalues --   -0.33438  -0.33037  -0.32699  -0.32677  -0.32407
 Alpha  occ. eigenvalues --   -0.32134  -0.31948  -0.31695  -0.31504  -0.31130
 Alpha  occ. eigenvalues --   -0.31023  -0.30722  -0.30140  -0.29561  -0.29274
 Alpha  occ. eigenvalues --   -0.29246  -0.29058  -0.28676  -0.27388  -0.26595
 Alpha  occ. eigenvalues --   -0.26019  -0.25839  -0.25796  -0.25764  -0.25660
 Alpha  occ. eigenvalues --   -0.25593  -0.25116  -0.25100  -0.21549  -0.20759
 Alpha  occ. eigenvalues --   -0.19266  -0.18431
 Alpha virt. eigenvalues --   -0.11503  -0.10668  -0.05472  -0.05154  -0.03970
 Alpha virt. eigenvalues --   -0.03310  -0.02175  -0.01715  -0.00728   0.00270
 Alpha virt. eigenvalues --    0.00300   0.00550   0.00680   0.01095   0.01630

 Mulliken charges:
               1
     1  Mg  12.000000
     2  C    6.000000
     3  C    6.000000
     4  C    6.000000
     5  C    6.000000
     6  N    7.000000
     7  C    6.000000
     8  C    6.000000
     9  C    6.000000
    10  C    6.000000
    11  C    6.000000
    12  C    6.000000
    13  C    6.000000
    14  H    1.000000
    15  N    7.000000
    16  C    6.000000
    17  C    6.000000
    18  C    6.000000
    19  C    6.000000
    20  C    6.000000
    21  C    6.000000
    22  O    8.000000
    23  C    6.000000
    24  N    7.000000
    25  C    6.000000
    26  C    6.000000
    27  C    6.000000
    28  C    6.000000
    29  C    6.000000
    30  C    6.000000
    31  C    6.000000
    32  N    7.000000
    33  C    6.000000
    34  C    6.000000
    35  C    6.000000
    36  C    6.000000
    37  C    6.000000
    38  C    6.000000
    39  O    8.000000
    40  C    6.000000
    41  C    6.000000
    42  O    8.000000
    43  O    8.000000
    44  C    6.000000
    45  H    1.000000
    46  H    1.000000
    47  H    1.000000
    48  H    1.000000
    49  H    1.000000
    50  H    1.000000
    51  H    1.000000
    52  H    1.000000
    53  H    1.000000
    54  H    1.000000
    55  H    1.000000
    56  H    1.000000
    57  H    1.000000
    58  H    1.000000
    59  H    1.000000
    60  H    1.000000
    61  H    1.000000
    62  H    1.000000
    63  H    1.000000
    64  H    1.000000
    65  H    1.000000
    66  H    1.000000
    67  H    1.000000
    68  H    1.000000
    69  H    1.000000
    70  H    1.000000
    71  H    1.000000
    72  H    1.000000
    73  H    1.000000
    74  H    1.000000
    75  H    1.000000
    76  H    1.000000
    77  H    1.000000
    78  H    1.000000
    79  H    1.000000
    80  Mg  12.000000
    81  C    6.000000
    82  C    6.000000
    83  C    6.000000
    84  C    6.000000
    85  N    7.000000
    86  C    6.000000
    87  C    6.000000
    88  C    6.000000
    89  C    6.000000
    90  C    6.000000
    91  C    6.000000
    92  C    6.000000
    93  H    1.000000
    94  N    7.000000
    95  C    6.000000
    96  C    6.000000
    97  C    6.000000
    98  C    6.000000
    99  C    6.000000
   100  C    6.000000
   101  O    8.000000
   102  C    6.000000
   103  N    7.000000
   104  C    6.000000
   105  C    6.000000
   106  C    6.000000
   107  C    6.000000
   108  C    6.000000
   109  C    6.000000
   110  C    6.000000
   111  N    7.000000
   112  C    6.000000
   113  C    6.000000
   114  C    6.000000
   115  C    6.000000
   116  C    6.000000
   117  C    6.000000
   118  O    8.000000
   119  C    6.000000
   120  C    6.000000
   121  O    8.000000
   122  O    8.000000
   123  C    6.000000
   124  H    1.000000
   125  H    1.000000
   126  H    1.000000
   127  H    1.000000
   128  H    1.000000
   129  H    1.000000
   130  H    1.000000
   131  H    1.000000
   132  H    1.000000
   133  H    1.000000
   134  H    1.000000
   135  H    1.000000
   136  H    1.000000
   137  H    1.000000
   138  H    1.000000
   139  H    1.000000
   140  H    1.000000
   141  H    1.000000
   142  H    1.000000
   143  H    1.000000
   144  H    1.000000
   145  H    1.000000
   146  H    1.000000
   147  H    1.000000
   148  H    1.000000
   149  H    1.000000
   150  H    1.000000
   151  H    1.000000
   152  H    1.000000
   153  H    1.000000
   154  H    1.000000
   155  H    1.000000
   156  H    1.000000
   157  H    1.000000
   158  H    1.000000
 Sum of Mulliken charges = 624.00000

 Dipole moment (field-independent basis, Debye):
    X=             -0.0000    Y=             -0.0000    Z=             -0.0000  Tot=              0.0000
 Quadrupole moment (field-independent basis, Debye-Ang):
   XX=              0.0000   YY=             -0.0000   ZZ=             -0.0000
   XY=              0.0000   XZ=             -0.0000   YZ=             -0.0000

 Normal termination of Gaussian 16 at Fri Oct 15 15:53:43 2021.
