 Gaussian 16, Revision A.03,
 Gaussian 16:  ES64L-G16RevA.03 25-Dec-2016

 --------------------------------------------------------
 #p PBE1PBE/Def2SVP td=(nstates=5) density=(transition=1)
 --------------------------------------------------------

 --------------------------------
 TDDFT excited states in gaussian
 --------------------------------
 Symbolic Z-matrix:
 Charge =  0 Multiplicity = 1

                         Standard orientation:
 ---------------------------------------------------------------------
 Center     Atomic      Atomic             Coordinates (Angstroms)
 Number     Number       Type             X           Y           Z
 ---------------------------------------------------------------------
      1         12           0      -16.454980   -0.812917    0.032226
      2          6           0      -18.430321    1.791845    1.003254
      3          6           0      -13.736555    1.440101   -0.186859
      4          6           0      -14.536629   -3.291747   -1.146148
      5          6           0      -19.151014   -2.918321    0.344392
      6          7           0      -16.177905    1.392115    0.057595
      7          6           0      -17.143805    2.245446    0.606162
      8          6           0      -16.631142    3.709339    0.716376
      9          6           0      -15.166492    3.488120    0.253712
     10          6           0      -15.006222    2.009211   -0.048729
     11          6           0      -14.520085    4.359487   -0.905984
     12          6           0      -16.724824    4.395735    2.149775
     13          6           0      -16.150855    5.837946    2.141384
     14          1           0      -17.228191    6.917415    2.255139
     15          7           0      -14.355152   -0.912645   -0.547394
     16          6           0      -13.408992    0.064948   -0.326437
     17          6           0      -12.157566   -0.471733   -0.848270
     18          6           0      -12.407760   -1.852810   -1.132478
     19          6           0      -13.800850   -2.099143   -0.930282
     20          6           0      -10.937435    0.363900   -0.908393
     21          6           0      -11.320634   -2.815367   -1.725964
     22          8           0      -11.574197   -3.951819   -2.174419
     23          6           0       -9.892171   -2.352509   -1.847390
     24          7           0      -16.781083   -2.701960   -0.353473
     25          6           0      -15.811219   -3.605415   -0.872043
     26          6           0      -16.459901   -4.893370   -1.326218
     27          6           0      -17.701397   -4.889179   -0.436352
     28          6           0      -17.896763   -3.426819   -0.062117
     29          6           0      -16.804180   -4.899563   -2.853531
     30          6           0      -17.504651   -5.692212    0.868912
     31          6           0      -17.757041   -7.175827    0.843028
     32          7           0      -18.454545   -0.696955    0.520912
     33          6           0      -19.396099   -1.624251    0.759021
     34          6           0      -20.612565   -0.976385    1.151859
     35          6           0      -20.298813    0.359366    1.286591
     36          6           0      -18.946836    0.482647    0.930353
     37          6           0      -21.865628   -1.728639    1.436264
     38          6           0      -20.834594    1.602144    1.647130
     39          8           0      -21.936834    1.922614    2.048060
     40          6           0      -19.612101    2.621138    1.477712
     41          6           0      -20.034532    3.687247    0.529983
     42          8           0      -20.260230    3.567234   -0.649609
     43          8           0      -20.002791    4.890670    1.110192
     44          6           0      -20.361927    6.069759    0.231538
     45          1           0      -12.920287    2.157290   -0.079563
     46          1           0      -13.921757   -4.111479   -1.523111
     47          1           0      -20.015153   -3.539035    0.588777
     48          1           0      -17.164211    4.316893   -0.015006
     49          1           0      -14.493029    3.643303    1.097136
     50          1           0      -13.468094    4.619602   -0.785721
     51          1           0      -15.181367    5.189232   -1.156278
     52          1           0      -14.499504    3.684090   -1.761167
     53          1           0      -16.204672    3.692066    2.798533
     54          1           0      -17.772359    4.413586    2.450251
     55          1           0      -15.481704    5.966719    1.290643
     56          1           0      -15.547032    5.933768    3.043301
     57          1           0      -10.710448    0.548641   -1.958543
     58          1           0      -10.195254   -0.152157   -0.299315
     59          1           0      -11.093015    1.313429   -0.396046
     60          1           0       -9.269577   -3.165852   -2.220165
     61          1           0       -9.576979   -2.209358   -0.812910
     62          1           0       -9.712838   -1.442451   -2.419272
     63          1           0      -15.811434   -5.749309   -1.137200
     64          1           0      -18.597424   -5.249652   -0.941203
     65          1           0      -17.666625   -4.268321   -3.064033
     66          1           0      -16.983839   -5.918774   -3.196657
     67          1           0      -15.912072   -4.519487   -3.350092
     68          1           0      -18.068628   -5.284393    1.706828
     69          1           0      -16.491874   -5.536579    1.240878
     70          1           0      -16.821757   -7.654595    1.131666
     71          1           0      -17.863546   -7.386555   -0.221205
     72          1           0      -18.631435   -7.497469    1.409020
     73          1           0      -21.969263   -1.900882    2.506862
     74          1           0      -22.076616   -2.625248    0.852635
     75          1           0      -22.670930   -1.041787    1.175254
     76          1           0      -19.393133    3.056049    2.453178
     77          1           0      -19.753951    5.990363   -0.669932
     78          1           0      -20.121373    7.032214    0.683865
     79          1           0      -21.424723    5.998326   -0.000724
     80         12           0       16.652657   -0.625822    0.389965
     81          6           0       15.361129    2.301067   -1.116763
     82          6           0       18.317253    1.372465    2.618202
     83          6           0       18.352271   -3.294659    1.367943
     84          6           0       15.278881   -2.471592   -2.247710
     85          7           0       16.944631    1.600367    0.606730
     86          6           0       16.211607    2.578210   -0.070941
     87          6           0       16.367214    3.943385    0.643431
     88          6           0       17.342228    3.618084    1.833375
     89          6           0       17.551112    2.080828    1.745641
     90          6           0       18.565071    4.505041    1.989796
     91          6           0       15.070835    4.630435    1.100172
     92          6           0       14.903353    6.079254    0.565422
     93          1           0       14.696612    7.142423    1.621312
     94          7           0       18.076411   -0.907403    1.872481
     95          6           0       18.676648    0.019356    2.673265
     96          6           0       19.476878   -0.691016    3.642174
     97          6           0       19.615410   -2.072638    3.189874
     98          6           0       18.668182   -2.096113    2.085862
     99          6           0       20.301042    0.064365    4.808658
    100          6           0       20.617761   -3.103674    3.485649
    101          8           0       20.653065   -4.226805    3.070216
    102          6           0       21.748983   -2.684184    4.419664
    103          7           0       16.940121   -2.576457   -0.495429
    104          6           0       17.652750   -3.515126    0.157456
    105          6           0       17.408652   -4.899053   -0.448747
    106          6           0       16.177574   -4.667338   -1.339525
    107          6           0       16.074351   -3.158527   -1.353755
    108          6           0       18.674590   -5.402160   -1.282962
    109          6           0       14.890249   -5.308188   -0.609021
    110          6           0       14.369315   -4.539074    0.635695
    111          7           0       15.434387   -0.279181   -1.305821
    112          6           0       14.966094   -1.116467   -2.245426
    113          6           0       14.182304   -0.351448   -3.177600
    114          6           0       14.270409    0.959502   -2.748329
    115          6           0       15.103157    0.993658   -1.626476
    116          6           0       13.425942   -0.822207   -4.405234
    117          6           0       13.839972    2.304708   -3.138770
    118          8           0       13.265869    2.835487   -4.047420
    119          6           0       14.461296    3.225114   -2.055163
    120          6           0       15.313177    4.190018   -2.793829
    121          8           0       16.175133    3.817614   -3.549674
    122          8           0       14.954365    5.512847   -2.590605
    123          6           0       15.563968    6.519434   -3.522760
    124          1           0       18.669324    1.998185    3.441137
    125          1           0       18.794766   -4.228284    1.722593
    126          1           0       14.644367   -2.983229   -2.974437
    127          1           0       16.923713    4.616155   -0.009425
    128          1           0       16.822795    3.850238    2.763308
    129          1           0       18.756817    5.075207    1.082020
    130          1           0       19.467077    3.963407    2.275727
    131          1           0       18.298983    5.245170    2.744033
    132          1           0       14.915270    4.770864    2.169848
    133          1           0       14.199436    4.054262    0.789889
    134          1           0       14.155858    6.128929   -0.226271
    135          1           0       15.842188    6.362511    0.091255
    136          1           0       20.103196   -0.456312    5.745530
    137          1           0       20.022061    1.099143    5.003788
    138          1           0       21.377888    0.187680    4.693587
    139          1           0       21.229828   -2.443988    5.347799
    140          1           0       22.185726   -1.805147    3.946745
    141          1           0       22.465920   -3.472693    4.650565
    142          1           0       17.120870   -5.652155    0.285589
    143          1           0       16.190346   -4.969914   -2.386845
    144          1           0       18.669313   -6.491481   -1.236639
    145          1           0       19.669550   -5.096858   -0.957246
    146          1           0       18.463553   -5.077127   -2.301627
    147          1           0       15.040179   -6.350129   -0.326893
    148          1           0       14.019523   -5.212349   -1.257820
    149          1           0       13.614859   -5.058745    1.225370
    150          1           0       13.916445   -3.613021    0.281164
    151          1           0       15.233422   -4.292485    1.253495
    152          1           0       12.613437   -1.516956   -4.193707
    153          1           0       14.185266   -1.343898   -4.987200
    154          1           0       13.085062    0.002123   -5.031612
    155          1           0       13.595234    3.744552   -1.645405
    156          1           0       15.823652    7.284172   -2.790751
    157          1           0       14.850338    6.924813   -4.239808
    158          1           0       16.427672    6.252993   -4.131448
 ---------------------------------------------------------------------

 SCF Done:  E(RPBE1PBE) =  -4067.40715490     A.U. after   16 cycles

 Excitation energies and oscillator strengths:

 Excited State   1:      Singlet-A      1.8105 eV  684.80 nm  f=0.3826  <S**2>=0.000
     309 -> 315       -0.15510
     312 -> 314        0.69934
     312 <- 314       -0.12507
 This state for optimization and/or second-order correction.
 Total Energy, E(TD-HF/TD-DFT) =  -4067.34061963
 Copying the excited state density for this state as the 1-particle RhoCI density.

 Excited State   2:      Singlet-A      1.8421 eV  673.05 nm  f=0.0000  <S**2>=0.000
     312 -> 313        0.70710

 Excited State   3:      Singlet-A      1.8679 eV  663.75 nm  f=0.3794  <S**2>=0.000
     310 -> 316       -0.16809
     311 -> 313        0.69444
     311 <- 313       -0.11165

 Excited State   4:      Singlet-A      1.9890 eV  623.34 nm  f=0.0000  <S**2>=0.000
     311 -> 314        0.70710

 Excited State   5:      Singlet-A      2.2534 eV  550.20 nm  f=0.1066  <S**2>=0.000
     309 -> 314        0.64874
     312 -> 315        0.26390

 The electronic state is 1-A.
 Alpha  occ. eigenvalues --  -46.92972 -46.90914 -19.25811 -19.25504 -19.19822
 Alpha  occ. eigenvalues --  -19.19501 -19.19489 -19.18896 -19.18895 -19.18673
 Alpha  occ. eigenvalues --  -14.42156 -14.41732 -14.41424 -14.41380 -14.39476
 Alpha  occ. eigenvalues --  -14.38908 -14.38608 -14.38472 -10.35819 -10.35462
 Alpha  occ. eigenvalues --  -10.32492 -10.32316 -10.31965 -10.31534 -10.29774
 Alpha  occ. eigenvalues --  -10.29486 -10.29273 -10.29064 -10.29040 -10.28577
 Alpha  occ. eigenvalues --  -10.28551 -10.28501 -10.28383 -10.28006 -10.27854
 Alpha  occ. eigenvalues --  -10.27748 -10.27462 -10.27346 -10.27165 -10.27040
 Alpha  occ. eigenvalues --  -10.26984 -10.26843 -10.26577 -10.26570 -10.26538
 Alpha  occ. eigenvalues --  -10.26401 -10.26203 -10.25886 -10.25884 -10.25866
 Alpha  occ. eigenvalues --  -10.25776 -10.25622 -10.25619 -10.25614 -10.25607
 Alpha  occ. eigenvalues --  -10.25597 -10.25424 -10.25374 -10.25232 -10.25085
 Alpha  occ. eigenvalues --  -10.24971 -10.24955 -10.24925 -10.24796 -10.24751
 Alpha  occ. eigenvalues --  -10.24558 -10.24285 -10.24257 -10.24242 -10.24156
 Alpha  occ. eigenvalues --  -10.24067 -10.24026 -10.23979 -10.23605 -10.23529
 Alpha  occ. eigenvalues --  -10.23524 -10.23477 -10.23287 -10.23266 -10.23211
 Alpha  occ. eigenvalues --  -10.23207 -10.23076 -10.22747 -10.22568 -10.22534
 Alpha  occ. eigenvalues --  -10.22400  -3.14960  -3.13269  -1.87783  -1.87347
 Alpha  occ. eigenvalues --   -1.87175  -1.86114  -1.85662  -1.85490  -1.11629
 Alpha  occ. eigenvalues --   -1.10440  -1.06442  -1.05881  -1.05082  -1.03108
 Alpha  occ. eigenvalues --   -1.02463  -1.01905  -1.00066  -0.99857  -0.99006
 Alpha  occ. eigenvalues --   -0.98576  -0.98534  -0.97747  -0.96734  -0.96652
 Alpha  occ. eigenvalues --   -0.87625  -0.86734  -0.83401  -0.83223  -0.83136
 Alpha  occ. eigenvalues --   -0.83117  -0.82944  -0.82619  -0.82206  -0.82122
 Alpha  occ. eigenvalues --   -0.81505  -0.80908  -0.80899  -0.80648  -0.78755
 Alpha  occ. eigenvalues --   -0.78651  -0.78280  -0.77799  -0.76816  -0.76802
 Alpha  occ. eigenvalues --   -0.75833  -0.75527  -0.75514  -0.75227  -0.74921
 Alpha  occ. eigenvalues --   -0.74464  -0.72754  -0.72712  -0.71873  -0.71740
 Alpha  occ. eigenvalues --   -0.71530  -0.71086  -0.70490  -0.70483  -0.69627
 Alpha  occ. eigenvalues --   -0.69601  -0.67651  -0.67592  -0.66272  -0.66270
 Alpha  occ. eigenvalues --   -0.63882  -0.63731  -0.63673  -0.63331  -0.62682
 Alpha  occ. eigenvalues --   -0.62552  -0.61675  -0.60573  -0.60251  -0.59950
 Alpha  occ. eigenvalues --   -0.59878  -0.59687  -0.59414  -0.59205  -0.59098
 Alpha  occ. eigenvalues --   -0.58710  -0.56879  -0.56636  -0.55057  -0.54823
 Alpha  occ. eigenvalues --   -0.54593  -0.54311  -0.53895  -0.53724  -0.53510
 Alpha  occ. eigenvalues --   -0.53397  -0.52909  -0.52656  -0.52420  -0.52197
 Alpha  occ. eigenvalues --   -0.51159  -0.50655  -0.50468  -0.49938  -0.49745
 Alpha  occ. eigenvalues --   -0.49674  -0.49261  -0.49245  -0.48834  -0.48705
 Alpha  occ. eigenvalues --   -0.48058  -0.48033  -0.47996  -0.47602  -0.47409
 Alpha  occ. eigenvalues --   -0.47290  -0.47127  -0.46975  -0.46818  -0.46739
 Alpha  occ. eigenvalues --   -0.46582  -0.46320  -0.46295  -0.46166  -0.45910
 Alpha  occ. eigenvalues --   -0.45760  -0.45372  -0.45022  -0.44900  -0.44685
 Alpha  occ. eigenvalues --   -0.44598  -0.44459  -0.44429  -0.44283  -0.44105
 Alpha  occ. eigenvalues --   -0.44072  -0.43958  -0.43834  -0.43691  -0.43590
 Alpha  occ. eigenvalues --   -0.43418  -0.43106  -0.42980  -0.42974  -0.42745
 Alpha  occ. eigenvalues --   -0.42599  -0.42381  -0.42301  -0.42157  -0.42076
 Alpha  occ. eigenvalues --   -0.41853  -0.41703  -0.41616  -0.41340  -0.41141
 Alpha  occ. eigenvalues --   -0.41134  -0.40936  -0.40860  -0.40818  -0.40640
 Alpha  occ. eigenvalues --   -0.40571  -0.40350  -0.40192  -0.40127  -0.39959
 Alpha  occ. eigenvalues --   -0.39851  -0.39441  -0.39356  -0.39007  -0.38954
 Alpha  occ. eigenvalues --   -0.38583  -0.38572  -0.38540  -0.38358  -0.38226
 Alpha  occ. eigenvalues --   -0.38198  -0.38139  -0.37848  -0.37756  -0.37717
 Alpha  occ. eigenvalues --   -0.37378  -0.37179  -0.37020  -0.36905  -0.36892
 Alpha  occ. eigenvalues --   -0.36722  -0.36554  -0.36367  -0.36357  -0.36337
 Alpha  occ. eigenvalues --   -0.35999  -0.35796  -0.35777  -0.35598  -0.35340
 Alpha  occ. eigenvalues --   -0.35277  -0.34934  -0.34751  -0.34716  -0.34032
 Alpha  occ. eigenvalues --   -0.33375  -0.33344  -0.33092  -0.32990  -0.32864
 Alpha  occ. eigenvalues --   -0.32485  -0.32142  -0.31991  -0.31690  -0.31508
 Alpha  occ. eigenvalues --   -0.31400  -0.31237  -0.29638  -0.29505  -0.29158
 Alpha  occ. eigenvalues --   -0.29123  -0.28787  -0.28481  -0.27280  -0.27076
 Alpha  occ. eigenvalues --   -0.26212  -0.26193  -0.26036  -0.26000  -0.25792
 Alpha  occ. eigenvalues --   -0.25424  -0.25153  -0.24823  -0.21477  -0.21170
 Alpha  occ. eigenvalues --   -0.19232  -0.18797
 Alpha virt. eigenvalues --   -0.11628  -0.11526  -0.05120  -0.05040  -0.03847
 Alpha virt. eigenvalues --   -0.03729  -0.02079  -0.01973  -0.01171   0.00181
 Alpha virt. eigenvalues --    0.00771   0.00983   0.01115   0.01357   0.01712

 Mulliken charges:
               1
     1  Mg  11.998533
     2  C    5.975307
     3  C    5.995368
     4  C    6.029453
     5  C    6.013672
     6  N    6.988184
     7  C    6.039010
     8  C    5.985274
     9  C    6.006661
    10  C    5.975333
    11  C    6.004230
    12  C    5.997172
    13  C    6.002518
    14  H    0.995882
    15  N    7.005972
    16  C    5.963862
    17  C    5.976301
    18  C    5.992475
    19  C    5.955406
    20  C    6.004735
    21  C    5.987447
    22  O    7.974878
    23  C    6.005570
    24  N    7.017593
    25  C    5.961456
    26  C    6.007978
    27  C    5.994745
    28  C    6.020815
    29  C    6.001080
    30  C    5.992638
    31  C    5.999377
    32  N    6.996332
    33  C    6.022573
    34  C    6.035365
    35  C    5.998574
    36  C    6.031433
    37  C    5.995916
    38  C    6.015293
    39  O    8.026275
    40  C    6.002773
    41  C    6.001771
    42  O    8.003919
    43  O    8.001681
    44  C    5.999115
    45  H    0.983658
    46  H    0.995742
    47  H    1.013954
    48  H    1.001880
    49  H    0.998897
    50  H    0.999764
    51  H    0.985460
    52  H    1.001593
    53  H    1.005226
    54  H    0.992602
    55  H    1.006919
    56  H    1.002278
    57  H    0.981701
    58  H    0.982791
    59  H    0.984844
    60  H    0.986365
    61  H    0.994325
    62  H    0.994510
    63  H    1.001563
    64  H    1.001177
    65  H    0.987897
    66  H    0.994453
    67  H    1.007442
    68  H    0.995334
    69  H    1.015148
    70  H    1.007185
    71  H    1.004570
    72  H    0.999454
    73  H    1.022001
    74  H    1.017605
    75  H    1.015851
    76  H    1.007650
    77  H    1.005021
    78  H    1.004980
    79  H    1.000214
    80  Mg  12.000039
    81  C    5.999649
    82  C    6.000093
    83  C    6.000207
    84  C    6.000000
    85  N    6.999841
    86  C    6.000585
    87  C    5.999702
    88  C    6.000236
    89  C    5.999479
    90  C    6.000091
    91  C    5.999969
    92  C    5.999976
    93  H    1.000116
    94  N    7.000099
    95  C    5.999138
    96  C    5.999464
    97  C    5.999499
    98  C    5.999386
    99  C    6.000150
   100  C    5.999783
   101  O    7.999326
   102  C    6.000124
   103  N    7.000079
   104  C    5.999359
   105  C    6.000261
   106  C    5.999834
   107  C    6.000605
   108  C    6.000137
   109  C    5.999841
   110  C    5.999923
   111  N    6.999866
   112  C    6.000914
   113  C    6.000746
   114  C    6.000030
   115  C    6.000886
   116  C    5.999922
   117  C    6.000414
   118  O    8.000630
   119  C    6.000001
   120  C    6.000125
   121  O    7.999956
   122  O    8.000075
   123  C    5.999946
   124  H    0.999723
   125  H    0.999868
   126  H    1.000319
   127  H    0.999972
   128  H    0.999962
   129  H    0.999703
   130  H    1.000064
   131  H    0.999826
   132  H    1.000191
   133  H    1.000013
   134  H    0.999999
   135  H    0.999940
   136  H    0.999587
   137  H    0.999555
   138  H    0.999466
   139  H    0.999833
   140  H    0.999833
   141  H    0.999521
   142  H    0.999966
   143  H    0.999957
   144  H    0.999854
   145  H    1.000046
   146  H    0.999710
   147  H    1.000196
   148  H    1.000094
   149  H    1.000218
   150  H    0.999859
   151  H    1.000322
   152  H    1.000674
   153  H    1.000310
   154  H    1.000395
   155  H    1.000312
   156  H    1.000091
   157  H    1.000126
   158  H    0.999994
 Sum of Mulliken charges = 624.00000

 Dipole moment (field-independent basis, Debye):
    X=            -10.2389    Y=             -0.1660    Z=              2.5674  Tot=             10.5572
 Quadrupole moment (field-independent basis, Debye-Ang):
   XX=            322.4488   YY=              3.2248   ZZ=              0.2083
   XY=             11.0123   XZ=            -49.6454   YZ=             -2.7400

 Normal termination of Gaussian 16 at Fri Oct 15 05:34:16 2021.
