 Gaussian 16, Revision A.03,
 Gaussian 16:  ES64L-G16RevA.03 25-Dec-2016

 --------------------------------------------------------
 #p PBE1PBE/Def2SVP td=(nstates=5) density=(transition=1)
 --------------------------------------------------------

 --------------------------------
 TDDFT excited states in gaussian
 --------------------------------
 Symbolic Z-matrix:
 Charge =  0 Multiplicity = 1

                         Standard orientation:
 ---------------------------------------------------------------------
 Center     Atomic      Atomic             Coordinates (Angstroms)
 Number     Number       Type             X           Y           Z
 ---------------------------------------------------------------------
      1         12           0       18.676894   -0.389848    0.030756
      2          6           0       15.319336   -0.616907   -1.362155
      3          6           0       19.326677    2.028840   -2.318139
      4          6           0       21.013360    0.856609    2.072735
      5          6           0       17.901580   -2.894985    2.191662
      6          7           0       17.351642    0.723382   -1.534950
      7          6           0       16.018815    0.393576   -1.973959
      8          6           0       15.696007    1.176518   -3.249724
      9          6           0       17.076128    1.706449   -3.738889
     10          6           0       18.035919    1.488522   -2.487808
     11          6           0       17.644099    0.931303   -5.020391
     12          6           0       14.570829    2.167335   -3.181734
     13          6           0       14.103632    2.622472   -1.778999
     14          1           0       13.024100    3.673652   -1.462633
     15          7           0       20.104577    1.160649   -0.166890
     16          6           0       20.185371    2.055312   -1.211032
     17          6           0       21.392626    2.912458   -0.995283
     18          6           0       21.775580    2.629207    0.313260
     19          6           0       20.948221    1.553146    0.853768
     20          6           0       21.831353    3.889438   -2.027849
     21          6           0       22.910388    3.370619    1.078239
     22          8           0       23.443194    4.317424    0.527095
     23          6           0       23.293208    3.102857    2.496048
     24          7           0       19.210775   -0.897115    1.947177
     25          6           0       20.334650   -0.285405    2.501356
     26          6           0       20.749810   -0.976049    3.800409
     27          6           0       19.982163   -2.345236    3.720967
     28          6           0       19.025108   -2.067321    2.559613
     29          6           0       22.261260   -1.176553    4.081489
     30          6           0       19.269721   -2.811695    5.030894
     31          6           0       19.955311   -4.029716    5.803365
     32          7           0       17.004902   -1.613323    0.337900
     33          6           0       16.881025   -2.667416    1.231271
     34          6           0       15.657870   -3.379102    0.952772
     35          6           0       15.028323   -2.546293    0.017749
     36          6           0       15.920556   -1.501339   -0.327605
     37          6           0       15.201909   -4.628945    1.725436
     38          6           0       13.871530   -2.378544   -0.807417
     39          8           0       12.904979   -3.165705   -0.858109
     40          6           0       14.034359   -1.198085   -1.864373
     41          6           0       12.813091   -0.385468   -1.696183
     42          8           0       12.341104    0.026997   -0.631473
     43          8           0       12.382942   -0.074428   -2.943461
     44          6           0       11.045050    0.589591   -3.037308
     45          1           0       19.525587    2.809736   -3.054443
     46          1           0       21.789448    1.266730    2.722709
     47          1           0       17.735642   -3.773796    2.817659
     48          1           0       15.406296    0.323683   -3.863647
     49          1           0       17.097014    2.789445   -3.861759
     50          1           0       17.614082    1.690272   -5.801156
     51          1           0       17.027967    0.053215   -5.215378
     52          1           0       18.678926    0.686935   -4.777937
     53          1           0       13.767767    1.751557   -3.790003
     54          1           0       14.999798    2.998447   -3.742504
     55          1           0       15.015365    2.952748   -1.280243
     56          1           0       13.707339    1.766819   -1.231907
     57          1           0       21.637034    4.875166   -1.606149
     58          1           0       21.255927    3.705831   -2.934692
     59          1           0       22.878717    3.709732   -2.272930
     60          1           0       22.562702    3.315362    3.275700
     61          1           0       24.107084    3.740944    2.839108
     62          1           0       23.628408    2.068801    2.416838
     63          1           0       20.309760   -0.248399    4.483287
     64          1           0       20.733271   -3.057468    3.378687
     65          1           0       22.677702   -0.439302    4.768632
     66          1           0       22.823426   -1.046235    3.157381
     67          1           0       22.394824   -2.202237    4.427071
     68          1           0       18.219815   -3.075448    4.900460
     69          1           0       19.242871   -1.912628    5.646698
     70          1           0       19.905455   -3.693349    6.838664
     71          1           0       20.985894   -4.236728    5.514618
     72          1           0       19.396459   -4.925081    5.533481
     73          1           0       14.578733   -5.323544    1.161722
     74          1           0       14.598762   -4.172008    2.509240
     75          1           0       16.061402   -5.249391    1.978299
     76          1           0       14.135288   -1.623116   -2.864087
     77          1           0       10.817930    0.792890   -4.084393
     78          1           0       11.039784    1.542908   -2.508517
     79          1           0       10.391084   -0.160682   -2.595106
     80         12           0      -18.265631    0.381947    0.544452
     81          6           0      -15.492236   -0.940528   -1.170865
     82          6           0      -19.870426   -2.657242    0.016665
     83          6           0      -20.966017    1.781386    1.877513
     84          6           0      -16.824562    3.655604    0.233047
     85          7           0      -17.757921   -1.537681   -0.468516
     86          6           0      -16.499016   -1.868806   -0.989081
     87          6           0      -16.387163   -3.378273   -1.097591
     88          6           0      -17.848733   -3.899032   -0.991135
     89          6           0      -18.541591   -2.616784   -0.439202
     90          6           0      -18.462264   -4.515280   -2.287497
     91          6           0      -15.392635   -4.035763   -0.079056
     92          6           0      -14.682319   -5.353874   -0.620126
     93          1           0      -15.073746   -5.856838   -2.012182
     94          7           0      -20.050297   -0.359246    0.995457
     95          6           0      -20.503853   -1.648238    0.774240
     96          6           0      -21.800049   -1.838146    1.358651
     97          6           0      -22.205081   -0.536573    1.796194
     98          6           0      -21.055198    0.327673    1.598057
     99          6           0      -22.587052   -3.182831    1.298234
    100          6           0      -23.521622   -0.104562    2.354260
    101          8           0      -23.785344    1.105930    2.549549
    102          6           0      -24.772625   -0.964902    2.699726
    103          7           0      -18.950114    2.448451    0.751954
    104          6           0      -20.069639    2.747742    1.437500
    105          6           0      -20.079680    4.246053    1.831996
    106          6           0      -18.779770    4.855214    1.294480
    107          6           0      -18.099180    3.522942    0.749551
    108          6           0      -21.370986    4.911639    1.465273
    109          6           0      -17.900280    5.634438    2.295801
    110          6           0      -17.414756    4.822657    3.521958
    111          7           0      -16.537091    1.272063   -0.345139
    112          6           0      -16.053415    2.531430   -0.236355
    113          6           0      -14.673292    2.493143   -0.717493
    114          6           0      -14.347875    1.157713   -1.085841
    115          6           0      -15.549862    0.435881   -0.886862
    116          6           0      -13.688989    3.659515   -0.692554
    117          6           0      -13.328941    0.295503   -1.593587
    118          8           0      -12.132975    0.438167   -1.833751
    119          6           0      -14.089351   -1.178314   -1.738742
    120          6           0      -13.928205   -1.684178   -3.159930
    121          8           0      -14.612996   -1.305868   -4.090065
    122          8           0      -12.985911   -2.685660   -3.219804
    123          6           0      -12.409455   -3.036318   -4.513748
    124          1           0      -20.225741   -3.683935   -0.091672
    125          1           0      -21.844707    2.162584    2.401422
    126          1           0      -16.399289    4.659058    0.296945
    127          1           0      -15.997021   -3.640239   -2.080980
    128          1           0      -17.857542   -4.658433   -0.209789
    129          1           0      -19.361882   -3.916422   -2.425447
    130          1           0      -18.802482   -5.535303   -2.104867
    131          1           0      -17.895554   -4.492259   -3.218279
    132          1           0      -15.910235   -4.384578    0.814005
    133          1           0      -14.668780   -3.283966    0.232855
    134          1           0      -15.002818   -6.178284    0.017033
    135          1           0      -13.607095   -5.183562   -0.571183
    136          1           0      -23.638621   -2.940006    1.140652
    137          1           0      -22.528639   -3.744763    2.229784
    138          1           0      -22.334174   -3.955882    0.572755
    139          1           0      -24.510311   -1.762538    3.395332
    140          1           0      -25.266251   -1.359449    1.811641
    141          1           0      -25.473222   -0.484108    3.381415
    142          1           0      -20.163075    4.257448    2.917983
    143          1           0      -19.076488    5.377308    0.384138
    144          1           0      -22.035329    5.046039    2.319108
    145          1           0      -21.861080    4.355810    0.665759
    146          1           0      -21.253494    5.899526    1.018489
    147          1           0      -18.569016    6.417682    2.653346
    148          1           0      -17.050631    6.082933    1.780117
    149          1           0      -16.326599    4.850692    3.468853
    150          1           0      -17.804403    3.811624    3.402939
    151          1           0      -17.821043    5.161585    4.475059
    152          1           0      -12.696797    3.363523   -0.353088
    153          1           0      -13.973373    4.405764    0.048740
    154          1           0      -13.710937    4.140537   -1.670813
    155          1           0      -13.512279   -1.839103   -1.091364
    156          1           0      -13.226897   -3.005496   -5.234604
    157          1           0      -11.966847   -4.031230   -4.563424
    158          1           0      -11.608166   -2.315986   -4.678732
 ---------------------------------------------------------------------

 SCF Done:  E(RPBE1PBE) =  -4067.34805009     A.U. after   16 cycles

 Excitation energies and oscillator strengths:

 Excited State   1:      Singlet-A      1.7640 eV  702.86 nm  f=0.0000  <S**2>=0.000
     312 -> 313        0.70710
 This state for optimization and/or second-order correction.
 Total Energy, E(TD-HF/TD-DFT) =  -4067.28322419
 Copying the excited state density for this state as the 1-particle RhoCI density.

 Excited State   2:      Singlet-A      1.8047 eV  687.00 nm  f=0.3746  <S**2>=0.000
     309 -> 315        0.15281
     312 -> 314        0.69705
     312 <- 314       -0.11773

 Excited State   3:      Singlet-A      1.8182 eV  681.90 nm  f=0.3585  <S**2>=0.000
     310 -> 316        0.16247
     311 -> 313        0.69607
     311 <- 313       -0.11876

 Excited State   4:      Singlet-A      2.0430 eV  606.87 nm  f=0.0000  <S**2>=0.000
     311 -> 314        0.70710

 Excited State   5:      Singlet-A      2.1902 eV  566.10 nm  f=0.1406  <S**2>=0.000
     310 -> 313        0.66503
     311 -> 316       -0.22002

 The electronic state is 1-A.
 Alpha  occ. eigenvalues --  -46.92663 -46.92283 -19.26036 -19.24872 -19.19714
 Alpha  occ. eigenvalues --  -19.19639 -19.19412 -19.19066 -19.18486 -19.17581
 Alpha  occ. eigenvalues --  -14.41949 -14.41886 -14.41131 -14.41038 -14.39843
 Alpha  occ. eigenvalues --  -14.39242 -14.39093 -14.38479 -10.36198 -10.36064
 Alpha  occ. eigenvalues --  -10.32765 -10.32513 -10.32474 -10.30939 -10.29442
 Alpha  occ. eigenvalues --  -10.29336 -10.29243 -10.29051 -10.28996 -10.28590
 Alpha  occ. eigenvalues --  -10.28572 -10.28495 -10.28371 -10.28347 -10.28264
 Alpha  occ. eigenvalues --  -10.28180 -10.28155 -10.27970 -10.27688 -10.27088
 Alpha  occ. eigenvalues --  -10.26937 -10.26884 -10.26758 -10.26461 -10.26425
 Alpha  occ. eigenvalues --  -10.26368 -10.26199 -10.26196 -10.25889 -10.25868
 Alpha  occ. eigenvalues --  -10.25854 -10.25837 -10.25808 -10.25589 -10.25549
 Alpha  occ. eigenvalues --  -10.25523 -10.25443 -10.25301 -10.25289 -10.25090
 Alpha  occ. eigenvalues --  -10.25087 -10.25054 -10.25047 -10.24932 -10.24920
 Alpha  occ. eigenvalues --  -10.24881 -10.24819 -10.24723 -10.24651 -10.24370
 Alpha  occ. eigenvalues --  -10.24366 -10.24366 -10.24307 -10.23968 -10.23891
 Alpha  occ. eigenvalues --  -10.23818 -10.23638 -10.23627 -10.23510 -10.23490
 Alpha  occ. eigenvalues --  -10.23475 -10.23112 -10.23105 -10.23031 -10.22347
 Alpha  occ. eigenvalues --  -10.22000  -3.14732  -3.14431  -1.87543  -1.87241
 Alpha  occ. eigenvalues --   -1.87129  -1.86936  -1.86805  -1.86668  -1.10867
 Alpha  occ. eigenvalues --   -1.10163  -1.05225  -1.04229  -1.03000  -1.02347
 Alpha  occ. eigenvalues --   -1.02228  -1.01594  -0.99663  -0.98845  -0.98759
 Alpha  occ. eigenvalues --   -0.98023  -0.97844  -0.97251  -0.96838  -0.94847
 Alpha  occ. eigenvalues --   -0.86546  -0.86381  -0.83634  -0.83482  -0.83204
 Alpha  occ. eigenvalues --   -0.82865  -0.82743  -0.82368  -0.81682  -0.81073
 Alpha  occ. eigenvalues --   -0.80959  -0.80884  -0.80492  -0.79689  -0.78577
 Alpha  occ. eigenvalues --   -0.78057  -0.78020  -0.77625  -0.76748  -0.76574
 Alpha  occ. eigenvalues --   -0.76411  -0.75321  -0.75297  -0.74930  -0.74510
 Alpha  occ. eigenvalues --   -0.74091  -0.72825  -0.72266  -0.72063  -0.71244
 Alpha  occ. eigenvalues --   -0.71015  -0.70824  -0.70332  -0.70108  -0.69515
 Alpha  occ. eigenvalues --   -0.69300  -0.67524  -0.66992  -0.66065  -0.65463
 Alpha  occ. eigenvalues --   -0.64214  -0.64013  -0.63499  -0.63308  -0.62803
 Alpha  occ. eigenvalues --   -0.62138  -0.61870  -0.61303  -0.60547  -0.59780
 Alpha  occ. eigenvalues --   -0.59719  -0.59257  -0.59240  -0.58708  -0.58577
 Alpha  occ. eigenvalues --   -0.58110  -0.56734  -0.56195  -0.55367  -0.54089
 Alpha  occ. eigenvalues --   -0.54022  -0.53741  -0.53663  -0.53336  -0.52707
 Alpha  occ. eigenvalues --   -0.52494  -0.52022  -0.51992  -0.51786  -0.51416
 Alpha  occ. eigenvalues --   -0.51342  -0.50700  -0.50449  -0.50250  -0.49715
 Alpha  occ. eigenvalues --   -0.49327  -0.49285  -0.49163  -0.48765  -0.48443
 Alpha  occ. eigenvalues --   -0.48289  -0.47969  -0.47753  -0.47660  -0.47438
 Alpha  occ. eigenvalues --   -0.47268  -0.47117  -0.47110  -0.46954  -0.46661
 Alpha  occ. eigenvalues --   -0.46465  -0.46459  -0.45903  -0.45873  -0.45785
 Alpha  occ. eigenvalues --   -0.45609  -0.45485  -0.45305  -0.45286  -0.44579
 Alpha  occ. eigenvalues --   -0.44428  -0.44313  -0.44103  -0.43970  -0.43827
 Alpha  occ. eigenvalues --   -0.43808  -0.43674  -0.43623  -0.43396  -0.43333
 Alpha  occ. eigenvalues --   -0.43166  -0.42970  -0.42789  -0.42789  -0.42448
 Alpha  occ. eigenvalues --   -0.42436  -0.42295  -0.42259  -0.42049  -0.41849
 Alpha  occ. eigenvalues --   -0.41543  -0.41369  -0.41351  -0.41219  -0.41031
 Alpha  occ. eigenvalues --   -0.40980  -0.40923  -0.40547  -0.40472  -0.40205
 Alpha  occ. eigenvalues --   -0.40137  -0.39924  -0.39918  -0.39685  -0.39392
 Alpha  occ. eigenvalues --   -0.39290  -0.39238  -0.38949  -0.38821  -0.38798
 Alpha  occ. eigenvalues --   -0.38763  -0.38709  -0.38328  -0.38209  -0.38167
 Alpha  occ. eigenvalues --   -0.37945  -0.37644  -0.37635  -0.37549  -0.37423
 Alpha  occ. eigenvalues --   -0.37351  -0.37243  -0.37055  -0.37020  -0.36771
 Alpha  occ. eigenvalues --   -0.36761  -0.36707  -0.36640  -0.36460  -0.36259
 Alpha  occ. eigenvalues --   -0.35943  -0.35728  -0.35533  -0.35384  -0.34968
 Alpha  occ. eigenvalues --   -0.34883  -0.34559  -0.34308  -0.34083  -0.34020
 Alpha  occ. eigenvalues --   -0.33618  -0.33360  -0.32768  -0.32592  -0.32394
 Alpha  occ. eigenvalues --   -0.32136  -0.31873  -0.31564  -0.31368  -0.31328
 Alpha  occ. eigenvalues --   -0.30840  -0.30828  -0.29248  -0.29165  -0.29028
 Alpha  occ. eigenvalues --   -0.28869  -0.28381  -0.28283  -0.27076  -0.27032
 Alpha  occ. eigenvalues --   -0.26252  -0.25817  -0.25770  -0.25384  -0.25257
 Alpha  occ. eigenvalues --   -0.25222  -0.24924  -0.24273  -0.21247  -0.21023
 Alpha  occ. eigenvalues --   -0.18950  -0.18438
 Alpha virt. eigenvalues --   -0.11594  -0.11079  -0.05283  -0.04985  -0.04238
 Alpha virt. eigenvalues --   -0.03107  -0.02279  -0.01993  -0.01383  -0.01233
 Alpha virt. eigenvalues --    0.00188   0.00638   0.01040   0.01109   0.01874

 Mulliken charges:
               1
     1  Mg  12.000000
     2  C    6.000000
     3  C    6.000000
     4  C    6.000000
     5  C    6.000000
     6  N    7.000000
     7  C    6.000000
     8  C    6.000000
     9  C    6.000000
    10  C    6.000000
    11  C    6.000000
    12  C    6.000000
    13  C    6.000000
    14  H    1.000000
    15  N    7.000000
    16  C    6.000000
    17  C    6.000000
    18  C    6.000000
    19  C    6.000000
    20  C    6.000000
    21  C    6.000000
    22  O    8.000000
    23  C    6.000000
    24  N    7.000000
    25  C    6.000000
    26  C    6.000000
    27  C    6.000000
    28  C    6.000000
    29  C    6.000000
    30  C    6.000000
    31  C    6.000000
    32  N    7.000000
    33  C    6.000000
    34  C    6.000000
    35  C    6.000000
    36  C    6.000000
    37  C    6.000000
    38  C    6.000000
    39  O    8.000000
    40  C    6.000000
    41  C    6.000000
    42  O    8.000000
    43  O    8.000000
    44  C    6.000000
    45  H    1.000000
    46  H    1.000000
    47  H    1.000000
    48  H    1.000000
    49  H    1.000000
    50  H    1.000000
    51  H    1.000000
    52  H    1.000000
    53  H    1.000000
    54  H    1.000000
    55  H    1.000000
    56  H    1.000000
    57  H    1.000000
    58  H    1.000000
    59  H    1.000000
    60  H    1.000000
    61  H    1.000000
    62  H    1.000000
    63  H    1.000000
    64  H    1.000000
    65  H    1.000000
    66  H    1.000000
    67  H    1.000000
    68  H    1.000000
    69  H    1.000000
    70  H    1.000000
    71  H    1.000000
    72  H    1.000000
    73  H    1.000000
    74  H    1.000000
    75  H    1.000000
    76  H    1.000000
    77  H    1.000000
    78  H    1.000000
    79  H    1.000000
    80  Mg  12.000000
    81  C    6.000000
    82  C    6.000000
    83  C    6.000000
    84  C    6.000000
    85  N    7.000000
    86  C    6.000000
    87  C    6.000000
    88  C    6.000000
    89  C    6.000000
    90  C    6.000000
    91  C    6.000000
    92  C    6.000000
    93  H    1.000000
    94  N    7.000000
    95  C    6.000000
    96  C    6.000000
    97  C    6.000000
    98  C    6.000000
    99  C    6.000000
   100  C    6.000000
   101  O    8.000000
   102  C    6.000000
   103  N    7.000000
   104  C    6.000000
   105  C    6.000000
   106  C    6.000000
   107  C    6.000000
   108  C    6.000000
   109  C    6.000000
   110  C    6.000000
   111  N    7.000000
   112  C    6.000000
   113  C    6.000000
   114  C    6.000000
   115  C    6.000000
   116  C    6.000000
   117  C    6.000000
   118  O    8.000000
   119  C    6.000000
   120  C    6.000000
   121  O    8.000000
   122  O    8.000000
   123  C    6.000000
   124  H    1.000000
   125  H    1.000000
   126  H    1.000000
   127  H    1.000000
   128  H    1.000000
   129  H    1.000000
   130  H    1.000000
   131  H    1.000000
   132  H    1.000000
   133  H    1.000000
   134  H    1.000000
   135  H    1.000000
   136  H    1.000000
   137  H    1.000000
   138  H    1.000000
   139  H    1.000000
   140  H    1.000000
   141  H    1.000000
   142  H    1.000000
   143  H    1.000000
   144  H    1.000000
   145  H    1.000000
   146  H    1.000000
   147  H    1.000000
   148  H    1.000000
   149  H    1.000000
   150  H    1.000000
   151  H    1.000000
   152  H    1.000000
   153  H    1.000000
   154  H    1.000000
   155  H    1.000000
   156  H    1.000000
   157  H    1.000000
   158  H    1.000000
 Sum of Mulliken charges = 624.00000

 Dipole moment (field-independent basis, Debye):
    X=              0.0000    Y=              0.0000    Z=             -0.0000  Tot=              0.0000
 Quadrupole moment (field-independent basis, Debye-Ang):
   XX=              0.0000   YY=             -0.0000   ZZ=              0.0000
   XY=              0.0000   XZ=             -0.0000   YZ=              0.0000

 Normal termination of Gaussian 16 at Wed Oct 13 23:20:39 2021.
