 Gaussian 16, Revision A.03,
 Gaussian 16:  ES64L-G16RevA.03 25-Dec-2016

 --------------------------------------------------------
 #p PBE1PBE/Def2SVP td=(nstates=5) density=(transition=1)
 --------------------------------------------------------

 --------------------------------
 TDDFT excited states in gaussian
 --------------------------------
 Symbolic Z-matrix:
 Charge =  0 Multiplicity = 1

                         Standard orientation:
 ---------------------------------------------------------------------
 Center     Atomic      Atomic             Coordinates (Angstroms)
 Number     Number       Type             X           Y           Z
 ---------------------------------------------------------------------
      1         12           0       -9.917039    0.138771    0.641064
      2          6           0       -9.155067   -1.852082   -2.082069
      3          6           0       -6.812151   -0.790903    2.086124
      4          6           0      -10.317671    2.509893    3.082261
      5          6           0      -12.693650    1.398992   -0.981057
      6          7           0       -8.276882   -1.275598    0.088098
      7          6           0       -8.148992   -1.899400   -1.135127
      8          6           0       -6.746090   -2.577457   -1.362602
      9          6           0       -6.166853   -2.569712    0.130243
     10          6           0       -7.141796   -1.511648    0.893571
     11          6           0       -6.046323   -3.929864    0.917555
     12          6           0       -5.849334   -1.876265   -2.321283
     13          6           0       -5.374739   -2.565192   -3.586322
     14          1           0       -4.010769   -2.111114   -4.130523
     15          7           0       -8.760748    0.709683    2.415366
     16          6           0       -7.540143    0.130493    2.810391
     17          6           0       -7.133664    0.678439    4.065290
     18          6           0       -8.089486    1.790278    4.310114
     19          6           0       -9.133657    1.737248    3.240503
     20          6           0       -5.817038    0.332418    4.768492
     21          6           0       -7.926575    2.734028    5.514389
     22          8           0       -7.034279    2.716465    6.357375
     23          6           0       -8.729817    3.986225    5.503873
     24          7           0      -11.265077    1.923924    0.934061
     25          6           0      -11.300170    2.576646    2.103832
     26          6           0      -12.224597    3.776686    1.903625
     27          6           0      -13.109075    3.426160    0.617451
     28          6           0      -12.333884    2.120994    0.132147
     29          6           0      -13.177665    3.920331    3.142736
     30          6           0      -13.265987    4.490434   -0.544975
     31          6           0      -14.621358    5.112312   -0.846395
     32          7           0      -10.841061   -0.211602   -1.170323
     33          6           0      -12.005339    0.352935   -1.700635
     34          6           0      -12.238391   -0.156892   -3.017254
     35          6           0      -11.141078   -1.042739   -3.249086
     36          6           0      -10.356781   -1.047027   -2.030268
     37          6           0      -13.351583    0.172100   -3.961340
     38          6           0      -10.547804   -1.963124   -4.128928
     39          8           0      -10.926776   -2.291032   -5.235480
     40          6           0       -9.208085   -2.463807   -3.462612
     41          6           0       -9.124937   -3.924557   -3.617392
     42          8           0       -8.386691   -4.474563   -4.426782
     43          8           0      -10.006973   -4.548432   -2.747742
     44          6           0      -10.007195   -6.022513   -2.882281
     45          1           0       -5.907357   -1.033295    2.646645
     46          1           0      -10.412937    3.174813    3.943693
     47          1           0      -13.550380    1.840302   -1.494347
     48          1           0       -6.890935   -3.606266   -1.690422
     49          1           0       -5.198959   -2.069505    0.081627
     50          1           0       -6.179412   -4.731511    0.191159
     51          1           0       -6.755291   -4.044625    1.737599
     52          1           0       -5.057901   -3.943238    1.375324
     53          1           0       -4.926314   -1.666372   -1.778740
     54          1           0       -6.327914   -0.965319   -2.679176
     55          1           0       -6.076216   -2.314393   -4.381483
     56          1           0       -5.263107   -3.643494   -3.475038
     57          1           0       -5.083884   -0.328847    4.307171
     58          1           0       -6.167621   -0.028071    5.735255
     59          1           0       -5.424550    1.309174    5.049527
     60          1           0       -9.721083    3.995039    5.955066
     61          1           0       -8.768318    4.443092    4.514874
     62          1           0       -8.189609    4.691019    6.137060
     63          1           0      -11.681124    4.710022    1.754824
     64          1           0      -14.085251    3.052133    0.924146
     65          1           0      -13.120033    4.960642    3.462912
     66          1           0      -12.959675    3.259592    3.982735
     67          1           0      -14.217321    3.683769    2.915175
     68          1           0      -12.898996    3.966763   -1.427415
     69          1           0      -12.636041    5.329033   -0.245064
     70          1           0      -14.559200    5.431880   -1.886947
     71          1           0      -14.743065    6.005978   -0.233915
     72          1           0      -15.526248    4.509654   -0.775952
     73          1           0      -13.171749   -0.427847   -4.853814
     74          1           0      -13.323327    1.248193   -4.129880
     75          1           0      -14.350772   -0.085704   -3.609793
     76          1           0       -8.432502   -2.026175   -4.092049
     77          1           0      -10.747043   -6.330997   -3.620828
     78          1           0      -10.152667   -6.412477   -1.874899
     79          1           0       -9.029759   -6.402811   -3.177724
     80         12           0        9.987911    0.737676    0.052457
     81          6           0        8.260537   -1.876338    1.487428
     82          6           0        6.979273    1.949875   -1.036449
     83          6           0       11.689787    3.140649   -1.600948
     84          6           0       12.992611   -0.886232    0.703482
     85          7           0        7.858686   -0.049381    0.141115
     86          6           0        7.395324   -0.961998    0.905266
     87          6           0        5.787737   -1.103527    0.968624
     88          6           0        5.429900   -0.015476   -0.119360
     89          6           0        6.846086    0.654932   -0.452887
     90          6           0        4.822797   -0.599969   -1.500259
     91          6           0        5.133264   -0.831552    2.392001
     92          6           0        3.821011   -1.613361    2.754470
     93          1           0        3.150935   -2.355434    1.637800
     94          7           0        9.440310    2.327893   -1.057515
     95          6           0        8.087251    2.754868   -1.357679
     96          6           0        8.179859    4.004360   -2.105660
     97          6           0        9.538704    4.303647   -2.374770
     98          6           0       10.293476    3.267962   -1.633626
     99          6           0        6.904568    4.703859   -2.411571
    100          6           0       10.191137    5.485463   -3.129692
    101          8           0       11.353172    5.592686   -3.387364
    102          6           0        9.197161    6.499914   -3.730502
    103          7           0       12.051886    1.082174   -0.515627
    104          6           0       12.512300    2.097867   -1.174914
    105          6           0       14.009943    1.910606   -1.549393
    106          6           0       14.448602    0.682241   -0.716612
    107          6           0       13.096989    0.245399   -0.104181
    108          6           0       14.182605    1.730362   -3.072611
    109          6           0       15.567323    1.027125    0.313772
    110          6           0       16.950170    1.304511   -0.297759
    111          7           0       10.568139   -1.038906    0.926400
    112          6           0       11.841059   -1.504165    1.204698
    113          6           0       11.677410   -2.719132    1.958686
    114          6           0       10.281055   -2.981413    2.092527
    115          6           0        9.689076   -1.860541    1.449098
    116          6           0       12.737206   -3.539107    2.419039
    117          6           0        9.254712   -3.803671    2.649606
    118          8           0        9.373857   -4.910875    3.254157
    119          6           0        7.900291   -3.157700    2.161653
    120          6           0        7.209312   -4.151963    1.368700
    121          8           0        7.445490   -4.383120    0.183147
    122          8           0        6.393678   -4.852260    2.220669
    123          6           0        5.819072   -6.067213    1.605172
    124          1           0        6.037244    2.346879   -1.419212
    125          1           0       12.171527    3.963198   -2.134945
    126          1           0       13.966103   -1.318989    0.945168
    127          1           0        5.607037   -2.102898    0.571944
    128          1           0        4.690008    0.680051    0.276251
    129          1           0        5.091479   -1.654741   -1.564858
    130          1           0        5.246516   -0.057961   -2.345570
    131          1           0        3.741926   -0.524810   -1.623692
    132          1           0        4.887909    0.229643    2.359443
    133          1           0        5.818555   -0.785172    3.239061
    134          1           0        3.048596   -0.990387    3.205283
    135          1           0        4.066494   -2.408693    3.458297
    136          1           0        6.455421    4.303865   -3.321073
    137          1           0        6.993042    5.789532   -2.369296
    138          1           0        6.225267    4.491450   -1.586363
    139          1           0        8.729257    7.163728   -3.002840
    140          1           0        8.482486    5.835321   -4.214895
    141          1           0        9.586087    7.129621   -4.530137
    142          1           0       14.461445    2.825508   -1.166467
    143          1           0       14.766915   -0.117068   -1.385810
    144          1           0       13.311203    1.350300   -3.606270
    145          1           0       14.925735    1.013211   -3.422836
    146          1           0       14.434968    2.720961   -3.450824
    147          1           0       15.705364    0.175067    0.977944
    148          1           0       15.259554    1.879994    0.919692
    149          1           0       16.837539    1.295680   -1.381898
    150          1           0       17.579116    0.425622   -0.155253
    151          1           0       17.525092    2.157794    0.061260
    152          1           0       13.464426   -2.837993    2.828721
    153          1           0       13.261428   -4.122130    1.662000
    154          1           0       12.326438   -4.282982    3.102473
    155          1           0        7.355831   -3.005428    3.093945
    156          1           0        6.658665   -6.739339    1.425665
    157          1           0        5.194742   -5.831389    0.744009
    158          1           0        5.170095   -6.528959    2.349459
 ---------------------------------------------------------------------

 SCF Done:  E(RPBE1PBE) =  -4067.37703396     A.U. after   16 cycles

 Excitation energies and oscillator strengths:

 Excited State   1:      Singlet-A      1.6026 eV  773.65 nm  f=0.0000  <S**2>=0.000
     312 -> 313        0.70707
 This state for optimization and/or second-order correction.
 Total Energy, E(TD-HF/TD-DFT) =  -4067.31814010
 Copying the excited state density for this state as the 1-particle RhoCI density.

 Excited State   2:      Singlet-A      1.8581 eV  667.26 nm  f=0.3594  <S**2>=0.000
     309 -> 315       -0.17010
     311 -> 313        0.69185
     311 <- 313       -0.10674

 Excited State   3:      Singlet-A      1.9097 eV  649.25 nm  f=0.3719  <S**2>=0.000
     310 -> 316       -0.19439
     312 -> 314        0.68528

 Excited State   4:      Singlet-A      2.0852 eV  594.60 nm  f=0.0000  <S**2>=0.000
     310 -> 313        0.70709

 Excited State   5:      Singlet-A      2.1842 eV  567.63 nm  f=0.1562  <S**2>=0.000
     309 -> 313        0.65820
     311 -> 315        0.23330

 The electronic state is 1-A.
 Alpha  occ. eigenvalues --  -46.93984 -46.91816 -19.25922 -19.25491 -19.20245
 Alpha  occ. eigenvalues --  -19.20185 -19.19564 -19.19290 -19.18906 -19.18676
 Alpha  occ. eigenvalues --  -14.43080 -14.41669 -14.41607 -14.41077 -14.39756
 Alpha  occ. eigenvalues --  -14.39750 -14.39327 -14.38668 -10.36305 -10.35569
 Alpha  occ. eigenvalues --  -10.33237 -10.32372 -10.32058 -10.31649 -10.30804
 Alpha  occ. eigenvalues --  -10.29672 -10.29631 -10.29465 -10.29363 -10.28888
 Alpha  occ. eigenvalues --  -10.28859 -10.28530 -10.28397 -10.28328 -10.28204
 Alpha  occ. eigenvalues --  -10.28175 -10.28130 -10.27986 -10.27935 -10.27361
 Alpha  occ. eigenvalues --  -10.27325 -10.27129 -10.26889 -10.26836 -10.26777
 Alpha  occ. eigenvalues --  -10.26773 -10.26764 -10.26645 -10.26602 -10.26409
 Alpha  occ. eigenvalues --  -10.26401 -10.26327 -10.26224 -10.26015 -10.25921
 Alpha  occ. eigenvalues --  -10.25804 -10.25734 -10.25602 -10.25439 -10.25421
 Alpha  occ. eigenvalues --  -10.25389 -10.25296 -10.25256 -10.25241 -10.24974
 Alpha  occ. eigenvalues --  -10.24850 -10.24803 -10.24712 -10.24510 -10.24424
 Alpha  occ. eigenvalues --  -10.24394 -10.24273 -10.24229 -10.23982 -10.23797
 Alpha  occ. eigenvalues --  -10.23770 -10.23607 -10.23489 -10.23414 -10.23117
 Alpha  occ. eigenvalues --  -10.23077 -10.22979 -10.22838 -10.22757 -10.22406
 Alpha  occ. eigenvalues --  -10.22214  -3.15786  -3.14006  -1.88653  -1.88134
 Alpha  occ. eigenvalues --   -1.88009  -1.86840  -1.86385  -1.86233  -1.10444
 Alpha  occ. eigenvalues --   -1.10310  -1.07104  -1.04869  -1.04762  -1.02476
 Alpha  occ. eigenvalues --   -1.02060  -1.01606  -1.00019  -0.99793  -0.98983
 Alpha  occ. eigenvalues --   -0.98888  -0.98275  -0.97179  -0.96385  -0.95337
 Alpha  occ. eigenvalues --   -0.87163  -0.86959  -0.83897  -0.83771  -0.83607
 Alpha  occ. eigenvalues --   -0.82600  -0.82594  -0.82140  -0.82050  -0.81839
 Alpha  occ. eigenvalues --   -0.81830  -0.81314  -0.81103  -0.80080  -0.78847
 Alpha  occ. eigenvalues --   -0.78326  -0.78218  -0.77727  -0.77275  -0.76585
 Alpha  occ. eigenvalues --   -0.76499  -0.75832  -0.75378  -0.75377  -0.75239
 Alpha  occ. eigenvalues --   -0.74592  -0.72759  -0.72372  -0.71711  -0.71592
 Alpha  occ. eigenvalues --   -0.71319  -0.70696  -0.70637  -0.70067  -0.69980
 Alpha  occ. eigenvalues --   -0.69182  -0.68146  -0.66855  -0.66704  -0.65909
 Alpha  occ. eigenvalues --   -0.63889  -0.63746  -0.63672  -0.63161  -0.62698
 Alpha  occ. eigenvalues --   -0.62547  -0.61667  -0.61352  -0.60213  -0.60188
 Alpha  occ. eigenvalues --   -0.60019  -0.59892  -0.59802  -0.59448  -0.59304
 Alpha  occ. eigenvalues --   -0.58644  -0.57704  -0.56165  -0.54939  -0.54508
 Alpha  occ. eigenvalues --   -0.54477  -0.54147  -0.53978  -0.53811  -0.53697
 Alpha  occ. eigenvalues --   -0.52910  -0.52571  -0.52472  -0.52165  -0.51613
 Alpha  occ. eigenvalues --   -0.51269  -0.50630  -0.50544  -0.50193  -0.50134
 Alpha  occ. eigenvalues --   -0.49775  -0.49455  -0.49116  -0.48620  -0.48571
 Alpha  occ. eigenvalues --   -0.48410  -0.47945  -0.47875  -0.47672  -0.47507
 Alpha  occ. eigenvalues --   -0.47456  -0.47361  -0.47171  -0.47157  -0.46832
 Alpha  occ. eigenvalues --   -0.46763  -0.46483  -0.46260  -0.46076  -0.45971
 Alpha  occ. eigenvalues --   -0.45797  -0.45621  -0.45444  -0.45294  -0.45092
 Alpha  occ. eigenvalues --   -0.44939  -0.44806  -0.44434  -0.44303  -0.44097
 Alpha  occ. eigenvalues --   -0.43766  -0.43730  -0.43666  -0.43589  -0.43465
 Alpha  occ. eigenvalues --   -0.43149  -0.43091  -0.43087  -0.42806  -0.42784
 Alpha  occ. eigenvalues --   -0.42483  -0.42471  -0.42468  -0.42053  -0.41888
 Alpha  occ. eigenvalues --   -0.41674  -0.41566  -0.41463  -0.41284  -0.41156
 Alpha  occ. eigenvalues --   -0.41017  -0.40935  -0.40879  -0.40718  -0.40637
 Alpha  occ. eigenvalues --   -0.40493  -0.40379  -0.40280  -0.40085  -0.39922
 Alpha  occ. eigenvalues --   -0.39696  -0.39574  -0.39442  -0.39189  -0.39145
 Alpha  occ. eigenvalues --   -0.39074  -0.38936  -0.38799  -0.38620  -0.38495
 Alpha  occ. eigenvalues --   -0.38201  -0.37901  -0.37882  -0.37784  -0.37668
 Alpha  occ. eigenvalues --   -0.37587  -0.37497  -0.37395  -0.37142  -0.37138
 Alpha  occ. eigenvalues --   -0.36628  -0.36552  -0.36513  -0.36499  -0.36302
 Alpha  occ. eigenvalues --   -0.36166  -0.36076  -0.35484  -0.35445  -0.35164
 Alpha  occ. eigenvalues --   -0.35071  -0.34798  -0.34708  -0.34548  -0.34323
 Alpha  occ. eigenvalues --   -0.33489  -0.33190  -0.33002  -0.32970  -0.32627
 Alpha  occ. eigenvalues --   -0.32580  -0.32345  -0.31968  -0.31886  -0.31513
 Alpha  occ. eigenvalues --   -0.31401  -0.31072  -0.29904  -0.29566  -0.29473
 Alpha  occ. eigenvalues --   -0.29095  -0.28887  -0.28602  -0.27562  -0.26960
 Alpha  occ. eigenvalues --   -0.26240  -0.26226  -0.25948  -0.25774  -0.25675
 Alpha  occ. eigenvalues --   -0.25395  -0.25159  -0.24962  -0.21704  -0.20615
 Alpha  occ. eigenvalues --   -0.19890  -0.18837
 Alpha virt. eigenvalues --   -0.12271  -0.10930  -0.05989  -0.05140  -0.04269
 Alpha virt. eigenvalues --   -0.04222  -0.02354  -0.02275  -0.00513  -0.00115
 Alpha virt. eigenvalues --    0.00251   0.00498   0.00862   0.01497   0.01614

 Mulliken charges:
               1
     1  Mg  12.000000
     2  C    6.000000
     3  C    6.000000
     4  C    6.000000
     5  C    6.000000
     6  N    7.000000
     7  C    6.000000
     8  C    6.000000
     9  C    6.000000
    10  C    6.000000
    11  C    6.000000
    12  C    6.000000
    13  C    6.000000
    14  H    1.000000
    15  N    7.000000
    16  C    6.000000
    17  C    6.000000
    18  C    6.000000
    19  C    6.000000
    20  C    6.000000
    21  C    6.000000
    22  O    8.000000
    23  C    6.000000
    24  N    7.000000
    25  C    6.000000
    26  C    6.000000
    27  C    6.000000
    28  C    6.000000
    29  C    6.000000
    30  C    6.000000
    31  C    6.000000
    32  N    7.000000
    33  C    6.000000
    34  C    6.000000
    35  C    6.000000
    36  C    6.000000
    37  C    6.000000
    38  C    6.000000
    39  O    8.000000
    40  C    6.000000
    41  C    6.000000
    42  O    8.000000
    43  O    8.000000
    44  C    6.000000
    45  H    1.000000
    46  H    1.000000
    47  H    1.000000
    48  H    1.000000
    49  H    1.000000
    50  H    1.000000
    51  H    1.000000
    52  H    1.000000
    53  H    1.000000
    54  H    1.000000
    55  H    1.000000
    56  H    1.000000
    57  H    1.000000
    58  H    1.000000
    59  H    1.000000
    60  H    1.000000
    61  H    1.000000
    62  H    1.000000
    63  H    1.000000
    64  H    1.000000
    65  H    1.000000
    66  H    1.000000
    67  H    1.000000
    68  H    1.000000
    69  H    1.000000
    70  H    1.000000
    71  H    1.000000
    72  H    1.000000
    73  H    1.000000
    74  H    1.000000
    75  H    1.000000
    76  H    1.000000
    77  H    1.000000
    78  H    1.000000
    79  H    1.000000
    80  Mg  12.000000
    81  C    6.000000
    82  C    6.000000
    83  C    6.000000
    84  C    6.000000
    85  N    7.000000
    86  C    6.000000
    87  C    6.000000
    88  C    6.000000
    89  C    6.000000
    90  C    6.000000
    91  C    6.000000
    92  C    6.000000
    93  H    1.000000
    94  N    7.000000
    95  C    6.000000
    96  C    6.000000
    97  C    6.000000
    98  C    6.000000
    99  C    6.000000
   100  C    6.000000
   101  O    8.000000
   102  C    6.000000
   103  N    7.000000
   104  C    6.000000
   105  C    6.000000
   106  C    6.000000
   107  C    6.000000
   108  C    6.000000
   109  C    6.000000
   110  C    6.000000
   111  N    7.000000
   112  C    6.000000
   113  C    6.000000
   114  C    6.000000
   115  C    6.000000
   116  C    6.000000
   117  C    6.000000
   118  O    8.000000
   119  C    6.000000
   120  C    6.000000
   121  O    8.000000
   122  O    8.000000
   123  C    6.000000
   124  H    1.000000
   125  H    1.000000
   126  H    1.000000
   127  H    1.000000
   128  H    1.000000
   129  H    1.000000
   130  H    1.000000
   131  H    1.000000
   132  H    1.000000
   133  H    1.000000
   134  H    1.000000
   135  H    1.000000
   136  H    1.000000
   137  H    1.000000
   138  H    1.000000
   139  H    1.000000
   140  H    1.000000
   141  H    1.000000
   142  H    1.000000
   143  H    1.000000
   144  H    1.000000
   145  H    1.000000
   146  H    1.000000
   147  H    1.000000
   148  H    1.000000
   149  H    1.000000
   150  H    1.000000
   151  H    1.000000
   152  H    1.000000
   153  H    1.000000
   154  H    1.000000
   155  H    1.000000
   156  H    1.000000
   157  H    1.000000
   158  H    1.000000
 Sum of Mulliken charges = 624.00000

 Dipole moment (field-independent basis, Debye):
    X=              0.0000    Y=             -0.0000    Z=             -0.0000  Tot=              0.0000
 Quadrupole moment (field-independent basis, Debye-Ang):
   XX=             -0.0000   YY=             -0.0000   ZZ=              0.0000
   XY=             -0.0000   XZ=              0.0000   YZ=             -0.0000

 Normal termination of Gaussian 16 at Fri Oct 15 08:48:21 2021.
