 Gaussian 16, Revision A.03,
 Gaussian 16:  ES64L-G16RevA.03 25-Dec-2016

 --------------------------------------------------------
 #p PBE1PBE/Def2SVP td=(nstates=5) density=(transition=1)
 --------------------------------------------------------

 --------------------------------
 TDDFT excited states in gaussian
 --------------------------------
 Symbolic Z-matrix:
 Charge =  0 Multiplicity = 1

                         Standard orientation:
 ---------------------------------------------------------------------
 Center     Atomic      Atomic             Coordinates (Angstroms)
 Number     Number       Type             X           Y           Z
 ---------------------------------------------------------------------
      1         12           0       -9.600650   -0.963542    0.465948
      2          6           0       -9.494340    2.595543    0.048118
      3          6           0       -7.953025   -0.539424    3.465446
      4          6           0       -9.162072   -4.200974    0.509381
      5          6           0      -11.054761   -1.124420   -2.675726
      6          7           0       -8.541611    0.866143    1.522347
      7          6           0       -8.780223    2.168248    1.174923
      8          6           0       -8.347395    3.101651    2.337170
      9          6           0       -7.787322    2.098440    3.430421
     10          6           0       -8.070175    0.685311    2.801911
     11          6           0       -6.258349    2.221177    3.835849
     12          6           0       -9.471592    4.002771    2.914209
     13          6           0       -9.150400    5.431346    3.175103
     14          1           0       -7.679673    5.980842    3.317249
     15          7           0       -8.655707   -2.264455    1.818800
     16          6           0       -8.143969   -1.940544    3.075065
     17          6           0       -7.602127   -3.163578    3.697714
     18          6           0       -8.066768   -4.256506    2.869683
     19          6           0       -8.649690   -3.604684    1.673938
     20          6           0       -6.814538   -3.230841    4.971054
     21          6           0       -7.983760   -5.788228    3.069129
     22          8           0       -8.674919   -6.628659    2.455723
     23          6           0       -7.150703   -6.284808    4.181557
     24          7           0       -9.987579   -2.377345   -0.890005
     25          6           0       -9.632263   -3.683101   -0.632117
     26          6           0      -10.240042   -4.648724   -1.686921
     27          6           0      -11.167918   -3.647095   -2.507092
     28          6           0      -10.732576   -2.285940   -1.992637
     29          6           0       -9.248776   -5.482480   -2.597146
     30          6           0      -12.671384   -3.827195   -2.369266
     31          6           0      -13.411855   -4.262513   -3.651167
     32          7           0      -10.346023    0.418302   -0.949602
     33          6           0      -10.883609    0.196007   -2.195284
     34          6           0      -11.133000    1.476505   -2.870117
     35          6           0      -10.649796    2.421905   -1.982927
     36          6           0      -10.181207    1.742469   -0.836328
     37          6           0      -11.695356    1.731665   -4.229514
     38          6           0      -10.517016    3.825854   -1.828007
     39          8           0      -10.924055    4.798352   -2.525210
     40          6           0       -9.788315    4.001712   -0.563556
     41          6           0       -8.578853    4.870914   -0.778246
     42          8           0       -7.602569    4.553852   -1.367291
     43          8           0       -8.737267    6.033306   -0.145618
     44          6           0       -7.873300    7.121587   -0.454989
     45          1           0       -7.422744   -0.497239    4.419281
     46          1           0       -9.127069   -5.288342    0.406320
     47          1           0      -11.440002   -1.189559   -3.694633
     48          1           0       -7.558299    3.735108    1.930314
     49          1           0       -8.373700    2.181831    4.344973
     50          1           0       -5.738972    3.093262    3.439577
     51          1           0       -5.747479    1.366895    3.389263
     52          1           0       -6.145732    2.163887    4.918927
     53          1           0       -9.842699    3.652162    3.877962
     54          1           0      -10.340290    4.064152    2.259328
     55          1           0       -9.563075    5.730203    4.139159
     56          1           0       -9.634385    6.017709    2.394544
     57          1           0       -5.875313   -3.752326    4.787923
     58          1           0       -7.411893   -3.818685    5.667987
     59          1           0       -6.752653   -2.256436    5.456725
     60          1           0       -6.120617   -5.995314    3.973437
     61          1           0       -7.196641   -7.371332    4.111765
     62          1           0       -7.561789   -6.015269    5.154038
     63          1           0      -10.881702   -5.325476   -1.121766
     64          1           0      -10.913109   -3.775838   -3.558995
     65          1           0       -8.216625   -5.255587   -2.332561
     66          1           0       -9.457187   -5.380570   -3.662862
     67          1           0       -9.454191   -6.536694   -2.410615
     68          1           0      -13.218763   -3.016532   -1.888117
     69          1           0      -12.822655   -4.653203   -1.675133
     70          1           0      -14.349835   -3.755500   -3.876628
     71          1           0      -13.800068   -5.263190   -3.459438
     72          1           0      -12.828620   -4.212575   -4.569656
     73          1           0      -12.227768    0.869325   -4.631796
     74          1           0      -10.887344    1.844125   -4.952259
     75          1           0      -12.230951    2.678923   -4.167976
     76          1           0      -10.484180    4.497459    0.112770
     77          1           0       -8.187621    7.489604   -1.432668
     78          1           0       -6.850604    6.776563   -0.607871
     79          1           0       -7.995863    7.937246    0.258092
     80         12           0        9.498652   -0.554238   -0.186874
     81          6           0        7.466905    2.213672   -0.307287
     82          6           0       12.006996    1.483609    1.301418
     83          6           0       11.791965   -3.020347   -0.484679
     84          6           0        7.259299   -2.382040   -1.888367
     85          7           0        9.703215    1.614667    0.421527
     86          6           0        8.710196    2.540123    0.243188
     87          6           0        9.098767    3.888424    0.853956
     88          6           0       10.644307    3.635529    1.172879
     89          6           0       10.809130    2.160013    0.954138
     90          6           0       11.628920    4.550756    0.356426
     91          6           0        8.261617    4.265729    2.160325
     92          6           0        7.711744    5.650657    2.403231
     93          1           0        8.609306    6.816704    2.185799
     94          7           0       11.619796   -0.792983    0.378571
     95          6           0       12.373002    0.057845    1.109641
     96          6           0       13.605550   -0.540669    1.499587
     97          6           0       13.562760   -1.886220    1.015539
     98          6           0       12.307912   -1.907808    0.206078
     99          6           0       14.608745    0.294985    2.227118
    100          6           0       14.638758   -2.956503    1.083761
    101          8           0       14.599329   -3.979109    0.392529
    102          6           0       15.830140   -2.785625    2.009848
    103          7           0        9.586242   -2.419581   -1.210988
    104          6           0       10.605650   -3.306563   -1.065763
    105          6           0       10.232446   -4.661078   -1.665796
    106          6           0        8.693476   -4.482863   -1.954907
    107          6           0        8.485565   -3.009784   -1.663410
    108          6           0       11.047120   -5.275689   -2.842127
    109          6           0        7.705967   -5.461639   -1.192520
    110          6           0        7.092022   -5.054446    0.130208
    111          7           0        7.783469   -0.180069   -1.035812
    112          6           0        6.856365   -1.023358   -1.593682
    113          6           0        5.679393   -0.361203   -2.024396
    114          6           0        5.844474    0.915516   -1.496565
    115          6           0        7.124984    0.966300   -0.888037
    116          6           0        4.426727   -0.829141   -2.753644
    117          6           0        5.281842    2.187173   -1.360672
    118          8           0        4.224783    2.594073   -1.806552
    119          6           0        6.320010    3.170836   -0.577507
    120          6           0        6.642924    4.278959   -1.467809
    121          8           0        7.256137    4.193098   -2.550206
    122          8           0        6.160411    5.475400   -1.039367
    123          6           0        6.132703    6.604642   -1.975743
    124          1           0       12.661557    2.181024    1.827608
    125          1           0       12.398297   -3.917453   -0.344666
    126          1           0        6.393880   -3.013252   -2.097198
    127          1           0        8.873353    4.671302    0.128682
    128          1           0       10.882642    3.884666    2.207052
    129          1           0       12.212352    5.128613    1.072397
    130          1           0       10.982758    5.114585   -0.316606
    131          1           0       12.410428    4.022942   -0.191004
    132          1           0        8.980829    4.029134    2.944650
    133          1           0        7.504582    3.510835    2.370133
    134          1           0        7.233597    5.695046    3.381727
    135          1           0        6.954220    5.798273    1.634359
    136          1           0       14.957094   -0.337764    3.042625
    137          1           0       14.130377    1.157875    2.691126
    138          1           0       15.455889    0.652623    1.640853
    139          1           0       15.574220   -2.394792    2.995104
    140          1           0       16.641729   -2.290583    1.474835
    141          1           0       16.170708   -3.805247    2.192609
    142          1           0       10.463375   -5.356534   -0.858595
    143          1           0        8.421938   -4.753379   -2.974603
    144          1           0       10.458891   -5.256015   -3.759457
    145          1           0       11.238882   -6.313138   -2.568725
    146          1           0       11.957244   -4.680928   -2.911604
    147          1           0        8.257863   -6.385774   -1.026275
    148          1           0        6.854393   -5.695935   -1.831690
    149          1           0        7.247935   -5.810780    0.899823
    150          1           0        6.022567   -4.848190    0.070257
    151          1           0        7.605630   -4.132019    0.401261
    152          1           0        4.497378   -1.903337   -2.928806
    153          1           0        4.333017   -0.280492   -3.691162
    154          1           0        3.561584   -0.609397   -2.128703
    155          1           0        5.672812    3.530940    0.222744
    156          1           0        5.395881    7.368970   -1.728383
    157          1           0        6.091781    6.339099   -3.031685
    158          1           0        7.056259    7.149803   -1.780337
 ---------------------------------------------------------------------

 SCF Done:  E(RPBE1PBE) =  -4067.39670065     A.U. after   16 cycles

 Excitation energies and oscillator strengths:

 Excited State   1:      Singlet-A      1.8337 eV  676.15 nm  f=0.0000  <S**2>=0.000
     312 -> 313        0.70707
 This state for optimization and/or second-order correction.
 Total Energy, E(TD-HF/TD-DFT) =  -4067.32931383
 Copying the excited state density for this state as the 1-particle RhoCI density.

 Excited State   2:      Singlet-A      1.8640 eV  665.15 nm  f=0.4230  <S**2>=0.000
     309 -> 315       -0.17303
     312 -> 314        0.69339
     312 <- 314       -0.11097

 Excited State   3:      Singlet-A      1.8776 eV  660.33 nm  f=0.3774  <S**2>=0.000
     310 -> 316        0.17147
     311 -> 313        0.69271
     311 <- 313       -0.11013

 Excited State   4:      Singlet-A      1.9157 eV  647.19 nm  f=0.0000  <S**2>=0.000
     311 -> 314        0.70709

 Excited State   5:      Singlet-A      2.2030 eV  562.81 nm  f=0.0306  <S**2>=0.000
     309 -> 314        0.58926
     310 -> 313       -0.30400
     312 -> 315        0.21367

 The electronic state is 1-A.
 Alpha  occ. eigenvalues --  -46.92480 -46.92246 -19.25652 -19.25435 -19.19628
 Alpha  occ. eigenvalues --  -19.19030 -19.18957 -19.18955 -19.18877 -19.18705
 Alpha  occ. eigenvalues --  -14.41600 -14.41471 -14.41101 -14.41019 -14.39286
 Alpha  occ. eigenvalues --  -14.39159 -14.39150 -14.39128 -10.35876 -10.35812
 Alpha  occ. eigenvalues --  -10.32426 -10.32265 -10.31689 -10.31509 -10.29198
 Alpha  occ. eigenvalues --  -10.28820 -10.28805 -10.28799 -10.28530 -10.28502
 Alpha  occ. eigenvalues --  -10.28492 -10.28199 -10.28174 -10.27900 -10.27761
 Alpha  occ. eigenvalues --  -10.27664 -10.27661 -10.27654 -10.27526 -10.27422
 Alpha  occ. eigenvalues --  -10.26712 -10.26692 -10.26658 -10.26275 -10.26068
 Alpha  occ. eigenvalues --  -10.26053 -10.26030 -10.26014 -10.25906 -10.25876
 Alpha  occ. eigenvalues --  -10.25800 -10.25790 -10.25767 -10.25743 -10.25715
 Alpha  occ. eigenvalues --  -10.25583 -10.25373 -10.25345 -10.25331 -10.25230
 Alpha  occ. eigenvalues --  -10.25120 -10.25116 -10.25063 -10.24946 -10.24571
 Alpha  occ. eigenvalues --  -10.24474 -10.24267 -10.24258 -10.24236 -10.24233
 Alpha  occ. eigenvalues --  -10.23865 -10.23827 -10.23766 -10.23623 -10.23532
 Alpha  occ. eigenvalues --  -10.23392 -10.23392 -10.23368 -10.23180 -10.22995
 Alpha  occ. eigenvalues --  -10.22867 -10.22824 -10.22805 -10.22533 -10.22439
 Alpha  occ. eigenvalues --  -10.22383  -3.14669  -3.14403  -1.87492  -1.87226
 Alpha  occ. eigenvalues --   -1.87003  -1.86941  -1.86791  -1.86625  -1.13210
 Alpha  occ. eigenvalues --   -1.10572  -1.04668  -1.04326  -1.04114  -1.03188
 Alpha  occ. eigenvalues --   -1.02472  -1.00579  -1.00065  -0.99300  -0.99283
 Alpha  occ. eigenvalues --   -0.98756  -0.98307  -0.98107  -0.97182  -0.96476
 Alpha  occ. eigenvalues --   -0.87714  -0.86963  -0.83420  -0.83297  -0.82675
 Alpha  occ. eigenvalues --   -0.82643  -0.82514  -0.82440  -0.82141  -0.81834
 Alpha  occ. eigenvalues --   -0.81670  -0.81247  -0.80711  -0.80572  -0.78773
 Alpha  occ. eigenvalues --   -0.78557  -0.78015  -0.77744  -0.76916  -0.76811
 Alpha  occ. eigenvalues --   -0.76311  -0.75990  -0.75966  -0.75467  -0.74799
 Alpha  occ. eigenvalues --   -0.74583  -0.72640  -0.72632  -0.71940  -0.71776
 Alpha  occ. eigenvalues --   -0.71395  -0.71378  -0.70543  -0.70523  -0.69827
 Alpha  occ. eigenvalues --   -0.69554  -0.67983  -0.67486  -0.65968  -0.65911
 Alpha  occ. eigenvalues --   -0.63999  -0.63676  -0.63627  -0.63339  -0.62544
 Alpha  occ. eigenvalues --   -0.61808  -0.61518  -0.60715  -0.60311  -0.60018
 Alpha  occ. eigenvalues --   -0.59659  -0.59386  -0.59214  -0.59177  -0.58903
 Alpha  occ. eigenvalues --   -0.58742  -0.57434  -0.56810  -0.54703  -0.54675
 Alpha  occ. eigenvalues --   -0.54427  -0.54380  -0.53854  -0.53627  -0.53417
 Alpha  occ. eigenvalues --   -0.52844  -0.52743  -0.52411  -0.52310  -0.51863
 Alpha  occ. eigenvalues --   -0.50825  -0.50800  -0.50684  -0.49834  -0.49584
 Alpha  occ. eigenvalues --   -0.49565  -0.49422  -0.49308  -0.48574  -0.48270
 Alpha  occ. eigenvalues --   -0.47919  -0.47833  -0.47743  -0.47685  -0.47585
 Alpha  occ. eigenvalues --   -0.47281  -0.47217  -0.47105  -0.46905  -0.46731
 Alpha  occ. eigenvalues --   -0.46604  -0.46157  -0.46075  -0.45952  -0.45861
 Alpha  occ. eigenvalues --   -0.45769  -0.45355  -0.45049  -0.44806  -0.44713
 Alpha  occ. eigenvalues --   -0.44565  -0.44442  -0.44306  -0.44129  -0.43851
 Alpha  occ. eigenvalues --   -0.43829  -0.43650  -0.43644  -0.43392  -0.43347
 Alpha  occ. eigenvalues --   -0.43347  -0.43207  -0.43133  -0.42932  -0.42875
 Alpha  occ. eigenvalues --   -0.42793  -0.42502  -0.42355  -0.42114  -0.42054
 Alpha  occ. eigenvalues --   -0.41782  -0.41571  -0.41492  -0.41445  -0.41186
 Alpha  occ. eigenvalues --   -0.40900  -0.40876  -0.40833  -0.40698  -0.40586
 Alpha  occ. eigenvalues --   -0.40553  -0.40383  -0.40069  -0.40003  -0.39738
 Alpha  occ. eigenvalues --   -0.39485  -0.39207  -0.39198  -0.39029  -0.38806
 Alpha  occ. eigenvalues --   -0.38754  -0.38402  -0.38377  -0.38268  -0.38183
 Alpha  occ. eigenvalues --   -0.37958  -0.37947  -0.37709  -0.37574  -0.37355
 Alpha  occ. eigenvalues --   -0.37099  -0.36782  -0.36756  -0.36558  -0.36516
 Alpha  occ. eigenvalues --   -0.36460  -0.36343  -0.36241  -0.36156  -0.36083
 Alpha  occ. eigenvalues --   -0.35981  -0.35766  -0.35445  -0.35140  -0.34942
 Alpha  occ. eigenvalues --   -0.34900  -0.34733  -0.34586  -0.34463  -0.33873
 Alpha  occ. eigenvalues --   -0.33416  -0.33185  -0.33150  -0.32813  -0.32310
 Alpha  occ. eigenvalues --   -0.31931  -0.31652  -0.31286  -0.31167  -0.31094
 Alpha  occ. eigenvalues --   -0.30843  -0.30538  -0.29722  -0.29404  -0.29180
 Alpha  occ. eigenvalues --   -0.28616  -0.28431  -0.27963  -0.27034  -0.26959
 Alpha  occ. eigenvalues --   -0.26505  -0.26104  -0.26061  -0.25961  -0.25644
 Alpha  occ. eigenvalues --   -0.25532  -0.25354  -0.25273  -0.20948  -0.20802
 Alpha  occ. eigenvalues --   -0.19047  -0.18874
 Alpha virt. eigenvalues --   -0.11439  -0.11317  -0.04988  -0.04759  -0.04300
 Alpha virt. eigenvalues --   -0.03912  -0.02337  -0.01901  -0.00959  -0.00460
 Alpha virt. eigenvalues --    0.00196   0.01249   0.01727   0.01818   0.01838

 Mulliken charges:
               1
     1  Mg  12.000000
     2  C    6.000000
     3  C    6.000000
     4  C    6.000000
     5  C    6.000000
     6  N    7.000000
     7  C    6.000000
     8  C    6.000000
     9  C    6.000000
    10  C    6.000000
    11  C    6.000000
    12  C    6.000000
    13  C    6.000000
    14  H    1.000000
    15  N    7.000000
    16  C    6.000000
    17  C    6.000000
    18  C    6.000000
    19  C    6.000000
    20  C    6.000000
    21  C    6.000000
    22  O    8.000000
    23  C    6.000000
    24  N    7.000000
    25  C    6.000000
    26  C    6.000000
    27  C    6.000000
    28  C    6.000000
    29  C    6.000000
    30  C    6.000000
    31  C    6.000000
    32  N    7.000000
    33  C    6.000000
    34  C    6.000000
    35  C    6.000000
    36  C    6.000000
    37  C    6.000000
    38  C    6.000000
    39  O    8.000000
    40  C    6.000000
    41  C    6.000000
    42  O    8.000000
    43  O    8.000000
    44  C    6.000000
    45  H    1.000000
    46  H    1.000000
    47  H    1.000000
    48  H    1.000000
    49  H    1.000000
    50  H    1.000000
    51  H    1.000000
    52  H    1.000000
    53  H    1.000000
    54  H    1.000000
    55  H    1.000000
    56  H    1.000000
    57  H    1.000000
    58  H    1.000000
    59  H    1.000000
    60  H    1.000000
    61  H    1.000000
    62  H    1.000000
    63  H    1.000000
    64  H    1.000000
    65  H    1.000000
    66  H    1.000000
    67  H    1.000000
    68  H    1.000000
    69  H    1.000000
    70  H    1.000000
    71  H    1.000000
    72  H    1.000000
    73  H    1.000000
    74  H    1.000000
    75  H    1.000000
    76  H    1.000000
    77  H    1.000000
    78  H    1.000000
    79  H    1.000000
    80  Mg  12.000000
    81  C    6.000000
    82  C    6.000000
    83  C    6.000000
    84  C    6.000000
    85  N    7.000000
    86  C    6.000000
    87  C    6.000000
    88  C    6.000000
    89  C    6.000000
    90  C    6.000000
    91  C    6.000000
    92  C    6.000000
    93  H    1.000000
    94  N    7.000000
    95  C    6.000000
    96  C    6.000000
    97  C    6.000000
    98  C    6.000000
    99  C    6.000000
   100  C    6.000000
   101  O    8.000000
   102  C    6.000000
   103  N    7.000000
   104  C    6.000000
   105  C    6.000000
   106  C    6.000000
   107  C    6.000000
   108  C    6.000000
   109  C    6.000000
   110  C    6.000000
   111  N    7.000000
   112  C    6.000000
   113  C    6.000000
   114  C    6.000000
   115  C    6.000000
   116  C    6.000000
   117  C    6.000000
   118  O    8.000000
   119  C    6.000000
   120  C    6.000000
   121  O    8.000000
   122  O    8.000000
   123  C    6.000000
   124  H    1.000000
   125  H    1.000000
   126  H    1.000000
   127  H    1.000000
   128  H    1.000000
   129  H    1.000000
   130  H    1.000000
   131  H    1.000000
   132  H    1.000000
   133  H    1.000000
   134  H    1.000000
   135  H    1.000000
   136  H    1.000000
   137  H    1.000000
   138  H    1.000000
   139  H    1.000000
   140  H    1.000000
   141  H    1.000000
   142  H    1.000000
   143  H    1.000000
   144  H    1.000000
   145  H    1.000000
   146  H    1.000000
   147  H    1.000000
   148  H    1.000000
   149  H    1.000000
   150  H    1.000000
   151  H    1.000000
   152  H    1.000000
   153  H    1.000000
   154  H    1.000000
   155  H    1.000000
   156  H    1.000000
   157  H    1.000000
   158  H    1.000000
 Sum of Mulliken charges = 624.00000

 Dipole moment (field-independent basis, Debye):
    X=             -0.0000    Y=              0.0000    Z=             -0.0000  Tot=              0.0000
 Quadrupole moment (field-independent basis, Debye-Ang):
   XX=              0.0000   YY=             -0.0000   ZZ=             -0.0000
   XY=             -0.0000   XZ=              0.0000   YZ=              0.0000

 Normal termination of Gaussian 16 at Fri Oct 15 11:55:26 2021.
