 Gaussian 16, Revision A.03,
 Gaussian 16:  ES64L-G16RevA.03 25-Dec-2016

 --------------------------------------------------------
 #p PBE1PBE/Def2SVP td=(nstates=5) density=(transition=1)
 --------------------------------------------------------

 --------------------------------
 TDDFT excited states in gaussian
 --------------------------------
 Symbolic Z-matrix:
 Charge =  0 Multiplicity = 1

                         Standard orientation:
 ---------------------------------------------------------------------
 Center     Atomic      Atomic             Coordinates (Angstroms)
 Number     Number       Type             X           Y           Z
 ---------------------------------------------------------------------
      1         12           0       19.466482    0.179451    0.548659
      2          6           0       17.294754   -1.281799   -1.684266
      3          6           0       20.467960    2.354895   -2.005373
      4          6           0       21.690799    1.609263    2.646858
      5          6           0       18.722262   -2.192842    2.858553
      6          7           0       19.101173    0.303039   -1.699725
      7          6           0       17.975693   -0.269304   -2.305514
      8          6           0       17.649894    0.388863   -3.660830
      9          6           0       18.785504    1.474833   -3.736403
     10          6           0       19.496257    1.448004   -2.400328
     11          6           0       19.740597    1.260659   -4.903824
     12          6           0       16.225389    1.002799   -3.901517
     13          6           0       15.280459    0.271486   -5.001504
     14          1           0       14.895986    1.233429   -6.129930
     15          7           0       20.929460    1.657932    0.341958
     16          6           0       21.087787    2.520779   -0.754570
     17          6           0       21.969867    3.645476   -0.425976
     18          6           0       22.449739    3.429248    0.976669
     19          6           0       21.648395    2.225299    1.435796
     20          6           0       22.310519    4.744223   -1.408459
     21          6           0       23.398195    4.168917    1.796679
     22          8           0       23.714082    3.735220    2.914443
     23          6           0       24.090965    5.435177    1.324483
     24          7           0       20.127424   -0.299206    2.380632
     25          6           0       20.976904    0.512421    3.155125
     26          6           0       21.128763    0.070677    4.666697
     27          6           0       20.144856   -1.210080    4.655982
     28          6           0       19.618309   -1.220026    3.203020
     29          6           0       22.633245   -0.280114    5.112482
     30          6           0       19.007736   -1.076879    5.726533
     31          6           0       18.584514   -2.311984    6.458216
     32          7           0       18.303652   -1.504563    0.532270
     33          6           0       18.048500   -2.371371    1.598793
     34          6           0       17.007607   -3.285561    1.273504
     35          6           0       16.598997   -2.815007   -0.029036
     36          6           0       17.480192   -1.799060   -0.420330
     37          6           0       16.370460   -4.352699    2.060442
     38          6           0       15.743446   -3.117297   -1.133548
     39          8           0       14.828896   -3.923525   -1.336515
     40          6           0       16.281532   -2.201050   -2.324318
     41          6           0       16.800211   -3.079317   -3.406233
     42          8           0       17.906330   -3.373353   -3.638934
     43          8           0       15.764163   -3.456020   -4.257665
     44          6           0       16.170220   -3.789795   -5.607054
     45          1           0       20.710041    3.085460   -2.780090
     46          1           0       22.319508    2.020910    3.439067
     47          1           0       18.371885   -2.862480    3.646715
     48          1           0       17.830915   -0.338695   -4.451293
     49          1           0       18.382709    2.466303   -3.945249
     50          1           0       20.726535    1.017731   -4.508479
     51          1           0       19.757946    2.240883   -5.378697
     52          1           0       19.413885    0.547721   -5.660548
     53          1           0       16.357704    2.042879   -4.200603
     54          1           0       15.625388    0.978314   -2.991739
     55          1           0       14.379971    0.063381   -4.423380
     56          1           0       15.776224   -0.612849   -5.401221
     57          1           0       22.995009    4.307816   -2.136921
     58          1           0       22.811034    5.540868   -0.860207
     59          1           0       21.458885    5.074589   -2.003559
     60          1           0       24.947637    5.560983    1.986908
     61          1           0       23.448178    6.316094    1.326382
     62          1           0       24.612487    5.393300    0.368464
     63          1           0       20.659699    0.809588    5.315572
     64          1           0       20.619424   -2.156467    4.916288
     65          1           0       22.601246   -1.143842    5.776926
     66          1           0       23.140584    0.449656    5.742294
     67          1           0       23.291351   -0.485663    4.268004
     68          1           0       18.104406   -0.593851    5.354359
     69          1           0       19.301700   -0.454173    6.571256
     70          1           0       17.568003   -2.498658    6.112233
     71          1           0       18.395720   -2.282142    7.531331
     72          1           0       19.239275   -3.141750    6.189987
     73          1           0       16.456686   -4.097327    3.116950
     74          1           0       16.983111   -5.230823    1.856699
     75          1           0       15.384079   -4.552463    1.641385
     76          1           0       15.469208   -1.595621   -2.725642
     77          1           0       16.598227   -4.786971   -5.510145
     78          1           0       16.945128   -3.068352   -5.865669
     79          1           0       15.318405   -3.818960   -6.287114
     80         12           0      -19.493659   -0.516389   -0.619785
     81          6           0      -18.769397    2.969378   -0.574949
     82          6           0      -16.258225   -1.151187   -1.548088
     83          6           0      -19.917840   -3.848810    0.361082
     84          6           0      -22.591018    0.176510    0.888433
     85          7           0      -17.631688    0.885523   -0.759731
     86          6           0      -17.626155    2.216402   -0.939943
     87          6           0      -16.363714    2.617899   -1.680623
     88          6           0      -15.496162    1.294935   -1.945305
     89          6           0      -16.641216    0.252217   -1.497914
     90          6           0      -15.141143    1.224908   -3.447582
     91          6           0      -15.586625    3.664529   -0.898457
     92          6           0      -15.557709    3.507547    0.640475
     93          1           0      -14.220705    3.031612    1.271495
     94          7           0      -18.268566   -2.319119   -0.676038
     95          6           0      -16.954787   -2.299537   -1.091119
     96          6           0      -16.548209   -3.668322   -1.155121
     97          6           0      -17.537594   -4.511928   -0.520234
     98          6           0      -18.680158   -3.595420   -0.276639
     99          6           0      -15.159705   -4.086298   -1.580631
    100          6           0      -17.382247   -5.964267   -0.066393
    101          8           0      -16.314974   -6.531906   -0.197637
    102          6           0      -18.438849   -6.720168    0.536592
    103          7           0      -20.980902   -1.664029    0.558345
    104          6           0      -20.979178   -2.984530    0.665478
    105          6           0      -22.171932   -3.528719    1.434711
    106          6           0      -22.826901   -2.160894    1.909768
    107          6           0      -22.163180   -1.151644    1.043985
    108          6           0      -23.161012   -4.431315    0.547409
    109          6           0      -22.640559   -1.969013    3.485100
    110          6           0      -23.826429   -2.024787    4.406033
    111          7           0      -20.567582    1.131743   -0.207764
    112          6           0      -21.878657    1.261567    0.293952
    113          6           0      -22.302560    2.674083    0.281971
    114          6           0      -21.116633    3.316964   -0.072485
    115          6           0      -20.027883    2.393400   -0.249805
    116          6           0      -23.728604    3.291694    0.489138
    117          6           0      -20.560781    4.656621   -0.288640
    118          8           0      -21.051900    5.796803   -0.247491
    119          6           0      -19.043329    4.502235   -0.636079
    120          6           0      -18.446386    5.222995    0.523056
    121          8           0      -18.615503    4.939078    1.681151
    122          8           0      -17.801006    6.307107    0.102457
    123          6           0      -17.043316    7.146668    1.094916
    124          1           0      -15.349911   -1.351289   -2.120000
    125          1           0      -20.212858   -4.858158    0.654768
    126          1           0      -23.513387    0.282635    1.464184
    127          1           0      -16.832567    3.057572   -2.560974
    128          1           0      -14.604624    1.246862   -1.319480
    129          1           0      -14.055176    1.222449   -3.539067
    130          1           0      -15.490435    2.074091   -4.035501
    131          1           0      -15.530991    0.270241   -3.799733
    132          1           0      -15.996298    4.652917   -1.106863
    133          1           0      -14.534034    3.650671   -1.182724
    134          1           0      -16.192354    2.740529    1.084118
    135          1           0      -15.826448    4.494529    1.017144
    136          1           0      -14.522105   -3.226052   -1.786053
    137          1           0      -15.266967   -4.787502   -2.408933
    138          1           0      -14.755210   -4.714764   -0.787985
    139          1           0      -18.785717   -6.351888    1.502312
    140          1           0      -18.103062   -7.744962    0.694013
    141          1           0      -19.247031   -6.620529   -0.188796
    142          1           0      -21.907090   -4.051075    2.353658
    143          1           0      -23.886942   -2.384786    1.788894
    144          1           0      -22.747122   -4.546195   -0.454815
    145          1           0      -24.099619   -3.884260    0.456798
    146          1           0      -23.426111   -5.403759    0.965207
    147          1           0      -22.287112   -0.965230    3.721168
    148          1           0      -21.922148   -2.684258    3.883260
    149          1           0      -24.182605   -1.045917    4.727150
    150          1           0      -23.375996   -2.557889    5.243946
    151          1           0      -24.610624   -2.718641    4.102753
    152          1           0      -23.949750    3.260090    1.555651
    153          1           0      -24.416652    2.722797   -0.136413
    154          1           0      -23.687848    4.346253    0.217077
    155          1           0      -18.913181    4.961008   -1.616915
    156          1           0      -17.674628    7.879396    1.598080
    157          1           0      -16.228515    7.687753    0.612128
    158          1           0      -16.622325    6.428457    1.798484
 ---------------------------------------------------------------------

 SCF Done:  E(RPBE1PBE) =  -4067.32508438     A.U. after   16 cycles

 Excitation energies and oscillator strengths:

 Excited State   1:      Singlet-A      1.8150 eV  683.09 nm  f=0.3893  <S**2>=0.000
     309 -> 316        0.14958
     311 -> 313        0.69569
     311 <- 313       -0.11532
 This state for optimization and/or second-order correction.
 Total Energy, E(TD-HF/TD-DFT) =  -4067.25838278
 Copying the excited state density for this state as the 1-particle RhoCI density.

 Excited State   2:      Singlet-A      1.8533 eV  669.00 nm  f=0.3482  <S**2>=0.000
     310 -> 315       -0.19398
     312 -> 314        0.68713

 Excited State   3:      Singlet-A      1.8860 eV  657.38 nm  f=0.0000  <S**2>=0.000
     312 -> 313        0.70710

 Excited State   4:      Singlet-A      2.0354 eV  609.13 nm  f=0.0000  <S**2>=0.000
     311 -> 314        0.70711

 Excited State   5:      Singlet-A      2.1895 eV  566.27 nm  f=0.1156  <S**2>=0.000
     309 -> 313        0.65571
     311 -> 316       -0.22776

 The electronic state is 1-A.
 Alpha  occ. eigenvalues --  -46.93575 -46.91366 -19.25700 -19.22899 -19.19809
 Alpha  occ. eigenvalues --  -19.19126 -19.19072 -19.18893 -19.18453 -19.18245
 Alpha  occ. eigenvalues --  -14.42050 -14.41919 -14.41565 -14.41452 -14.39880
 Alpha  occ. eigenvalues --  -14.39837 -14.39186 -14.38374 -10.35730 -10.35161
 Alpha  occ. eigenvalues --  -10.32236 -10.32180 -10.31557 -10.31397 -10.29764
 Alpha  occ. eigenvalues --  -10.29666 -10.29433 -10.29134 -10.28846 -10.28790
 Alpha  occ. eigenvalues --  -10.28643 -10.28551 -10.28543 -10.28498 -10.28465
 Alpha  occ. eigenvalues --  -10.28347 -10.28182 -10.27896 -10.27844 -10.27703
 Alpha  occ. eigenvalues --  -10.27464 -10.27341 -10.27108 -10.27061 -10.26706
 Alpha  occ. eigenvalues --  -10.26566 -10.26531 -10.26166 -10.26114 -10.26066
 Alpha  occ. eigenvalues --  -10.26029 -10.26010 -10.25880 -10.25750 -10.25699
 Alpha  occ. eigenvalues --  -10.25674 -10.25651 -10.25548 -10.25545 -10.25380
 Alpha  occ. eigenvalues --  -10.25139 -10.25086 -10.25080 -10.24910 -10.24867
 Alpha  occ. eigenvalues --  -10.24715 -10.24554 -10.24434 -10.24414 -10.24306
 Alpha  occ. eigenvalues --  -10.24203 -10.24161 -10.24085 -10.23946 -10.23882
 Alpha  occ. eigenvalues --  -10.23645 -10.23592 -10.23580 -10.23552 -10.23359
 Alpha  occ. eigenvalues --  -10.23326 -10.22964 -10.22912 -10.22817 -10.22530
 Alpha  occ. eigenvalues --  -10.22454  -3.15469  -3.13699  -1.88270  -1.87873
 Alpha  occ. eigenvalues --   -1.87668  -1.86511  -1.86084  -1.85941  -1.11822
 Alpha  occ. eigenvalues --   -1.11596  -1.04917  -1.04085  -1.03568  -1.03070
 Alpha  occ. eigenvalues --   -1.02645  -1.02514  -0.99503  -0.99207  -0.98268
 Alpha  occ. eigenvalues --   -0.98084  -0.97078  -0.96623  -0.96216  -0.95104
 Alpha  occ. eigenvalues --   -0.87093  -0.86299  -0.83468  -0.83244  -0.83044
 Alpha  occ. eigenvalues --   -0.82917  -0.82757  -0.82554  -0.81772  -0.81574
 Alpha  occ. eigenvalues --   -0.81396  -0.80798  -0.80474  -0.79602  -0.78904
 Alpha  occ. eigenvalues --   -0.78473  -0.78329  -0.77830  -0.77075  -0.76826
 Alpha  occ. eigenvalues --   -0.76669  -0.75952  -0.75425  -0.75247  -0.74611
 Alpha  occ. eigenvalues --   -0.74596  -0.72958  -0.72234  -0.71752  -0.71632
 Alpha  occ. eigenvalues --   -0.71018  -0.70688  -0.70552  -0.69627  -0.69587
 Alpha  occ. eigenvalues --   -0.69293  -0.67574  -0.67297  -0.66176  -0.66119
 Alpha  occ. eigenvalues --   -0.63625  -0.63221  -0.63129  -0.62923  -0.62530
 Alpha  occ. eigenvalues --   -0.62430  -0.61947  -0.61130  -0.60127  -0.60004
 Alpha  occ. eigenvalues --   -0.59808  -0.59614  -0.59457  -0.59331  -0.58563
 Alpha  occ. eigenvalues --   -0.58517  -0.57003  -0.55488  -0.54842  -0.54632
 Alpha  occ. eigenvalues --   -0.54002  -0.53847  -0.53619  -0.53587  -0.53159
 Alpha  occ. eigenvalues --   -0.53076  -0.52887  -0.52393  -0.52231  -0.51828
 Alpha  occ. eigenvalues --   -0.51055  -0.50742  -0.50354  -0.50105  -0.49791
 Alpha  occ. eigenvalues --   -0.49592  -0.49477  -0.49104  -0.48525  -0.48454
 Alpha  occ. eigenvalues --   -0.48317  -0.48078  -0.47774  -0.47684  -0.47581
 Alpha  occ. eigenvalues --   -0.47322  -0.47200  -0.46918  -0.46809  -0.46657
 Alpha  occ. eigenvalues --   -0.46419  -0.46407  -0.46215  -0.46076  -0.45985
 Alpha  occ. eigenvalues --   -0.45833  -0.45398  -0.45210  -0.45161  -0.44801
 Alpha  occ. eigenvalues --   -0.44787  -0.44486  -0.44408  -0.44355  -0.44275
 Alpha  occ. eigenvalues --   -0.44137  -0.44031  -0.43802  -0.43515  -0.43484
 Alpha  occ. eigenvalues --   -0.43276  -0.43258  -0.43114  -0.42914  -0.42775
 Alpha  occ. eigenvalues --   -0.42680  -0.42443  -0.41953  -0.41935  -0.41659
 Alpha  occ. eigenvalues --   -0.41631  -0.41603  -0.41553  -0.41322  -0.41177
 Alpha  occ. eigenvalues --   -0.41029  -0.40969  -0.40809  -0.40526  -0.40282
 Alpha  occ. eigenvalues --   -0.40159  -0.40082  -0.40069  -0.39920  -0.39809
 Alpha  occ. eigenvalues --   -0.39808  -0.39559  -0.39458  -0.39133  -0.39061
 Alpha  occ. eigenvalues --   -0.38755  -0.38568  -0.38440  -0.38355  -0.38342
 Alpha  occ. eigenvalues --   -0.38159  -0.37979  -0.37808  -0.37773  -0.37743
 Alpha  occ. eigenvalues --   -0.37250  -0.37250  -0.36874  -0.36819  -0.36579
 Alpha  occ. eigenvalues --   -0.36335  -0.36294  -0.36209  -0.36113  -0.36057
 Alpha  occ. eigenvalues --   -0.35926  -0.35712  -0.35532  -0.35099  -0.35004
 Alpha  occ. eigenvalues --   -0.34956  -0.34848  -0.34726  -0.34016  -0.33712
 Alpha  occ. eigenvalues --   -0.33648  -0.32925  -0.32806  -0.32714  -0.32402
 Alpha  occ. eigenvalues --   -0.32161  -0.32094  -0.31769  -0.31410  -0.31179
 Alpha  occ. eigenvalues --   -0.30708  -0.29846  -0.29678  -0.29272  -0.29190
 Alpha  occ. eigenvalues --   -0.29124  -0.28829  -0.28621  -0.27103  -0.27012
 Alpha  occ. eigenvalues --   -0.26067  -0.26015  -0.25536  -0.25528  -0.25360
 Alpha  occ. eigenvalues --   -0.25260  -0.24819  -0.24479  -0.21298  -0.21221
 Alpha  occ. eigenvalues --   -0.19085  -0.18982
 Alpha virt. eigenvalues --   -0.11713  -0.11263  -0.05924  -0.05798  -0.04267
 Alpha virt. eigenvalues --   -0.03963  -0.02200  -0.02062  -0.01664  -0.00561
 Alpha virt. eigenvalues --    0.00418   0.00807   0.00965   0.01194   0.01679

 Mulliken charges:
               1
     1  Mg  12.002299
     2  C    5.990168
     3  C    6.010586
     4  C    6.015185
     5  C    5.993305
     6  N    6.995040
     7  C    6.024738
     8  C    5.988124
     9  C    6.008384
    10  C    5.974874
    11  C    6.001032
    12  C    5.998943
    13  C    5.996228
    14  H    1.008417
    15  N    7.000580
    16  C    5.966378
    17  C    5.971209
    18  C    5.987577
    19  C    5.972044
    20  C    6.001995
    21  C    5.988570
    22  O    7.970149
    23  C    6.006345
    24  N    7.001325
    25  C    5.967297
    26  C    6.013265
    27  C    5.987683
    28  C    6.030880
    29  C    6.002643
    30  C    5.994491
    31  C    6.000359
    32  N    7.000500
    33  C    6.035163
    34  C    6.027063
    35  C    6.004683
    36  C    6.024920
    37  C    5.999866
    38  C    6.016019
    39  O    8.032374
    40  C    5.999606
    41  C    6.000774
    42  O    8.008155
    43  O    7.999640
    44  C    5.998007
    45  H    0.991819
    46  H    0.993401
    47  H    1.009513
    48  H    1.002594
    49  H    1.000164
    50  H    1.002911
    51  H    1.000057
    52  H    0.987653
    53  H    1.009043
    54  H    0.997390
    55  H    0.997107
    56  H    0.997973
    57  H    0.980441
    58  H    0.986098
    59  H    0.980743
    60  H    0.986561
    61  H    0.990043
    62  H    0.992292
    63  H    0.997540
    64  H    1.003302
    65  H    0.989598
    66  H    1.001743
    67  H    1.001544
    68  H    1.000624
    69  H    1.011121
    70  H    0.995140
    71  H    1.004958
    72  H    1.000113
    73  H    1.017372
    74  H    1.017865
    75  H    1.012669
    76  H    1.010981
    77  H    1.002117
    78  H    1.006066
    79  H    1.004558
    80  Mg  11.999926
    81  C    5.999791
    82  C    6.000381
    83  C    6.000220
    84  C    5.999726
    85  N    6.999880
    86  C    6.000509
    87  C    5.999984
    88  C    6.000211
    89  C    5.999266
    90  C    6.000050
    91  C    5.999954
    92  C    5.999921
    93  H    1.000109
    94  N    7.000115
    95  C    5.999261
    96  C    5.999634
    97  C    5.999792
    98  C    5.999368
    99  C    6.000121
   100  C    5.999748
   101  O    7.999556
   102  C    6.000105
   103  N    6.999920
   104  C    5.999529
   105  C    6.000209
   106  C    5.999781
   107  C    6.000631
   108  C    6.000037
   109  C    5.999958
   110  C    5.999973
   111  N    6.999991
   112  C    6.000713
   113  C    6.000513
   114  C    6.000080
   115  C    6.000539
   116  C    6.000038
   117  C    6.000351
   118  O    8.000679
   119  C    5.999980
   120  C    6.000101
   121  O    8.000061
   122  O    8.000034
   123  C    5.999961
   124  H    0.999787
   125  H    0.999823
   126  H    1.000233
   127  H    0.999934
   128  H    0.999820
   129  H    0.999827
   130  H    0.999848
   131  H    1.000069
   132  H    0.999956
   133  H    1.000093
   134  H    1.000001
   135  H    0.999973
   136  H    0.999589
   137  H    0.999604
   138  H    0.999599
   139  H    0.999808
   140  H    0.999727
   141  H    0.999919
   142  H    0.999963
   143  H    1.000122
   144  H    1.000062
   145  H    0.999832
   146  H    0.999985
   147  H    0.999937
   148  H    1.000211
   149  H    0.999999
   150  H    1.000086
   151  H    1.000117
   152  H    1.000337
   153  H    1.000304
   154  H    1.000238
   155  H    1.000215
   156  H    1.000099
   157  H    1.000124
   158  H    1.000052
 Sum of Mulliken charges = 624.00000

 Dipole moment (field-independent basis, Debye):
    X=             -6.9852    Y=             -8.0165    Z=              0.2751  Tot=             10.6364
 Quadrupole moment (field-independent basis, Debye-Ang):
   XX=           -263.4611   YY=             -4.2208   ZZ=              2.7079
   XY=           -165.4470   XZ=              2.3259   YZ=             -2.9267

 Normal termination of Gaussian 16 at Fri Oct 15 12:11:46 2021.
