 Gaussian 16, Revision A.03,
 Gaussian 16:  ES64L-G16RevA.03 25-Dec-2016

 --------------------------------------------------------
 #p PBE1PBE/Def2SVP td=(nstates=5) density=(transition=1)
 --------------------------------------------------------

 --------------------------------
 TDDFT excited states in gaussian
 --------------------------------
 Symbolic Z-matrix:
 Charge =  0 Multiplicity = 1

                         Standard orientation:
 ---------------------------------------------------------------------
 Center     Atomic      Atomic             Coordinates (Angstroms)
 Number     Number       Type             X           Y           Z
 ---------------------------------------------------------------------
      1         12           0      -31.076726   -0.550065   -0.231006
      2          6           0      -28.560844    1.800170   -0.285954
      3          6           0      -28.869120   -2.779645    1.117972
      4          6           0      -33.686631   -2.212406    0.925597
      5          6           0      -33.219538    1.881238   -1.581784
      6          7           0      -29.073697   -0.278016    0.758401
      7          6           0      -28.173578    0.670908    0.393244
      8          6           0      -26.781904    0.360853    0.859641
      9          6           0      -26.851245   -1.200386    0.887419
     10          6           0      -28.350646   -1.455401    0.844314
     11          6           0      -26.029300   -1.867537   -0.252460
     12          6           0      -26.480864    0.964043    2.322337
     13          6           0      -24.983169    1.470609    2.560650
     14          1           0      -24.397589    0.669919    3.697326
     15          7           0      -31.236248   -2.366806    0.700257
     16          6           0      -30.266943   -3.119030    1.266086
     17          6           0      -30.837713   -4.295380    1.909990
     18          6           0      -32.238782   -4.157576    1.830973
     19          6           0      -32.434876   -2.858312    1.128594
     20          6           0      -29.934871   -5.361132    2.577314
     21          6           0      -33.190556   -5.066740    2.557221
     22          8           0      -32.759537   -6.007047    3.172272
     23          6           0      -34.716353   -4.864181    2.624345
     24          7           0      -33.211120   -0.310731   -0.409473
     25          6           0      -34.021126   -1.094095    0.150925
     26          6           0      -35.432618   -0.643187    0.069217
     27          6           0      -35.314311    0.693648   -0.763145
     28          6           0      -33.860667    0.783499   -0.938047
     29          6           0      -36.365782   -1.759923   -0.509511
     30          6           0      -35.917657    1.947263    0.024318
     31          6           0      -36.281953    3.222912   -0.815521
     32          7           0      -30.965090    1.398349   -0.902272
     33          6           0      -31.897470    2.211869   -1.520142
     34          6           0      -31.280003    3.419574   -1.993581
     35          6           0      -29.913396    3.281622   -1.564991
     36          6           0      -29.816225    2.113303   -0.834104
     37          6           0      -31.917186    4.540189   -2.750264
     38          6           0      -28.637542    3.908604   -1.606814
     39          8           0      -28.195884    4.965182   -2.076531
     40          6           0      -27.754675    3.076280   -0.618986
     41          6           0      -26.436987    2.876089   -1.290407
     42          8           0      -25.444918    3.601370   -1.132367
     43          8           0      -26.510269    1.810642   -2.144668
     44          6           0      -25.201698    1.657144   -2.840330
     45          1           0      -28.225057   -3.607983    1.421696
     46          1           0      -34.524784   -2.751813    1.370435
     47          1           0      -33.908107    2.677525   -1.874654
     48          1           0      -26.149455    0.707591    0.043377
     49          1           0      -26.390601   -1.559507    1.807860
     50          1           0      -25.218197   -2.450466    0.182939
     51          1           0      -25.553423   -1.063979   -0.815495
     52          1           0      -26.727138   -2.428348   -0.873456
     53          1           0      -26.779540    0.346783    3.169482
     54          1           0      -27.108079    1.835538    2.507172
     55          1           0      -25.104051    2.496869    2.907784
     56          1           0      -24.294746    1.541274    1.718443
     57          1           0      -30.121179   -5.521368    3.639188
     58          1           0      -28.866983   -5.190488    2.436497
     59          1           0      -30.097956   -6.292266    2.035663
     60          1           0      -35.204803   -4.947758    1.654055
     61          1           0      -35.014088   -3.929990    3.101185
     62          1           0      -35.054201   -5.590166    3.364503
     63          1           0      -35.679714   -0.413183    1.105540
     64          1           0      -35.697013    0.705325   -1.783403
     65          1           0      -37.123936   -1.959597    0.247426
     66          1           0      -35.811588   -2.664943   -0.758974
     67          1           0      -37.014813   -1.424058   -1.318097
     68          1           0      -35.222123    2.271367    0.798744
     69          1           0      -36.810358    1.568515    0.519892
     70          1           0      -37.301282    3.607077   -0.842637
     71          1           0      -36.080583    3.054088   -1.872489
     72          1           0      -35.668255    4.067376   -0.501862
     73          1           0      -32.931709    4.372119   -3.111115
     74          1           0      -31.190139    4.640109   -3.555185
     75          1           0      -31.771258    5.351253   -2.036719
     76          1           0      -27.616551    3.539422    0.358594
     77          1           0      -25.062306    2.486369   -3.533181
     78          1           0      -25.188508    0.815155   -3.532450
     79          1           0      -24.430845    1.568298   -2.074544
     80         12           0       30.159391    0.370611    0.637834
     81          6           0       30.189982   -2.306277   -1.746058
     82          6           0       28.555270    2.229891   -1.541949
     83          6           0       30.943407    2.909960    2.618101
     84          6           0       32.275220   -1.800331    2.720864
     85          7           0       29.418270   -0.028817   -1.393787
     86          6           0       29.553449   -1.167461   -2.212788
     87          6           0       28.896063   -1.008899   -3.635756
     88          6           0       28.311748    0.522708   -3.450324
     89          6           0       28.751532    0.965984   -2.058528
     90          6           0       28.866324    1.517919   -4.557779
     91          6           0       27.839045   -2.100027   -4.025766
     92          6           0       26.915323   -1.743454   -5.184320
     93          1           0       27.106599   -2.603377   -6.447066
     94          7           0       29.707319    2.294888    0.590703
     95          6           0       28.996684    2.962796   -0.378736
     96          6           0       28.808595    4.362300   -0.059589
     97          6           0       29.521071    4.530692    1.193266
     98          6           0       30.040868    3.162543    1.549609
     99          6           0       28.017392    5.329993   -0.806546
    100          6           0       29.698135    5.767397    2.057030
    101          8           0       30.212207    5.762736    3.140278
    102          6           0       29.253190    7.053645    1.413183
    103          7           0       31.487098    0.548077    2.391638
    104          6           0       31.587204    1.739260    3.033638
    105          6           0       32.448908    1.607674    4.317875
    106          6           0       32.732819    0.066336    4.374476
    107          6           0       32.084963   -0.457669    3.107318
    108          6           0       33.758507    2.461476    4.420687
    109          6           0       32.176923   -0.693782    5.630032
    110          6           0       33.029375   -0.481966    6.900727
    111          7           0       31.084111   -1.589307    0.571601
    112          6           0       31.810036   -2.329470    1.476144
    113          6           0       31.995646   -3.627776    0.961624
    114          6           0       31.462474   -3.680561   -0.271455
    115          6           0       30.908319   -2.389123   -0.524242
    116          6           0       32.643763   -4.723056    1.798430
    117          6           0       31.232395   -4.439953   -1.504607
    118          8           0       31.550172   -5.562024   -1.803919
    119          6           0       30.398523   -3.524646   -2.522340
    120          6           0       31.306556   -3.189686   -3.662357
    121          8           0       32.113215   -2.300613   -3.816908
    122          8           0       31.013703   -4.130590   -4.629603
    123          6           0       31.758228   -4.036481   -5.907911
    124          1           0       28.071200    2.939358   -2.216153
    125          1           0       31.285973    3.806428    3.140491
    126          1           0       32.815573   -2.345555    3.498192
    127          1           0       29.702672   -0.937786   -4.365617
    128          1           0       27.229495    0.484489   -3.576474
    129          1           0       28.048560    2.134415   -4.930680
    130          1           0       29.414324    1.112509   -5.407913
    131          1           0       29.522847    2.259158   -4.103135
    132          1           0       27.346825   -2.232187   -3.061374
    133          1           0       28.189087   -3.112101   -4.230119
    134          1           0       27.079172   -0.702503   -5.461601
    135          1           0       25.891404   -1.982362   -4.898228
    136          1           0       27.237032    5.523451   -0.070568
    137          1           0       27.667517    4.908618   -1.749078
    138          1           0       28.477246    6.287062   -1.051992
    139          1           0       28.225027    7.265829    1.706062
    140          1           0       29.617824    7.181657    0.393576
    141          1           0       29.982300    7.773313    1.784377
    142          1           0       31.743991    1.725971    5.141335
    143          1           0       33.795906   -0.103663    4.202603
    144          1           0       34.687876    1.906900    4.553579
    145          1           0       33.671745    3.001126    5.363477
    146          1           0       33.940500    3.140542    3.587719
    147          1           0       32.171151   -1.764401    5.428573
    148          1           0       31.147092   -0.348575    5.731605
    149          1           0       34.040055   -0.172549    6.633773
    150          1           0       32.994813   -1.427607    7.441588
    151          1           0       32.673293    0.319025    7.549274
    152          1           0       32.302413   -5.710597    1.487841
    153          1           0       32.429892   -4.532764    2.850215
    154          1           0       33.730053   -4.643018    1.751935
    155          1           0       29.484375   -4.018330   -2.852911
    156          1           0       31.981954   -5.065275   -6.189823
    157          1           0       32.683004   -3.462834   -5.847916
    158          1           0       30.985930   -3.576729   -6.525364
 ---------------------------------------------------------------------

 SCF Done:  E(RPBE1PBE) =  -4067.37372065     A.U. after   17 cycles

 Excitation energies and oscillator strengths:

 Excited State   1:      Singlet-A      1.7987 eV  689.31 nm  f=0.3455  <S**2>=0.000
     309 -> 315        0.16136
     311 -> 313        0.69481
     311 <- 313       -0.10915
 This state for optimization and/or second-order correction.
 Total Energy, E(TD-HF/TD-DFT) =  -4067.30762076
 Copying the excited state density for this state as the 1-particle RhoCI density.

 Excited State   2:      Singlet-A      1.8601 eV  666.53 nm  f=0.3860  <S**2>=0.000
     310 -> 316       -0.16828
     312 -> 314        0.69340
     312 <- 314       -0.10831

 Excited State   3:      Singlet-A      1.9160 eV  647.12 nm  f=0.0000  <S**2>=0.000
     312 -> 313        0.70711

 Excited State   4:      Singlet-A      2.0634 eV  600.87 nm  f=0.0000  <S**2>=0.000
     311 -> 314        0.70711

 Excited State   5:      Singlet-A      2.1989 eV  563.84 nm  f=0.1031  <S**2>=0.000
     309 -> 313        0.65387
     311 -> 315       -0.25107

 The electronic state is 1-A.
 Alpha  occ. eigenvalues --  -46.92590 -46.91978 -19.26305 -19.24481 -19.20067
 Alpha  occ. eigenvalues --  -19.19449 -19.19419 -19.19278 -19.19162 -19.18471
 Alpha  occ. eigenvalues --  -14.41691 -14.41513 -14.41471 -14.40859 -14.39746
 Alpha  occ. eigenvalues --  -14.39264 -14.38505 -14.38452 -10.35922 -10.35841
 Alpha  occ. eigenvalues --  -10.32616 -10.32398 -10.31885 -10.31490 -10.29771
 Alpha  occ. eigenvalues --  -10.29022 -10.29016 -10.28663 -10.28595 -10.28397
 Alpha  occ. eigenvalues --  -10.28313 -10.28196 -10.28115 -10.28102 -10.27949
 Alpha  occ. eigenvalues --  -10.27887 -10.27847 -10.27811 -10.26857 -10.26783
 Alpha  occ. eigenvalues --  -10.26727 -10.26675 -10.26630 -10.26522 -10.26432
 Alpha  occ. eigenvalues --  -10.26364 -10.26181 -10.26161 -10.26152 -10.26100
 Alpha  occ. eigenvalues --  -10.25930 -10.25665 -10.25497 -10.25425 -10.25358
 Alpha  occ. eigenvalues --  -10.25342 -10.25332 -10.25229 -10.25144 -10.25089
 Alpha  occ. eigenvalues --  -10.24747 -10.24697 -10.24685 -10.24630 -10.24625
 Alpha  occ. eigenvalues --  -10.24578 -10.24429 -10.24424 -10.24419 -10.24417
 Alpha  occ. eigenvalues --  -10.24382 -10.24368 -10.24353 -10.23921 -10.23840
 Alpha  occ. eigenvalues --  -10.23770 -10.23768 -10.23644 -10.23625 -10.23376
 Alpha  occ. eigenvalues --  -10.23250 -10.23012 -10.23005 -10.22999 -10.22559
 Alpha  occ. eigenvalues --  -10.22382  -3.14742  -3.14100  -1.87569  -1.87131
 Alpha  occ. eigenvalues --   -1.86957  -1.86936  -1.86455  -1.86347  -1.10823
 Alpha  occ. eigenvalues --   -1.10394  -1.06419  -1.06121  -1.05512  -1.03126
 Alpha  occ. eigenvalues --   -1.02239  -1.01684  -1.01382  -0.99078  -0.98542
 Alpha  occ. eigenvalues --   -0.98458  -0.97981  -0.97701  -0.97118  -0.96191
 Alpha  occ. eigenvalues --   -0.87336  -0.87077  -0.84104  -0.83212  -0.82942
 Alpha  occ. eigenvalues --   -0.82533  -0.82525  -0.82294  -0.81646  -0.81473
 Alpha  occ. eigenvalues --   -0.81206  -0.81179  -0.80806  -0.80363  -0.78520
 Alpha  occ. eigenvalues --   -0.78204  -0.78182  -0.77452  -0.76545  -0.76432
 Alpha  occ. eigenvalues --   -0.76216  -0.75877  -0.75180  -0.75032  -0.74710
 Alpha  occ. eigenvalues --   -0.74415  -0.72831  -0.72420  -0.71968  -0.71281
 Alpha  occ. eigenvalues --   -0.71110  -0.70914  -0.70361  -0.69833  -0.69794
 Alpha  occ. eigenvalues --   -0.69191  -0.67223  -0.67196  -0.66632  -0.65723
 Alpha  occ. eigenvalues --   -0.64907  -0.63950  -0.63652  -0.63114  -0.62594
 Alpha  occ. eigenvalues --   -0.62181  -0.62044  -0.61427  -0.61353  -0.59801
 Alpha  occ. eigenvalues --   -0.59515  -0.59445  -0.59127  -0.59062  -0.58802
 Alpha  occ. eigenvalues --   -0.58448  -0.57081  -0.56003  -0.54940  -0.54622
 Alpha  occ. eigenvalues --   -0.54227  -0.54059  -0.53743  -0.53397  -0.53345
 Alpha  occ. eigenvalues --   -0.52656  -0.52588  -0.52482  -0.51517  -0.51447
 Alpha  occ. eigenvalues --   -0.51294  -0.50787  -0.50691  -0.50307  -0.50150
 Alpha  occ. eigenvalues --   -0.49582  -0.49548  -0.49005  -0.48835  -0.48810
 Alpha  occ. eigenvalues --   -0.48512  -0.48286  -0.48255  -0.47553  -0.47292
 Alpha  occ. eigenvalues --   -0.47161  -0.46941  -0.46808  -0.46515  -0.46466
 Alpha  occ. eigenvalues --   -0.46298  -0.46231  -0.45934  -0.45912  -0.45793
 Alpha  occ. eigenvalues --   -0.45461  -0.45379  -0.45118  -0.44817  -0.44812
 Alpha  occ. eigenvalues --   -0.44773  -0.44516  -0.44414  -0.44228  -0.44144
 Alpha  occ. eigenvalues --   -0.44048  -0.43888  -0.43749  -0.43651  -0.43394
 Alpha  occ. eigenvalues --   -0.43324  -0.43067  -0.42976  -0.42643  -0.42472
 Alpha  occ. eigenvalues --   -0.42440  -0.42402  -0.42378  -0.42028  -0.41755
 Alpha  occ. eigenvalues --   -0.41593  -0.41440  -0.41414  -0.41054  -0.41032
 Alpha  occ. eigenvalues --   -0.41006  -0.40670  -0.40574  -0.40540  -0.40395
 Alpha  occ. eigenvalues --   -0.40214  -0.40071  -0.39981  -0.39909  -0.39792
 Alpha  occ. eigenvalues --   -0.39763  -0.39620  -0.39488  -0.39478  -0.39225
 Alpha  occ. eigenvalues --   -0.39131  -0.38928  -0.38722  -0.38717  -0.38635
 Alpha  occ. eigenvalues --   -0.38331  -0.38271  -0.38046  -0.37999  -0.37620
 Alpha  occ. eigenvalues --   -0.37571  -0.37469  -0.37417  -0.37055  -0.36914
 Alpha  occ. eigenvalues --   -0.36912  -0.36813  -0.36716  -0.36433  -0.36253
 Alpha  occ. eigenvalues --   -0.36134  -0.35928  -0.35774  -0.35758  -0.35609
 Alpha  occ. eigenvalues --   -0.35355  -0.34986  -0.34611  -0.34340  -0.33777
 Alpha  occ. eigenvalues --   -0.33636  -0.33252  -0.33089  -0.32763  -0.32683
 Alpha  occ. eigenvalues --   -0.32068  -0.31924  -0.31819  -0.31513  -0.31484
 Alpha  occ. eigenvalues --   -0.31416  -0.30648  -0.30209  -0.29392  -0.29114
 Alpha  occ. eigenvalues --   -0.29094  -0.28394  -0.28247  -0.26857  -0.26853
 Alpha  occ. eigenvalues --   -0.26296  -0.26114  -0.25765  -0.25744  -0.25471
 Alpha  occ. eigenvalues --   -0.25352  -0.25343  -0.24757  -0.21049  -0.20558
 Alpha  occ. eigenvalues --   -0.18762  -0.18586
 Alpha virt. eigenvalues --   -0.11330  -0.10964  -0.05342  -0.04709  -0.04003
 Alpha virt. eigenvalues --   -0.03299  -0.02283  -0.01762  -0.00819  -0.00225
 Alpha virt. eigenvalues --    0.00233   0.00830   0.01183   0.01417   0.02083

 Mulliken charges:
               1
     1  Mg  12.000673
     2  C    6.012981
     3  C    5.992601
     4  C    5.984912
     5  C    6.003421
     6  N    7.008247
     7  C    5.965773
     8  C    6.010271
     9  C    5.986385
    10  C    6.032070
    11  C    5.996998
    12  C    5.998935
    13  C    6.002192
    14  H    0.991186
    15  N    6.995522
    16  C    6.035334
    17  C    6.022510
    18  C    6.013611
    19  C    6.028910
    20  C    5.996174
    21  C    6.009603
    22  O    8.018675
    23  C    5.998448
    24  N    7.000688
    25  C    6.029026
    26  C    5.991784
    27  C    6.010015
    28  C    5.965745
    29  C    5.997349
    30  C    6.006382
    31  C    6.001389
    32  N    6.999289
    33  C    5.973051
    34  C    5.968403
    35  C    6.000168
    36  C    5.975707
    37  C    5.999200
    38  C    5.984205
    39  O    7.970984
    40  C    6.001440
    41  C    5.996269
    42  O    7.992893
    43  O    8.001012
    44  C    6.000819
    45  H    1.010246
    46  H    1.006240
    47  H    0.991692
    48  H    1.002910
    49  H    1.005095
    50  H    1.003396
    51  H    1.015007
    52  H    0.999537
    53  H    0.989353
    54  H    1.004972
    55  H    1.002057
    56  H    1.000445
    57  H    1.017212
    58  H    1.017196
    59  H    1.016859
    60  H    1.010574
    61  H    1.010982
    62  H    1.010731
    63  H    0.997964
    64  H    0.998420
    65  H    0.999967
    66  H    0.994097
    67  H    1.008805
    68  H    0.997207
    69  H    0.988125
    70  H    0.994265
    71  H    1.001513
    72  H    1.003539
    73  H    0.982805
    74  H    0.985001
    75  H    0.983006
    76  H    0.991667
    77  H    1.000064
    78  H    0.993685
    79  H    0.994115
    80  Mg  11.999993
    81  C    6.000077
    82  C    5.999924
    83  C    5.999990
    84  C    6.000105
    85  N    6.999962
    86  C    6.000000
    87  C    6.000013
    88  C    5.999982
    89  C    6.000083
    90  C    5.999997
    91  C    6.000006
    92  C    5.999998
    93  H    0.999994
    94  N    7.000071
    95  C    6.000051
    96  C    5.999947
    97  C    6.000017
    98  C    5.999991
    99  C    5.999981
   100  C    6.000107
   101  O    8.000032
   102  C    5.999982
   103  N    7.000058
   104  C    6.000036
   105  C    5.999979
   106  C    6.000016
   107  C    5.999903
   108  C    6.000001
   109  C    6.000017
   110  C    5.999994
   111  N    6.999936
   112  C    5.999917
   113  C    5.999922
   114  C    6.000058
   115  C    6.000002
   116  C    5.999992
   117  C    5.999829
   118  O    7.999984
   119  C    5.999990
   120  C    5.999985
   121  O    7.999985
   122  O    7.999996
   123  C    5.999994
   124  H    1.000055
   125  H    1.000029
   126  H    0.999945
   127  H    0.999979
   128  H    1.000021
   129  H    1.000013
   130  H    1.000025
   131  H    0.999997
   132  H    0.999990
   133  H    0.999996
   134  H    1.000001
   135  H    0.999994
   136  H    1.000056
   137  H    1.000052
   138  H    1.000073
   139  H    1.000037
   140  H    1.000025
   141  H    1.000043
   142  H    1.000006
   143  H    0.999992
   144  H    1.000015
   145  H    1.000003
   146  H    1.000002
   147  H    0.999998
   148  H    0.999980
   149  H    1.000002
   150  H    0.999989
   151  H    0.999989
   152  H    0.999957
   153  H    0.999953
   154  H    0.999942
   155  H    0.999964
   156  H    0.999989
   157  H    0.999997
   158  H    0.999996
 Sum of Mulliken charges = 624.00000

 Dipole moment (field-independent basis, Debye):
    X=             -0.6792    Y=             -9.1233    Z=              4.1952  Tot=             10.0646
 Quadrupole moment (field-independent basis, Debye-Ang):
   XX=             38.4535   YY=              7.8711   ZZ=             -0.2497
   XY=            284.4240   XZ=           -131.5518   YZ=             -2.7004

 Normal termination of Gaussian 16 at Fri Oct 15 07:45:05 2021.
