 Gaussian 16, Revision A.03,
 Gaussian 16:  ES64L-G16RevA.03 25-Dec-2016

 --------------------------------------------------------
 #p PBE1PBE/Def2SVP td=(nstates=5) density=(transition=1)
 --------------------------------------------------------

 --------------------------------
 TDDFT excited states in gaussian
 --------------------------------
 Symbolic Z-matrix:
 Charge =  0 Multiplicity = 1

                         Standard orientation:
 ---------------------------------------------------------------------
 Center     Atomic      Atomic             Coordinates (Angstroms)
 Number     Number       Type             X           Y           Z
 ---------------------------------------------------------------------
      1         12           0       25.254647   -0.123545    0.107767
      2          6           0       22.081446   -1.305835   -0.209705
      3          6           0       25.734605   -0.716024   -3.345796
      4          6           0       27.857700    1.966534    0.207155
      5          6           0       24.495794    0.943677    3.473446
      6          7           0       24.044567   -0.932272   -1.508784
      7          6           0       22.820065   -1.342871   -1.481886
      8          6           0       22.388748   -2.097150   -2.789617
      9          6           0       23.694531   -2.143817   -3.671051
     10          6           0       24.620139   -1.227133   -2.799156
     11          6           0       24.182204   -3.531047   -4.091294
     12          6           0       21.075803   -1.410111   -3.497474
     13          6           0       20.768323    0.049289   -3.203590
     14          1           0       19.863672    0.856067   -4.135033
     15          7           0       26.597992    0.533683   -1.379442
     16          6           0       26.683707    0.140432   -2.693366
     17          6           0       27.726393    0.827149   -3.323140
     18          6           0       28.363579    1.666215   -2.329454
     19          6           0       27.581537    1.447724   -1.084095
     20          6           0       28.129931    0.493750   -4.747714
     21          6           0       29.575822    2.572169   -2.611467
     22          8           0       30.036170    2.583916   -3.775228
     23          6           0       30.231696    3.415003   -1.653914
     24          7           0       26.001631    1.427613    1.624123
     25          6           0       27.178731    1.945356    1.415250
     26          6           0       27.746775    2.686576    2.658911
     27          6           0       26.697781    2.319190    3.731113
     28          6           0       25.612955    1.472812    2.950061
     29          6           0       29.111903    2.259617    3.062444
     30          6           0       26.098051    3.601503    4.479082
     31          6           0       26.499160    3.772060    6.001950
     32          7           0       23.707999   -0.234498    1.466191
     33          6           0       23.517785    0.187817    2.787881
     34          6           0       22.167292   -0.266657    3.243954
     35          6           0       21.595620   -0.802402    2.081169
     36          6           0       22.541676   -0.737385    1.015505
     37          6           0       21.545238   -0.130874    4.547307
     38          6           0       20.393603   -1.332988    1.625214
     39          8           0       19.308646   -1.590413    2.167099
     40          6           0       20.670583   -1.770176    0.158709
     41          6           0       20.364226   -3.282231    0.041601
     42          8           0       19.620532   -3.829633   -0.754525
     43          8           0       21.052670   -4.026501    0.975093
     44          6           0       20.819864   -5.475513    0.995479
     45          1           0       25.768357   -0.891947   -4.422853
     46          1           0       28.782165    2.530591    0.345898
     47          1           0       24.346487    1.120281    4.540570
     48          1           0       22.234702   -3.137369   -2.501473
     49          1           0       23.588610   -1.571379   -4.593094
     50          1           0       25.144224   -3.738380   -3.623050
     51          1           0       24.333362   -3.606150   -5.168769
     52          1           0       23.496578   -4.354422   -3.890913
     53          1           0       20.288584   -2.100107   -3.192758
     54          1           0       21.104744   -1.365225   -4.586377
     55          1           0       21.757894    0.504778   -3.177137
     56          1           0       20.393096    0.059271   -2.180101
     57          1           0       29.154195    0.189515   -4.964745
     58          1           0       27.835343    1.320902   -5.394001
     59          1           0       27.518234   -0.335743   -5.101969
     60          1           0       30.693935    2.939401   -0.789088
     61          1           0       29.505157    4.050620   -1.148718
     62          1           0       30.924811    4.127525   -2.100046
     63          1           0       27.867202    3.768824    2.612350
     64          1           0       27.064786    1.600529    4.463970
     65          1           0       29.907744    2.960744    2.811614
     66          1           0       29.436629    1.402322    2.471699
     67          1           0       29.140907    2.055110    4.132570
     68          1           0       25.012780    3.495231    4.508040
     69          1           0       26.413062    4.556002    4.059592
     70          1           0       26.798167    4.802935    6.187470
     71          1           0       27.407232    3.194113    6.174137
     72          1           0       25.581473    3.571929    6.555341
     73          1           0       22.379912   -0.164009    5.247929
     74          1           0       20.873798   -0.967875    4.742202
     75          1           0       20.946687    0.778613    4.504927
     76          1           0       19.899869   -1.444320   -0.539422
     77          1           0       21.058203   -5.846107    1.992633
     78          1           0       21.423361   -6.103205    0.340016
     79          1           0       19.813437   -5.764132    0.690902
     80         12           0      -25.047519    0.573308    0.144435
     81          6           0      -22.270701   -1.433523    0.720958
     82          6           0      -26.996986   -2.233619    0.450843
     83          6           0      -27.789520    2.499088   -0.684842
     84          6           0      -22.990685    3.255075   -0.708875
     85          7           0      -24.659702   -1.555707    0.636479
     86          6           0      -23.486853   -2.137067    0.940907
     87          6           0      -23.595677   -3.596288    1.441369
     88          6           0      -25.117828   -3.913679    1.115506
     89          6           0      -25.664819   -2.479221    0.652461
     90          6           0      -25.183673   -5.040408    0.023665
     91          6           0      -23.232913   -3.584935    3.014431
     92          6           0      -22.114371   -4.564211    3.477554
     93          1           0      -21.859865   -5.759043    2.488947
     94          7           0      -27.096458    0.223521   -0.165641
     95          6           0      -27.712320   -1.016100    0.104085
     96          6           0      -29.148293   -0.838689    0.066257
     97          6           0      -29.399377    0.488211   -0.305246
     98          6           0      -28.058373    1.181522   -0.329703
     99          6           0      -30.099874   -2.043238    0.093330
    100          6           0      -30.769452    1.157916   -0.592097
    101          8           0      -30.931162    2.349787   -0.914434
    102          6           0      -32.043098    0.317997   -0.394626
    103          7           0      -25.289974    2.572784   -0.666918
    104          6           0      -26.589644    3.133137   -0.857935
    105          6           0      -26.483267    4.516911   -1.532227
    106          6           0      -24.942042    4.852608   -1.265938
    107          6           0      -24.370108    3.485283   -0.807984
    108          6           0      -26.949874    4.415162   -2.975023
    109          6           0      -24.772612    5.938883   -0.121670
    110          6           0      -25.407777    5.853629    1.307976
    111          7           0      -23.072873    0.871887   -0.057333
    112          6           0      -22.346450    2.007420   -0.428822
    113          6           0      -20.952404    1.709478   -0.365549
    114          6           0      -20.865162    0.414444    0.112512
    115          6           0      -22.177642   -0.112899    0.194045
    116          6           0      -19.800718    2.598150   -0.788923
    117          6           0      -19.956315   -0.593313    0.492053
    118          8           0      -18.770571   -0.565241    0.398721
    119          6           0      -20.841289   -1.873857    0.789502
    120          6           0      -20.499696   -2.871847   -0.282187
    121          8           0      -21.226734   -3.140878   -1.215531
    122          8           0      -19.274362   -3.340328   -0.017417
    123          6           0      -18.644007   -3.945191   -1.165205
    124          1           0      -27.633512   -3.103147    0.626141
    125          1           0      -28.623307    3.012034   -1.167347
    126          1           0      -22.332222    4.082187   -0.984216
    127          1           0      -22.914461   -4.301333    0.965356
    128          1           0      -25.717239   -4.215196    1.974822
    129          1           0      -25.914600   -4.875003   -0.768201
    130          1           0      -25.456127   -5.875797    0.668020
    131          1           0      -24.161051   -5.210484   -0.312267
    132          1           0      -24.170156   -3.695347    3.559451
    133          1           0      -22.905834   -2.571786    3.249486
    134          1           0      -22.521013   -4.903671    4.429570
    135          1           0      -21.145907   -4.101624    3.665476
    136          1           0      -30.710524   -1.986632   -0.808137
    137          1           0      -30.789676   -1.938714    0.931875
    138          1           0      -29.526418   -2.967385    0.158455
    139          1           0      -32.083137   -0.390960   -1.222630
    140          1           0      -32.873310    1.004824   -0.558448
    141          1           0      -32.111125   -0.001903    0.644864
    142          1           0      -27.073542    5.177448   -0.896447
    143          1           0      -24.508501    5.321567   -2.148501
    144          1           0      -27.691319    3.631415   -3.131130
    145          1           0      -26.107270    4.218025   -3.637394
    146          1           0      -27.459352    5.328465   -3.281598
    147          1           0      -25.034970    6.907689   -0.546856
    148          1           0      -23.706371    5.882370    0.097654
    149          1           0      -26.401598    6.299579    1.266149
    150          1           0      -24.750623    6.441744    1.949647
    151          1           0      -25.400539    4.870412    1.779522
    152          1           0      -19.772389    3.532511   -0.228036
    153          1           0      -20.011640    2.812169   -1.836489
    154          1           0      -18.802951    2.217690   -0.565808
    155          1           0      -20.684735   -2.391310    1.736158
    156          1           0      -17.558350   -3.851278   -1.174135
    157          1           0      -19.021035   -3.786793   -2.175483
    158          1           0      -18.760716   -5.028488   -1.202846
 ---------------------------------------------------------------------

 SCF Done:  E(RPBE1PBE) =  -4067.34786843     A.U. after   19 cycles

 Excitation energies and oscillator strengths:

 Excited State   1:      Singlet-A      1.7341 eV  714.97 nm  f=0.0000  <S**2>=0.000
     312 -> 313        0.70711
 This state for optimization and/or second-order correction.
 Total Energy, E(TD-HF/TD-DFT) =  -4067.28414069
 Copying the excited state density for this state as the 1-particle RhoCI density.

 Excited State   2:      Singlet-A      1.8536 eV  668.89 nm  f=0.5581  <S**2>=0.000
     309 -> 315       -0.15504
     311 -> 313        0.68073
     312 -> 314       -0.14936
     311 <- 313       -0.11948

 Excited State   3:      Singlet-A      1.8557 eV  668.14 nm  f=0.2376  <S**2>=0.000
     310 -> 316       -0.16584
     311 -> 313        0.15013
     312 -> 314        0.67691
     312 <- 314       -0.10524

 Excited State   4:      Singlet-A      2.1987 eV  563.89 nm  f=0.0000  <S**2>=0.000
     311 -> 314        0.70711

 Excited State   5:      Singlet-A      2.2281 eV  556.46 nm  f=0.1212  <S**2>=0.000
     310 -> 314        0.65663
     312 -> 316        0.24644

 The electronic state is 1-A.
 Alpha  occ. eigenvalues --  -46.93710 -46.91448 -19.26665 -19.25478 -19.20307
 Alpha  occ. eigenvalues --  -19.20150 -19.19321 -19.19015 -19.18974 -19.17861
 Alpha  occ. eigenvalues --  -14.42696 -14.41685 -14.41402 -14.40911 -14.40109
 Alpha  occ. eigenvalues --  -14.39600 -14.39292 -14.38621 -10.36730 -10.36183
 Alpha  occ. eigenvalues --  -10.32417 -10.31714 -10.31645 -10.31590 -10.30547
 Alpha  occ. eigenvalues --  -10.29255 -10.29163 -10.28863 -10.28682 -10.28681
 Alpha  occ. eigenvalues --  -10.28591 -10.28569 -10.28470 -10.28209 -10.28184
 Alpha  occ. eigenvalues --  -10.27834 -10.27712 -10.27648 -10.27598 -10.27540
 Alpha  occ. eigenvalues --  -10.27348 -10.27128 -10.27067 -10.27042 -10.26967
 Alpha  occ. eigenvalues --  -10.26351 -10.26325 -10.26310 -10.26301 -10.26243
 Alpha  occ. eigenvalues --  -10.26158 -10.25848 -10.25640 -10.25589 -10.25560
 Alpha  occ. eigenvalues --  -10.25547 -10.25508 -10.25308 -10.25229 -10.25059
 Alpha  occ. eigenvalues --  -10.25042 -10.24895 -10.24808 -10.24807 -10.24794
 Alpha  occ. eigenvalues --  -10.24760 -10.24701 -10.24689 -10.24391 -10.24259
 Alpha  occ. eigenvalues --  -10.24237 -10.24128 -10.24123 -10.23929 -10.23581
 Alpha  occ. eigenvalues --  -10.23523 -10.23483 -10.23311 -10.23173 -10.23081
 Alpha  occ. eigenvalues --  -10.23075 -10.22985 -10.22895 -10.22758 -10.22562
 Alpha  occ. eigenvalues --  -10.22112  -3.15699  -3.13629  -1.88515  -1.88106
 Alpha  occ. eigenvalues --   -1.87887  -1.86471  -1.85980  -1.85875  -1.12811
 Alpha  occ. eigenvalues --   -1.10849  -1.06553  -1.03752  -1.03594  -1.03180
 Alpha  occ. eigenvalues --   -1.02526  -1.02139  -0.99595  -0.99114  -0.98657
 Alpha  occ. eigenvalues --   -0.98199  -0.97865  -0.97263  -0.97123  -0.95963
 Alpha  occ. eigenvalues --   -0.87234  -0.86986  -0.84028  -0.83731  -0.83326
 Alpha  occ. eigenvalues --   -0.82910  -0.82452  -0.82318  -0.82092  -0.82004
 Alpha  occ. eigenvalues --   -0.81296  -0.80785  -0.80343  -0.79754  -0.79005
 Alpha  occ. eigenvalues --   -0.78425  -0.78159  -0.77600  -0.77221  -0.76820
 Alpha  occ. eigenvalues --   -0.76509  -0.75683  -0.75455  -0.75163  -0.74557
 Alpha  occ. eigenvalues --   -0.74171  -0.72848  -0.72030  -0.71706  -0.71352
 Alpha  occ. eigenvalues --   -0.71255  -0.70983  -0.70648  -0.70070  -0.69712
 Alpha  occ. eigenvalues --   -0.69321  -0.67842  -0.67320  -0.66432  -0.65613
 Alpha  occ. eigenvalues --   -0.63975  -0.63271  -0.63205  -0.63039  -0.62754
 Alpha  occ. eigenvalues --   -0.62288  -0.61377  -0.60839  -0.60416  -0.60233
 Alpha  occ. eigenvalues --   -0.60147  -0.59364  -0.59110  -0.59042  -0.58993
 Alpha  occ. eigenvalues --   -0.58362  -0.57833  -0.56884  -0.55403  -0.54581
 Alpha  occ. eigenvalues --   -0.54417  -0.53896  -0.53583  -0.53513  -0.53165
 Alpha  occ. eigenvalues --   -0.52722  -0.52665  -0.52564  -0.51799  -0.51692
 Alpha  occ. eigenvalues --   -0.51020  -0.50661  -0.50274  -0.50259  -0.49982
 Alpha  occ. eigenvalues --   -0.49479  -0.49288  -0.49002  -0.48963  -0.48470
 Alpha  occ. eigenvalues --   -0.48419  -0.48046  -0.47773  -0.47768  -0.47731
 Alpha  occ. eigenvalues --   -0.47492  -0.47120  -0.46987  -0.46777  -0.46731
 Alpha  occ. eigenvalues --   -0.46489  -0.46349  -0.46178  -0.46100  -0.45715
 Alpha  occ. eigenvalues --   -0.45550  -0.45536  -0.45307  -0.45057  -0.44846
 Alpha  occ. eigenvalues --   -0.44507  -0.44404  -0.44376  -0.44187  -0.44025
 Alpha  occ. eigenvalues --   -0.43875  -0.43793  -0.43666  -0.43501  -0.43429
 Alpha  occ. eigenvalues --   -0.43277  -0.43251  -0.43016  -0.42940  -0.42572
 Alpha  occ. eigenvalues --   -0.42419  -0.42390  -0.42146  -0.42103  -0.41901
 Alpha  occ. eigenvalues --   -0.41660  -0.41552  -0.41373  -0.41317  -0.41003
 Alpha  occ. eigenvalues --   -0.41000  -0.40904  -0.40675  -0.40493  -0.40390
 Alpha  occ. eigenvalues --   -0.40232  -0.40068  -0.39835  -0.39716  -0.39635
 Alpha  occ. eigenvalues --   -0.39585  -0.39475  -0.39324  -0.39208  -0.39150
 Alpha  occ. eigenvalues --   -0.38916  -0.38562  -0.38499  -0.38437  -0.38352
 Alpha  occ. eigenvalues --   -0.38121  -0.37851  -0.37726  -0.37609  -0.37476
 Alpha  occ. eigenvalues --   -0.37456  -0.37222  -0.37194  -0.36849  -0.36844
 Alpha  occ. eigenvalues --   -0.36746  -0.36601  -0.36356  -0.36187  -0.35826
 Alpha  occ. eigenvalues --   -0.35706  -0.35672  -0.35615  -0.35571  -0.35147
 Alpha  occ. eigenvalues --   -0.34992  -0.34748  -0.34466  -0.34061  -0.34019
 Alpha  occ. eigenvalues --   -0.33594  -0.33040  -0.32885  -0.32646  -0.32440
 Alpha  occ. eigenvalues --   -0.32053  -0.31903  -0.31840  -0.31579  -0.31510
 Alpha  occ. eigenvalues --   -0.31304  -0.31174  -0.29782  -0.29631  -0.29576
 Alpha  occ. eigenvalues --   -0.29294  -0.29155  -0.28230  -0.27148  -0.27104
 Alpha  occ. eigenvalues --   -0.26387  -0.26110  -0.25858  -0.25553  -0.25438
 Alpha  occ. eigenvalues --   -0.25136  -0.25052  -0.24839  -0.21805  -0.20651
 Alpha  occ. eigenvalues --   -0.19320  -0.18578
 Alpha virt. eigenvalues --   -0.11939  -0.10973  -0.05432  -0.04890  -0.04193
 Alpha virt. eigenvalues --   -0.03600  -0.02364  -0.02043  -0.01882  -0.00297
 Alpha virt. eigenvalues --    0.00483   0.00580   0.00839   0.01418   0.01646

 Mulliken charges:
               1
     1  Mg  12.000000
     2  C    6.000000
     3  C    6.000000
     4  C    6.000000
     5  C    6.000000
     6  N    7.000000
     7  C    6.000000
     8  C    6.000000
     9  C    6.000000
    10  C    6.000000
    11  C    6.000000
    12  C    6.000000
    13  C    6.000000
    14  H    1.000000
    15  N    7.000000
    16  C    6.000000
    17  C    6.000000
    18  C    6.000000
    19  C    6.000000
    20  C    6.000000
    21  C    6.000000
    22  O    8.000000
    23  C    6.000000
    24  N    7.000000
    25  C    6.000000
    26  C    6.000000
    27  C    6.000000
    28  C    6.000000
    29  C    6.000000
    30  C    6.000000
    31  C    6.000000
    32  N    7.000000
    33  C    6.000000
    34  C    6.000000
    35  C    6.000000
    36  C    6.000000
    37  C    6.000000
    38  C    6.000000
    39  O    8.000000
    40  C    6.000000
    41  C    6.000000
    42  O    8.000000
    43  O    8.000000
    44  C    6.000000
    45  H    1.000000
    46  H    1.000000
    47  H    1.000000
    48  H    1.000000
    49  H    1.000000
    50  H    1.000000
    51  H    1.000000
    52  H    1.000000
    53  H    1.000000
    54  H    1.000000
    55  H    1.000000
    56  H    1.000000
    57  H    1.000000
    58  H    1.000000
    59  H    1.000000
    60  H    1.000000
    61  H    1.000000
    62  H    1.000000
    63  H    1.000000
    64  H    1.000000
    65  H    1.000000
    66  H    1.000000
    67  H    1.000000
    68  H    1.000000
    69  H    1.000000
    70  H    1.000000
    71  H    1.000000
    72  H    1.000000
    73  H    1.000000
    74  H    1.000000
    75  H    1.000000
    76  H    1.000000
    77  H    1.000000
    78  H    1.000000
    79  H    1.000000
    80  Mg  12.000000
    81  C    6.000000
    82  C    6.000000
    83  C    6.000000
    84  C    6.000000
    85  N    7.000000
    86  C    6.000000
    87  C    6.000000
    88  C    6.000000
    89  C    6.000000
    90  C    6.000000
    91  C    6.000000
    92  C    6.000000
    93  H    1.000000
    94  N    7.000000
    95  C    6.000000
    96  C    6.000000
    97  C    6.000000
    98  C    6.000000
    99  C    6.000000
   100  C    6.000000
   101  O    8.000000
   102  C    6.000000
   103  N    7.000000
   104  C    6.000000
   105  C    6.000000
   106  C    6.000000
   107  C    6.000000
   108  C    6.000000
   109  C    6.000000
   110  C    6.000000
   111  N    7.000000
   112  C    6.000000
   113  C    6.000000
   114  C    6.000000
   115  C    6.000000
   116  C    6.000000
   117  C    6.000000
   118  O    8.000000
   119  C    6.000000
   120  C    6.000000
   121  O    8.000000
   122  O    8.000000
   123  C    6.000000
   124  H    1.000000
   125  H    1.000000
   126  H    1.000000
   127  H    1.000000
   128  H    1.000000
   129  H    1.000000
   130  H    1.000000
   131  H    1.000000
   132  H    1.000000
   133  H    1.000000
   134  H    1.000000
   135  H    1.000000
   136  H    1.000000
   137  H    1.000000
   138  H    1.000000
   139  H    1.000000
   140  H    1.000000
   141  H    1.000000
   142  H    1.000000
   143  H    1.000000
   144  H    1.000000
   145  H    1.000000
   146  H    1.000000
   147  H    1.000000
   148  H    1.000000
   149  H    1.000000
   150  H    1.000000
   151  H    1.000000
   152  H    1.000000
   153  H    1.000000
   154  H    1.000000
   155  H    1.000000
   156  H    1.000000
   157  H    1.000000
   158  H    1.000000
 Sum of Mulliken charges = 624.00000

 Dipole moment (field-independent basis, Debye):
    X=              0.0000    Y=             -0.0000    Z=             -0.0000  Tot=              0.0000
 Quadrupole moment (field-independent basis, Debye-Ang):
   XX=             -0.0000   YY=              0.0000   ZZ=             -0.0000
   XY=             -0.0000   XZ=             -0.0000   YZ=             -0.0000

 Normal termination of Gaussian 16 at Thu Oct 14 06:01:19 2021.
