 Gaussian 16, Revision A.03,
 Gaussian 16:  ES64L-G16RevA.03 25-Dec-2016

 --------------------------------------------------------
 #p PBE1PBE/Def2SVP td=(nstates=5) density=(transition=1)
 --------------------------------------------------------

 --------------------------------
 TDDFT excited states in gaussian
 --------------------------------
 Symbolic Z-matrix:
 Charge =  0 Multiplicity = 1

                         Standard orientation:
 ---------------------------------------------------------------------
 Center     Atomic      Atomic             Coordinates (Angstroms)
 Number     Number       Type             X           Y           Z
 ---------------------------------------------------------------------
      1         12           0      -25.532591   -0.827740   -0.075127
      2          6           0      -26.183639    2.511449    0.629039
      3          6           0      -24.315788    0.265454   -3.133556
      4          6           0      -25.359373   -4.097984   -0.992590
      5          6           0      -26.947657   -1.710912    2.953650
      6          7           0      -25.333394    1.162713   -1.146404
      7          6           0      -25.631369    2.423834   -0.653049
      8          6           0      -25.403974    3.586939   -1.696769
      9          6           0      -25.108329    2.732616   -2.989983
     10          6           0      -24.939687    1.276668   -2.418476
     11          6           0      -26.098186    2.698548   -4.158114
     12          6           0      -24.281316    4.531796   -1.230383
     13          6           0      -24.691287    5.896320   -0.742373
     14          1           0      -23.756507    7.067786   -1.092257
     15          7           0      -24.755275   -1.827030   -1.717024
     16          6           0      -24.250085   -1.169349   -2.794946
     17          6           0      -23.832722   -2.224708   -3.738567
     18          6           0      -24.202666   -3.472593   -3.213104
     19          6           0      -24.775656   -3.210241   -1.950292
     20          6           0      -23.044057   -1.898110   -4.941367
     21          6           0      -24.087553   -4.845457   -3.808027
     22          8           0      -24.361587   -5.903047   -3.175556
     23          6           0      -23.689781   -5.099225   -5.157043
     24          7           0      -25.986326   -2.602521    0.851767
     25          6           0      -25.805223   -3.831054    0.294585
     26          6           0      -26.234123   -4.945482    1.165646
     27          6           0      -26.694569   -4.203697    2.471621
     28          6           0      -26.593240   -2.786975    2.046830
     29          6           0      -27.279793   -6.014513    0.731735
     30          6           0      -25.908661   -4.615255    3.813041
     31          6           0      -24.550751   -3.977885    4.232540
     32          7           0      -26.432913    0.122486    1.482685
     33          6           0      -26.925964   -0.353728    2.663303
     34          6           0      -27.226180    0.706715    3.522687
     35          6           0      -27.017971    1.870277    2.686297
     36          6           0      -26.510624    1.448469    1.473504
     37          6           0      -27.657905    0.638117    4.986361
     38          6           0      -27.013008    3.303693    2.747801
     39          8           0      -27.200852    4.120285    3.626572
     40          6           0      -26.678289    3.772810    1.288514
     41          6           0      -27.891205    4.315617    0.645197
     42          8           0      -28.508505    3.814111   -0.320042
     43          8           0      -28.359139    5.453795    1.202558
     44          6           0      -29.436365    6.235326    0.504638
     45          1           0      -23.994196    0.610047   -4.117942
     46          1           0      -25.363830   -5.161496   -1.241088
     47          1           0      -27.244664   -1.898247    3.988129
     48          1           0      -26.341694    4.048552   -2.007886
     49          1           0      -24.138701    3.077436   -3.349043
     50          1           0      -26.567419    1.716687   -4.224705
     51          1           0      -25.495026    2.731168   -5.064239
     52          1           0      -26.865622    3.473289   -4.147479
     53          1           0      -23.672238    4.704755   -2.118406
     54          1           0      -23.661347    3.993332   -0.513590
     55          1           0      -24.759781    5.846015    0.344629
     56          1           0      -25.686935    6.223881   -1.041852
     57          1           0      -22.094839   -2.412907   -4.798518
     58          1           0      -22.843109   -0.854943   -5.188735
     59          1           0      -23.531566   -2.317649   -5.821342
     60          1           0      -24.239613   -4.374791   -5.757286
     61          1           0      -23.758173   -6.161520   -5.387884
     62          1           0      -22.655777   -4.797893   -5.324973
     63          1           0      -25.269928   -5.433245    1.305871
     64          1           0      -27.756047   -4.387279    2.633725
     65          1           0      -26.838138   -7.007185    0.643863
     66          1           0      -27.689333   -5.787973   -0.253255
     67          1           0      -28.152037   -6.057166    1.383918
     68          1           0      -25.693728   -5.668694    3.632423
     69          1           0      -26.704870   -4.503597    4.549187
     70          1           0      -24.235932   -3.117682    3.642309
     71          1           0      -23.725744   -4.671936    4.395530
     72          1           0      -24.735357   -3.642287    5.252184
     73          1           0      -28.609032    1.144299    5.154690
     74          1           0      -26.920748    1.188814    5.570459
     75          1           0      -27.671579   -0.367019    5.408628
     76          1           0      -26.035867    4.649714    1.370548
     77          1           0      -29.318603    7.155883    1.076481
     78          1           0      -30.436539    5.809155    0.575713
     79          1           0      -29.185657    6.344460   -0.550964
     80         12           0       26.231194   -0.599868    0.156927
     81          6           0       24.715858    2.651687    0.532376
     82          6           0       27.180283    0.415258   -3.062712
     83          6           0       27.720198   -3.508645   -0.162095
     84          6           0       24.923237   -1.518189    3.266117
     85          7           0       25.919042    1.370910   -1.106202
     86          6           0       25.482188    2.584115   -0.676617
     87          6           0       25.826249    3.693162   -1.657476
     88          6           0       26.317449    2.898169   -2.992330
     89          6           0       26.461189    1.476461   -2.376355
     90          6           0       25.377848    3.032094   -4.216833
     91          6           0       26.896864    4.687876   -1.094531
     92          6           0       26.433384    6.167555   -1.074283
     93          1           0       27.306788    7.144498   -2.053693
     94          7           0       27.274563   -1.402360   -1.348607
     95          6           0       27.573896   -0.887279   -2.655223
     96          6           0       28.385724   -1.812233   -3.481006
     97          6           0       28.569034   -2.913528   -2.582082
     98          6           0       27.854222   -2.633467   -1.325502
     99          6           0       28.829246   -1.545024   -4.920750
    100          6           0       29.253506   -4.202931   -2.833417
    101          8           0       29.587683   -5.013334   -1.975904
    102          6           0       29.714341   -4.505403   -4.272810
    103          7           0       26.439295   -2.165395    1.439837
    104          6           0       27.085714   -3.294856    1.071066
    105          6           0       26.867679   -4.434855    2.026675
    106          6           0       26.014329   -3.823538    3.165137
    107          6           0       25.804697   -2.382533    2.647802
    108          6           0       26.313746   -5.694715    1.394976
    109          6           0       26.847646   -3.826829    4.578162
    110          6           0       26.098602   -4.530677    5.835858
    111          7           0       24.831486    0.249434    1.513645
    112          6           0       24.475177   -0.247783    2.790385
    113          6           0       23.663201    0.776885    3.456637
    114          6           0       23.872085    1.931072    2.656698
    115          6           0       24.467735    1.533221    1.458829
    116          6           0       22.842093    0.694657    4.739935
    117          6           0       23.396936    3.336402    2.515102
    118          8           0       22.641668    4.101414    3.176747
    119          6           0       24.055156    3.854385    1.178192
    120          6           0       22.978559    4.446556    0.317312
    121          8           0       21.905943    3.943779    0.135376
    122          8           0       23.368758    5.683093   -0.116467
    123          6           0       22.242523    6.468921   -0.680934
    124          1           0       27.332493    0.727935   -4.097655
    125          1           0       28.190953   -4.493231   -0.207110
    126          1           0       24.536140   -1.769099    4.255651
    127          1           0       24.883949    4.188526   -1.891678
    128          1           0       27.322726    3.184472   -3.302604
    129          1           0       24.932217    2.070059   -4.471517
    130          1           0       25.923862    3.426691   -5.074712
    131          1           0       24.577624    3.766452   -4.124539
    132          1           0       27.816173    4.665289   -1.680308
    133          1           0       27.164122    4.450014   -0.064576
    134          1           0       26.629412    6.664499   -0.123810
    135          1           0       25.366407    6.322435   -1.231402
    136          1           0       28.796499   -0.511270   -5.266263
    137          1           0       28.340808   -2.152382   -5.682686
    138          1           0       29.878808   -1.839750   -4.946687
    139          1           0       28.857252   -4.546277   -4.944937
    140          1           0       30.308335   -5.417830   -4.335181
    141          1           0       30.365554   -3.691303   -4.590986
    142          1           0       27.844950   -4.766658    2.379916
    143          1           0       25.050072   -4.323901    3.249274
    144          1           0       27.044706   -6.500064    1.317748
    145          1           0       25.988331   -5.588717    0.360162
    146          1           0       25.448018   -6.008069    1.978803
    147          1           0       27.128870   -2.834318    4.928697
    148          1           0       27.798348   -4.353600    4.500154
    149          1           0       25.351826   -5.191349    5.395033
    150          1           0       25.636674   -3.795917    6.496575
    151          1           0       26.763386   -5.215868    6.361212
    152          1           0       22.811226    1.646064    5.270590
    153          1           0       23.383877    0.046073    5.429330
    154          1           0       21.916320    0.218732    4.416288
    155          1           0       24.689970    4.690473    1.470469
    156          1           0       21.777125    5.858226   -1.454362
    157          1           0       22.741561    7.292387   -1.191547
    158          1           0       21.432878    6.787059   -0.024209
 ---------------------------------------------------------------------

 SCF Done:  E(RPBE1PBE) =  -4067.37391916     A.U. after   16 cycles

 Excitation energies and oscillator strengths:

 Excited State   1:      Singlet-A      1.8271 eV  678.60 nm  f=0.3531  <S**2>=0.000
     309 -> 315       -0.18278
     311 -> 313        0.69145
     311 <- 313       -0.10668
 This state for optimization and/or second-order correction.
 Total Energy, E(TD-HF/TD-DFT) =  -4067.30677572
 Copying the excited state density for this state as the 1-particle RhoCI density.

 Excited State   2:      Singlet-A      1.8654 eV  664.65 nm  f=0.3701  <S**2>=0.000
     310 -> 316        0.17019
     312 -> 314        0.69169
     312 <- 314       -0.10906

 Excited State   3:      Singlet-A      1.9115 eV  648.63 nm  f=0.0000  <S**2>=0.000
     312 -> 313        0.70711

 Excited State   4:      Singlet-A      2.0710 eV  598.66 nm  f=0.0000  <S**2>=0.000
     311 -> 314        0.70711

 Excited State   5:      Singlet-A      2.1728 eV  570.63 nm  f=0.1311  <S**2>=0.000
     309 -> 313        0.65738
     311 -> 315        0.25559

 The electronic state is 1-A.
 Alpha  occ. eigenvalues --  -46.91981 -46.90921 -19.26308 -19.24659 -19.19973
 Alpha  occ. eigenvalues --  -19.19072 -19.19050 -19.18493 -19.18488 -19.18157
 Alpha  occ. eigenvalues --  -14.41969 -14.41605 -14.41454 -14.41389 -14.40321
 Alpha  occ. eigenvalues --  -14.39172 -14.39027 -14.38043 -10.35857 -10.35513
 Alpha  occ. eigenvalues --  -10.32443 -10.32126 -10.31577 -10.31339 -10.29463
 Alpha  occ. eigenvalues --  -10.29206 -10.29161 -10.29105 -10.29097 -10.29055
 Alpha  occ. eigenvalues --  -10.28725 -10.28705 -10.28567 -10.28496 -10.28239
 Alpha  occ. eigenvalues --  -10.28129 -10.28101 -10.27954 -10.27775 -10.27667
 Alpha  occ. eigenvalues --  -10.26886 -10.26860 -10.26812 -10.26460 -10.26437
 Alpha  occ. eigenvalues --  -10.26411 -10.26367 -10.26271 -10.25964 -10.25953
 Alpha  occ. eigenvalues --  -10.25943 -10.25931 -10.25810 -10.25689 -10.25625
 Alpha  occ. eigenvalues --  -10.25620 -10.25478 -10.25440 -10.25296 -10.25235
 Alpha  occ. eigenvalues --  -10.25094 -10.25016 -10.24982 -10.24951 -10.24941
 Alpha  occ. eigenvalues --  -10.24903 -10.24817 -10.24565 -10.24464 -10.24338
 Alpha  occ. eigenvalues --  -10.24301 -10.24253 -10.24013 -10.23926 -10.23756
 Alpha  occ. eigenvalues --  -10.23696 -10.23482 -10.23448 -10.23446 -10.23402
 Alpha  occ. eigenvalues --  -10.23231 -10.23141 -10.23100 -10.23007 -10.22890
 Alpha  occ. eigenvalues --  -10.22400  -3.14200  -3.13214  -1.87039  -1.86575
 Alpha  occ. eigenvalues --   -1.86445  -1.86066  -1.85592  -1.85441  -1.11740
 Alpha  occ. eigenvalues --   -1.09857  -1.04578  -1.04309  -1.03524  -1.02592
 Alpha  occ. eigenvalues --   -1.01908  -0.99861  -0.99514  -0.98748  -0.98672
 Alpha  occ. eigenvalues --   -0.97867  -0.97849  -0.97266  -0.96859  -0.96643
 Alpha  occ. eigenvalues --   -0.87470  -0.85960  -0.83256  -0.82912  -0.82782
 Alpha  occ. eigenvalues --   -0.82716  -0.82597  -0.82346  -0.81821  -0.81728
 Alpha  occ. eigenvalues --   -0.81312  -0.81254  -0.80444  -0.80096  -0.78612
 Alpha  occ. eigenvalues --   -0.78258  -0.77922  -0.77497  -0.76962  -0.76695
 Alpha  occ. eigenvalues --   -0.76092  -0.75507  -0.75286  -0.75020  -0.74860
 Alpha  occ. eigenvalues --   -0.73988  -0.73275  -0.72869  -0.71813  -0.71489
 Alpha  occ. eigenvalues --   -0.71126  -0.71124  -0.70497  -0.70340  -0.69634
 Alpha  occ. eigenvalues --   -0.69604  -0.67542  -0.67055  -0.65866  -0.65762
 Alpha  occ. eigenvalues --   -0.64477  -0.63504  -0.63174  -0.63110  -0.62422
 Alpha  occ. eigenvalues --   -0.61981  -0.61534  -0.61490  -0.60391  -0.60035
 Alpha  occ. eigenvalues --   -0.59660  -0.59485  -0.59198  -0.59009  -0.58895
 Alpha  occ. eigenvalues --   -0.58577  -0.56967  -0.56059  -0.55300  -0.54480
 Alpha  occ. eigenvalues --   -0.54162  -0.53878  -0.53703  -0.53336  -0.53249
 Alpha  occ. eigenvalues --   -0.52970  -0.52490  -0.52234  -0.51823  -0.51749
 Alpha  occ. eigenvalues --   -0.50758  -0.50708  -0.50100  -0.49891  -0.49494
 Alpha  occ. eigenvalues --   -0.49451  -0.49083  -0.48908  -0.48410  -0.48384
 Alpha  occ. eigenvalues --   -0.47978  -0.47816  -0.47293  -0.47247  -0.47085
 Alpha  occ. eigenvalues --   -0.47003  -0.46914  -0.46674  -0.46575  -0.46493
 Alpha  occ. eigenvalues --   -0.46292  -0.46063  -0.46013  -0.45646  -0.45473
 Alpha  occ. eigenvalues --   -0.45392  -0.45101  -0.44945  -0.44780  -0.44719
 Alpha  occ. eigenvalues --   -0.44552  -0.44376  -0.44332  -0.44188  -0.43985
 Alpha  occ. eigenvalues --   -0.43917  -0.43739  -0.43587  -0.43427  -0.43290
 Alpha  occ. eigenvalues --   -0.43027  -0.42968  -0.42814  -0.42795  -0.42655
 Alpha  occ. eigenvalues --   -0.42588  -0.42403  -0.42285  -0.42083  -0.41879
 Alpha  occ. eigenvalues --   -0.41714  -0.41594  -0.41416  -0.41228  -0.41166
 Alpha  occ. eigenvalues --   -0.40974  -0.40944  -0.40763  -0.40739  -0.40414
 Alpha  occ. eigenvalues --   -0.40346  -0.40161  -0.40058  -0.39905  -0.39756
 Alpha  occ. eigenvalues --   -0.39660  -0.39570  -0.39530  -0.39259  -0.39028
 Alpha  occ. eigenvalues --   -0.38913  -0.38770  -0.38762  -0.38561  -0.38528
 Alpha  occ. eigenvalues --   -0.38474  -0.38166  -0.38119  -0.37750  -0.37707
 Alpha  occ. eigenvalues --   -0.37651  -0.37466  -0.37334  -0.37110  -0.36782
 Alpha  occ. eigenvalues --   -0.36433  -0.36410  -0.36237  -0.36163  -0.35981
 Alpha  occ. eigenvalues --   -0.35696  -0.35622  -0.35610  -0.35380  -0.35158
 Alpha  occ. eigenvalues --   -0.35151  -0.34791  -0.34586  -0.34479  -0.33807
 Alpha  occ. eigenvalues --   -0.33581  -0.33261  -0.33208  -0.32820  -0.32525
 Alpha  occ. eigenvalues --   -0.32265  -0.31899  -0.31575  -0.31465  -0.31458
 Alpha  occ. eigenvalues --   -0.30657  -0.30505  -0.29768  -0.29516  -0.29379
 Alpha  occ. eigenvalues --   -0.28767  -0.28598  -0.27551  -0.27150  -0.26648
 Alpha  occ. eigenvalues --   -0.26011  -0.25708  -0.25620  -0.25579  -0.25193
 Alpha  occ. eigenvalues --   -0.25027  -0.25003  -0.24874  -0.20859  -0.20597
 Alpha  occ. eigenvalues --   -0.18936  -0.18692
 Alpha virt. eigenvalues --   -0.11413  -0.11069  -0.05331  -0.04865  -0.04085
 Alpha virt. eigenvalues --   -0.03499  -0.02391  -0.02016  -0.00018   0.00631
 Alpha virt. eigenvalues --    0.00685   0.00855   0.00995   0.01274   0.01454

 Mulliken charges:
               1
     1  Mg  12.000016
     2  C    5.999933
     3  C    6.000031
     4  C    6.000090
     5  C    6.000014
     6  N    6.999968
     7  C    6.000123
     8  C    5.999976
     9  C    6.000003
    10  C    5.999935
    11  C    6.000005
    12  C    5.999986
    13  C    5.999993
    14  H    1.000039
    15  N    7.000027
    16  C    5.999896
    17  C    5.999885
    18  C    5.999982
    19  C    5.999869
    20  C    6.000027
    21  C    6.000000
    22  O    7.999907
    23  C    6.000013
    24  N    7.000029
    25  C    5.999846
    26  C    6.000045
    27  C    5.999972
    28  C    6.000089
    29  C    5.999999
    30  C    5.999989
    31  C    5.999991
    32  N    7.000000
    33  C    6.000078
    34  C    6.000116
    35  C    6.000038
    36  C    6.000066
    37  C    5.999970
    38  C    6.000006
    39  O    8.000106
    40  C    6.000012
    41  C    5.999988
    42  O    8.000021
    43  O    8.000010
    44  C    5.999992
    45  H    0.999978
    46  H    0.999968
    47  H    1.000026
    48  H    0.999998
    49  H    1.000011
    50  H    0.999997
    51  H    0.999994
    52  H    0.999959
    53  H    1.000025
    54  H    1.000024
    55  H    1.000000
    56  H    0.999980
    57  H    0.999962
    58  H    0.999955
    59  H    0.999922
    60  H    0.999973
    61  H    0.999946
    62  H    0.999987
    63  H    1.000009
    64  H    0.999982
    65  H    0.999995
    66  H    0.999994
    67  H    0.999964
    68  H    1.000025
    69  H    0.999992
    70  H    1.000009
    71  H    1.000039
    72  H    1.000011
    73  H    1.000033
    74  H    1.000066
    75  H    1.000041
    76  H    1.000035
    77  H    1.000017
    78  H    0.999992
    79  H    1.000008
    80  Mg  11.995912
    81  C    6.024725
    82  C    6.002454
    83  C    5.971086
    84  C    6.002540
    85  N    7.017442
    86  C    5.967808
    87  C    6.009760
    88  C    5.988849
    89  C    6.027086
    90  C    5.997652
    91  C    6.001206
    92  C    6.002099
    93  H    0.993525
    94  N    6.997111
    95  C    6.030349
    96  C    6.024102
    97  C    6.012483
    98  C    6.026309
    99  C    5.996862
   100  C    6.011814
   101  O    8.031006
   102  C    5.996243
   103  N    6.991177
   104  C    6.035800
   105  C    5.991333
   106  C    6.010610
   107  C    5.971414
   108  C    5.999418
   109  C    6.004493
   110  C    6.000706
   111  N    7.001949
   112  C    5.963417
   113  C    5.969615
   114  C    5.997678
   115  C    5.971569
   116  C    5.998444
   117  C    5.988211
   118  O    7.970962
   119  C    5.996432
   120  C    5.993119
   121  O    7.999868
   122  O    7.998336
   123  C    6.001571
   124  H    1.013195
   125  H    1.001540
   126  H    0.987613
   127  H    1.002492
   128  H    1.000833
   129  H    0.999441
   130  H    1.003383
   131  H    1.012816
   132  H    0.992027
   133  H    1.004538
   134  H    1.002919
   135  H    1.001870
   136  H    1.014641
   137  H    1.018199
   138  H    1.014750
   139  H    1.007323
   140  H    1.013625
   141  H    1.005060
   142  H    0.998256
   143  H    0.996609
   144  H    0.997338
   145  H    0.994609
   146  H    1.008633
   147  H    1.000791
   148  H    0.988402
   149  H    0.996288
   150  H    1.002522
   151  H    0.993984
   152  H    0.986156
   153  H    0.984997
   154  H    0.984169
   155  H    0.995488
   156  H    0.995720
   157  H    0.995291
   158  H    0.999935
 Sum of Mulliken charges = 624.00000

 Dipole moment (field-independent basis, Debye):
    X=              5.2556    Y=             -3.2793    Z=             -7.9713  Tot=             10.0954
 Quadrupole moment (field-independent basis, Debye-Ang):
   XX=            275.0146   YY=              1.5948   ZZ=              0.0490
   XY=            -89.7063   XZ=           -209.5500   YZ=              5.8423

 Normal termination of Gaussian 16 at Thu Oct 14 04:33:59 2021.
