 Gaussian 16, Revision A.03,
 Gaussian 16:  ES64L-G16RevA.03 25-Dec-2016

 --------------------------------------------------------
 #p PBE1PBE/Def2SVP td=(nstates=5) density=(transition=1)
 --------------------------------------------------------

 --------------------------------
 TDDFT excited states in gaussian
 --------------------------------
 Symbolic Z-matrix:
 Charge =  0 Multiplicity = 1

                         Standard orientation:
 ---------------------------------------------------------------------
 Center     Atomic      Atomic             Coordinates (Angstroms)
 Number     Number       Type             X           Y           Z
 ---------------------------------------------------------------------
      1         12           0      -24.799823   -0.619227   -0.354353
      2          6           0      -26.201316    2.115527    1.268696
      3          6           0      -24.106987    1.333592   -3.010664
      4          6           0      -24.173210   -3.388998   -2.191433
      5          6           0      -26.288474   -2.724419    2.075839
      6          7           0      -25.072082    1.465185   -0.686789
      7          6           0      -25.515463    2.487397    0.123779
      8          6           0      -25.450811    3.845219   -0.628305
      9          6           0      -25.304663    3.366950   -2.105828
     10          6           0      -24.681559    1.989467   -1.933690
     11          6           0      -26.654260    3.266077   -2.900189
     12          6           0      -24.372581    4.709134    0.051156
     13          6           0      -24.752955    6.129762    0.228599
     14          1           0      -23.987406    6.851137    1.243325
     15          7           0      -24.015382   -0.928323   -2.235660
     16          6           0      -23.742073    0.032981   -3.155273
     17          6           0      -22.915363   -0.544253   -4.185238
     18          6           0      -22.932019   -1.963983   -3.935795
     19          6           0      -23.811082   -2.154753   -2.778416
     20          6           0      -22.334488    0.235236   -5.310138
     21          6           0      -22.344255   -3.160958   -4.752075
     22          8           0      -22.443799   -4.333556   -4.385206
     23          6           0      -21.492465   -2.930925   -5.969082
     24          7           0      -25.505200   -2.739738   -0.215281
     25          6           0      -24.948120   -3.714669   -1.087154
     26          6           0      -25.217085   -5.118889   -0.657473
     27          6           0      -25.690220   -4.823331    0.802912
     28          6           0      -25.775509   -3.304519    0.928888
     29          6           0      -26.254075   -5.877991   -1.552829
     30          6           0      -24.722754   -5.396927    1.901795
     31          6           0      -23.227589   -5.020363    1.743497
     32          7           0      -25.907143   -0.395971    1.387853
     33          6           0      -26.400505   -1.339213    2.302514
     34          6           0      -27.054612   -0.608012    3.322178
     35          6           0      -26.966725    0.730250    2.959460
     36          6           0      -26.281817    0.793767    1.790961
     37          6           0      -27.658431   -1.193180    4.558962
     38          6           0      -27.386878    2.002662    3.319374
     39          8           0      -28.070243    2.363531    4.294891
     40          6           0      -26.919218    3.046413    2.260744
     41          6           0      -26.013189    4.014592    3.083731
     42          8           0      -24.903466    3.728438    3.567389
     43          8           0      -26.667807    5.237768    3.180155
     44          6           0      -26.127574    6.259898    4.131970
     45          1           0      -24.022473    2.042607   -3.836959
     46          1           0      -23.924929   -4.384338   -2.567643
     47          1           0      -26.582457   -3.303244    2.953964
     48          1           0      -26.365571    4.413260   -0.462433
     49          1           0      -24.577790    3.999381   -2.614660
     50          1           0      -27.546863    3.610963   -2.377474
     51          1           0      -26.903442    2.224630   -3.099601
     52          1           0      -26.582745    3.891895   -3.789525
     53          1           0      -23.537542    4.734383   -0.647570
     54          1           0      -24.118073    4.233994    0.998944
     55          1           0      -25.785396    6.114605    0.578180
     56          1           0      -24.744896    6.613863   -0.747770
     57          1           0      -22.307900    1.301200   -5.084857
     58          1           0      -22.814741   -0.091622   -6.233043
     59          1           0      -21.283991   -0.031846   -5.425655
     60          1           0      -21.601988   -3.846109   -6.551373
     61          1           0      -20.441879   -2.832972   -5.694667
     62          1           0      -21.852461   -2.094675   -6.569211
     63          1           0      -24.324468   -5.743788   -0.604533
     64          1           0      -26.684950   -5.248585    0.940074
     65          1           0      -26.854069   -5.146794   -2.095219
     66          1           0      -26.960360   -6.531064   -1.039988
     67          1           0      -25.835418   -6.539742   -2.311606
     68          1           0      -24.901450   -6.472152    1.920556
     69          1           0      -25.153093   -5.025068    2.831589
     70          1           0      -22.837747   -4.477719    2.604927
     71          1           0      -23.151927   -4.420619    0.836052
     72          1           0      -22.585522   -5.891930    1.619698
     73          1           0      -28.697409   -0.863748    4.563440
     74          1           0      -27.079651   -0.835984    5.410727
     75          1           0      -27.706565   -2.281820    4.587240
     76          1           0      -27.795616    3.593047    1.913594
     77          1           0      -26.164865    5.800706    5.119563
     78          1           0      -26.643394    7.218090    4.193651
     79          1           0      -25.128023    6.321848    3.701576
     80         12           0       24.665698   -0.587203    0.442680
     81          6           0       25.187811    2.056274   -1.841901
     82          6           0       24.372767    1.573654    2.916409
     83          6           0       25.082113   -3.203247    2.600397
     84          6           0       26.044952   -2.799869   -2.179717
     85          7           0       24.834130    1.583043    0.487934
     86          6           0       24.802990    2.437520   -0.555228
     87          6           0       24.461301    3.849778   -0.041078
     88          6           0       24.185848    3.692841    1.420031
     89          6           0       24.515576    2.190552    1.673137
     90          6           0       24.909402    4.787860    2.305855
     91          6           0       23.367463    4.675386   -0.797550
     92          6           0       22.368336    5.656190   -0.046698
     93          1           0       22.111016    7.043694   -0.652531
     94          7           0       24.468802   -0.790899    2.472653
     95          6           0       24.341932    0.265724    3.345873
     96          6           0       24.185104   -0.276543    4.665511
     97          6           0       24.426032   -1.705566    4.647346
     98          6           0       24.724486   -1.945088    3.218125
     99          6           0       23.984410    0.664925    5.783144
    100          6           0       24.333541   -2.762164    5.775833
    101          8           0       24.616852   -3.894071    5.558987
    102          6           0       23.656114   -2.432186    7.065934
    103          7           0       25.516914   -2.694070    0.211932
    104          6           0       25.411314   -3.528013    1.270800
    105          6           0       25.863092   -4.981812    0.920305
    106          6           0       26.137520   -4.886028   -0.611694
    107          6           0       25.913112   -3.383994   -0.915572
    108          6           0       27.056031   -5.495071    1.682077
    109          6           0       25.284511   -5.784582   -1.573966
    110          6           0       23.885400   -5.381874   -1.897065
    111          7           0       25.458034   -0.529475   -1.595927
    112          6           0       25.894004   -1.478067   -2.476031
    113          6           0       26.119189   -0.867210   -3.763357
    114          6           0       25.868334    0.520932   -3.602633
    115          6           0       25.513249    0.676589   -2.247308
    116          6           0       26.694584   -1.496281   -4.982932
    117          6           0       25.874687    1.808554   -4.236188
    118          8           0       26.099711    2.182252   -5.381607
    119          6           0       25.386515    2.858764   -3.140238
    120          6           0       26.293291    4.073488   -3.036708
    121          8           0       27.436826    4.027717   -2.662846
    122          8           0       25.579267    5.206805   -3.391998
    123          6           0       26.382020    6.429820   -3.357637
    124          1           0       24.064863    2.203839    3.753840
    125          1           0       25.143635   -3.998650    3.345694
    126          1           0       26.351298   -3.467779   -2.987376
    127          1           0       25.411928    4.331240   -0.270481
    128          1           0       23.126984    3.900781    1.576318
    129          1           0       25.363472    5.535942    1.656218
    130          1           0       25.564262    4.265899    3.003522
    131          1           0       24.187529    5.388614    2.859424
    132          1           0       22.738521    3.952049   -1.317088
    133          1           0       23.795378    5.276362   -1.600359
    134          1           0       22.794504    5.759853    0.951368
    135          1           0       21.405306    5.158851    0.069370
    136          1           0       24.524182    0.234798    6.626489
    137          1           0       22.922642    0.648225    6.026187
    138          1           0       24.263925    1.716102    5.710501
    139          1           0       24.486833   -2.085690    7.679317
    140          1           0       23.096877   -3.303963    7.406952
    141          1           0       22.979893   -1.577851    7.028198
    142          1           0       25.039379   -5.692024    0.995137
    143          1           0       27.153733   -5.006936   -0.985606
    144          1           0       27.310476   -4.838077    2.514787
    145          1           0       27.952921   -5.538751    1.063627
    146          1           0       26.766108   -6.479906    2.047494
    147          1           0       25.230074   -6.797824   -1.175727
    148          1           0       25.878162   -5.960144   -2.471390
    149          1           0       23.499826   -4.730224   -1.112745
    150          1           0       23.088322   -6.122097   -1.970111
    151          1           0       23.947020   -4.929457   -2.887333
    152          1           0       27.695393   -1.908395   -4.857176
    153          1           0       26.952662   -0.664563   -5.638954
    154          1           0       26.009004   -2.217019   -5.429455
    155          1           0       24.384780    3.159330   -3.447962
    156          1           0       25.804186    6.789017   -2.506622
    157          1           0       26.131681    6.918301   -4.299051
    158          1           0       27.442327    6.243725   -3.185351
 ---------------------------------------------------------------------

 SCF Done:  E(RPBE1PBE) =  -4067.36789269     A.U. after   16 cycles

 Excitation energies and oscillator strengths:

 Excited State   1:      Singlet-A      1.8237 eV  679.85 nm  f=0.3572  <S**2>=0.000
     309 -> 315        0.15445
     311 -> 313        0.69680
     311 <- 313       -0.11765
 This state for optimization and/or second-order correction.
 Total Energy, E(TD-HF/TD-DFT) =  -4067.30087312
 Copying the excited state density for this state as the 1-particle RhoCI density.

 Excited State   2:      Singlet-A      1.8611 eV  666.19 nm  f=0.3741  <S**2>=0.000
     310 -> 316        0.17933
     312 -> 314        0.69126
     312 <- 314       -0.10764

 Excited State   3:      Singlet-A      1.9031 eV  651.48 nm  f=0.0000  <S**2>=0.000
     312 -> 313        0.70711

 Excited State   4:      Singlet-A      2.0411 eV  607.43 nm  f=0.0000  <S**2>=0.000
     311 -> 314        0.70711

 Excited State   5:      Singlet-A      2.1921 eV  565.59 nm  f=0.1038  <S**2>=0.000
     310 -> 314        0.65385
     312 -> 316       -0.25419

 The electronic state is 1-A.
 Alpha  occ. eigenvalues --  -46.93399 -46.91729 -19.25465 -19.25420 -19.20269
 Alpha  occ. eigenvalues --  -19.20243 -19.19698 -19.19008 -19.18918 -19.17878
 Alpha  occ. eigenvalues --  -14.41760 -14.41565 -14.41254 -14.40942 -14.39141
 Alpha  occ. eigenvalues --  -14.39043 -14.38522 -14.38173 -10.37086 -10.36147
 Alpha  occ. eigenvalues --  -10.32779 -10.32483 -10.31984 -10.30749 -10.29292
 Alpha  occ. eigenvalues --  -10.29188 -10.28886 -10.28679 -10.28556 -10.28529
 Alpha  occ. eigenvalues --  -10.28410 -10.28386 -10.28202 -10.28148 -10.28022
 Alpha  occ. eigenvalues --  -10.27879 -10.27158 -10.27035 -10.26971 -10.26961
 Alpha  occ. eigenvalues --  -10.26799 -10.26364 -10.26269 -10.26154 -10.26077
 Alpha  occ. eigenvalues --  -10.26026 -10.25951 -10.25827 -10.25786 -10.25732
 Alpha  occ. eigenvalues --  -10.25595 -10.25528 -10.25503 -10.25459 -10.25411
 Alpha  occ. eigenvalues --  -10.25345 -10.25303 -10.25243 -10.25086 -10.25015
 Alpha  occ. eigenvalues --  -10.25002 -10.24861 -10.24496 -10.24419 -10.24408
 Alpha  occ. eigenvalues --  -10.24343 -10.24290 -10.24205 -10.24037 -10.24012
 Alpha  occ. eigenvalues --  -10.23984 -10.23919 -10.23840 -10.23793 -10.23783
 Alpha  occ. eigenvalues --  -10.23608 -10.23373 -10.23315 -10.23252 -10.23113
 Alpha  occ. eigenvalues --  -10.22996 -10.22860 -10.22686 -10.22570 -10.22380
 Alpha  occ. eigenvalues --  -10.21405  -3.15293  -3.13903  -1.88103  -1.87674
 Alpha  occ. eigenvalues --   -1.87504  -1.86723  -1.86281  -1.86128  -1.11091
 Alpha  occ. eigenvalues --   -1.09161  -1.07592  -1.04247  -1.04007  -1.03408
 Alpha  occ. eigenvalues --   -1.02633  -1.01459  -0.99460  -0.98834  -0.98613
 Alpha  occ. eigenvalues --   -0.98180  -0.97790  -0.97134  -0.96869  -0.96485
 Alpha  occ. eigenvalues --   -0.86903  -0.85992  -0.83562  -0.83477  -0.83326
 Alpha  occ. eigenvalues --   -0.83156  -0.82909  -0.82556  -0.82129  -0.81700
 Alpha  occ. eigenvalues --   -0.81450  -0.81427  -0.80860  -0.80459  -0.78901
 Alpha  occ. eigenvalues --   -0.78275  -0.77961  -0.77813  -0.76670  -0.76478
 Alpha  occ. eigenvalues --   -0.76246  -0.75813  -0.75268  -0.75172  -0.74772
 Alpha  occ. eigenvalues --   -0.74737  -0.72591  -0.72568  -0.71448  -0.71408
 Alpha  occ. eigenvalues --   -0.71382  -0.71230  -0.70347  -0.70209  -0.69840
 Alpha  occ. eigenvalues --   -0.69031  -0.67692  -0.66809  -0.66487  -0.65881
 Alpha  occ. eigenvalues --   -0.64149  -0.64108  -0.63649  -0.63203  -0.62710
 Alpha  occ. eigenvalues --   -0.61994  -0.61333  -0.60954  -0.59868  -0.59494
 Alpha  occ. eigenvalues --   -0.59095  -0.59040  -0.58783  -0.58650  -0.58574
 Alpha  occ. eigenvalues --   -0.58520  -0.56280  -0.56172  -0.54538  -0.54471
 Alpha  occ. eigenvalues --   -0.54324  -0.54100  -0.53777  -0.53393  -0.53121
 Alpha  occ. eigenvalues --   -0.52944  -0.52563  -0.52184  -0.51950  -0.51367
 Alpha  occ. eigenvalues --   -0.50620  -0.50575  -0.50428  -0.50156  -0.49922
 Alpha  occ. eigenvalues --   -0.49890  -0.49615  -0.49473  -0.49318  -0.49180
 Alpha  occ. eigenvalues --   -0.48638  -0.48168  -0.48077  -0.47754  -0.47662
 Alpha  occ. eigenvalues --   -0.47565  -0.47444  -0.47423  -0.47032  -0.46964
 Alpha  occ. eigenvalues --   -0.46503  -0.46385  -0.46128  -0.46042  -0.45735
 Alpha  occ. eigenvalues --   -0.45504  -0.45377  -0.45181  -0.45073  -0.44956
 Alpha  occ. eigenvalues --   -0.44855  -0.44660  -0.44150  -0.44147  -0.44049
 Alpha  occ. eigenvalues --   -0.43876  -0.43846  -0.43640  -0.43606  -0.43393
 Alpha  occ. eigenvalues --   -0.43382  -0.43243  -0.43196  -0.42936  -0.42752
 Alpha  occ. eigenvalues --   -0.42669  -0.42350  -0.42326  -0.42075  -0.41914
 Alpha  occ. eigenvalues --   -0.41853  -0.41687  -0.41479  -0.41340  -0.41058
 Alpha  occ. eigenvalues --   -0.40780  -0.40715  -0.40551  -0.40509  -0.40291
 Alpha  occ. eigenvalues --   -0.40280  -0.40186  -0.39391  -0.39370  -0.39331
 Alpha  occ. eigenvalues --   -0.39176  -0.39058  -0.38958  -0.38875  -0.38538
 Alpha  occ. eigenvalues --   -0.38514  -0.38399  -0.38325  -0.38236  -0.38113
 Alpha  occ. eigenvalues --   -0.37984  -0.37860  -0.37827  -0.37703  -0.37602
 Alpha  occ. eigenvalues --   -0.37489  -0.37212  -0.37124  -0.36911  -0.36796
 Alpha  occ. eigenvalues --   -0.36735  -0.36556  -0.36434  -0.36395  -0.35984
 Alpha  occ. eigenvalues --   -0.35776  -0.35766  -0.35501  -0.35499  -0.35119
 Alpha  occ. eigenvalues --   -0.35011  -0.34892  -0.34095  -0.34015  -0.33909
 Alpha  occ. eigenvalues --   -0.33219  -0.33066  -0.33040  -0.32853  -0.32410
 Alpha  occ. eigenvalues --   -0.32390  -0.31980  -0.31929  -0.31640  -0.31012
 Alpha  occ. eigenvalues --   -0.30889  -0.30791  -0.29546  -0.29314  -0.29120
 Alpha  occ. eigenvalues --   -0.28818  -0.28726  -0.28684  -0.27006  -0.26542
 Alpha  occ. eigenvalues --   -0.26460  -0.25668  -0.25605  -0.25400  -0.25330
 Alpha  occ. eigenvalues --   -0.25042  -0.25030  -0.24812  -0.21178  -0.20770
 Alpha  occ. eigenvalues --   -0.18856  -0.18695
 Alpha virt. eigenvalues --   -0.11440  -0.11093  -0.05146  -0.05098  -0.03786
 Alpha virt. eigenvalues --   -0.03680  -0.02033  -0.01959  -0.01662  -0.00525
 Alpha virt. eigenvalues --    0.00313   0.00366   0.00715   0.00957   0.01709

 Mulliken charges:
               1
     1  Mg  12.002548
     2  C    5.975450
     3  C    6.003483
     4  C    6.032496
     5  C    6.016509
     6  N    6.978615
     7  C    6.031872
     8  C    5.997007
     9  C    6.006764
    10  C    5.976683
    11  C    6.003214
    12  C    5.994126
    13  C    6.000545
    14  H    0.998664
    15  N    7.007159
    16  C    5.964661
    17  C    5.980400
    18  C    5.987127
    19  C    5.961868
    20  C    6.003189
    21  C    5.987725
    22  O    7.970837
    23  C    6.004960
    24  N    7.016551
    25  C    5.958265
    26  C    6.014723
    27  C    5.992508
    28  C    6.017849
    29  C    5.999549
    30  C    5.992293
    31  C    5.994593
    32  N    6.998061
    33  C    6.027398
    34  C    6.030221
    35  C    6.000251
    36  C    6.027668
    37  C    5.996988
    38  C    6.014812
    39  O    8.028559
    40  C    6.003864
    41  C    6.003174
    42  O    8.003547
    43  O    8.001568
    44  C    5.999464
    45  H    0.985933
    46  H    0.995859
    47  H    1.015920
    48  H    0.998513
    49  H    0.998630
    50  H    0.984167
    51  H    1.000543
    52  H    0.996663
    53  H    1.011851
    54  H    0.994350
    55  H    0.996270
    56  H    1.005420
    57  H    0.985644
    58  H    0.981519
    59  H    0.982651
    60  H    0.987040
    61  H    0.989354
    62  H    0.996025
    63  H    0.999179
    64  H    1.002902
    65  H    1.000499
    66  H    0.990795
    67  H    1.003450
    68  H    1.009742
    69  H    0.993561
    70  H    0.997380
    71  H    1.013324
    72  H    1.006753
    73  H    1.017472
    74  H    1.018796
    75  H    1.016181
    76  H    1.008086
    77  H    0.999078
    78  H    1.004297
    79  H    1.004341
    80  Mg  12.000014
    81  C    5.999960
    82  C    6.000026
    83  C    6.000021
    84  C    6.000028
    85  N    6.999995
    86  C    6.000123
    87  C    5.999978
    88  C    6.000051
    89  C    5.999837
    90  C    6.000005
    91  C    5.999987
    92  C    6.000007
    93  H    1.000001
    94  N    6.999985
    95  C    5.999869
    96  C    5.999903
    97  C    5.999928
    98  C    5.999917
    99  C    6.000047
   100  C    5.999914
   101  O    7.999878
   102  C    6.000019
   103  N    6.999928
   104  C    5.999948
   105  C    6.000058
   106  C    5.999974
   107  C    6.000118
   108  C    5.999998
   109  C    5.999983
   110  C    5.999954
   111  N    7.000028
   112  C    6.000107
   113  C    6.000188
   114  C    5.999973
   115  C    6.000106
   116  C    5.999972
   117  C    6.000111
   118  O    8.000157
   119  C    5.999977
   120  C    6.000012
   121  O    8.000002
   122  O    8.000020
   123  C    5.999993
   124  H    0.999944
   125  H    0.999966
   126  H    1.000061
   127  H    0.999976
   128  H    0.999990
   129  H    0.999939
   130  H    0.999998
   131  H    0.999979
   132  H    1.000012
   133  H    0.999983
   134  H    1.000015
   135  H    1.000030
   136  H    0.999890
   137  H    0.999896
   138  H    0.999893
   139  H    0.999933
   140  H    0.999924
   141  H    0.999983
   142  H    0.999999
   143  H    0.999982
   144  H    1.000022
   145  H    0.999952
   146  H    0.999989
   147  H    1.000054
   148  H    0.999996
   149  H    1.000045
   150  H    1.000065
   151  H    0.999987
   152  H    1.000100
   153  H    1.000069
   154  H    1.000128
   155  H    1.000057
   156  H    1.000024
   157  H    1.000024
   158  H    0.999996
 Sum of Mulliken charges = 624.00000

 Dipole moment (field-independent basis, Debye):
    X=             -4.5158    Y=              0.5968    Z=              9.0856  Tot=             10.1635
 Quadrupole moment (field-independent basis, Debye-Ang):
   XX=            226.0075   YY=              1.2115   ZZ=             -8.5366
   XY=            -11.1399   XZ=           -227.7498   YZ=             -6.0302

 Normal termination of Gaussian 16 at Thu Oct 14 14:34:39 2021.
