 Gaussian 16, Revision A.03,
 Gaussian 16:  ES64L-G16RevA.03 25-Dec-2016

 --------------------------------------------------------
 #p PBE1PBE/Def2SVP td=(nstates=5) density=(transition=1)
 --------------------------------------------------------

 --------------------------------
 TDDFT excited states in gaussian
 --------------------------------
 Symbolic Z-matrix:
 Charge =  0 Multiplicity = 1

                         Standard orientation:
 ---------------------------------------------------------------------
 Center     Atomic      Atomic             Coordinates (Angstroms)
 Number     Number       Type             X           Y           Z
 ---------------------------------------------------------------------
      1         12           0       27.249517    0.614398   -0.002911
      2          6           0       23.833710    1.172460   -0.838354
      3          6           0       26.595443    1.588065    3.215304
      4          6           0       30.228954   -0.914533    1.013150
      5          6           0       27.695734   -0.914406   -3.135341
      6          7           0       25.234889    1.073136    1.084614
      7          6           0       24.079050    1.467104    0.525533
      8          6           0       23.310030    2.325392    1.513214
      9          6           0       24.162643    2.414833    2.868938
     10          6           0       25.501449    1.747326    2.268438
     11          6           0       24.326669    3.901664    3.256504
     12          6           0       21.917361    1.763438    1.749364
     13          6           0       21.785950    0.222841    1.804887
     14          1           0       21.535066   -0.409364    3.201187
     15          7           0       28.341900    0.438435    1.875808
     16          6           0       27.836024    0.916415    3.065058
     17          6           0       28.891528    0.777583    4.018794
     18          6           0       29.955556   -0.034571    3.469353
     19          6           0       29.584881   -0.182994    2.039196
     20          6           0       28.744851    1.198533    5.462745
     21          6           0       31.105062   -0.709860    4.219030
     22          8           0       31.178528   -0.619276    5.429364
     23          6           0       32.125005   -1.479698    3.572153
     24          7           0       28.704186   -0.807385   -0.885766
     25          6           0       29.859997   -1.127288   -0.322770
     26          6           0       30.721527   -2.033396   -1.187211
     27          6           0       29.703309   -2.312229   -2.375105
     28          6           0       28.669148   -1.261939   -2.185119
     29          6           0       32.093837   -1.355057   -1.673920
     30          6           0       29.188578   -3.824171   -2.327202
     31          6           0       29.587241   -4.800122   -3.397763
     32          7           0       26.170592    0.422231   -1.687667
     33          6           0       26.527859   -0.116731   -2.940414
     34          6           0       25.453595    0.103214   -3.926629
     35          6           0       24.437441    0.616259   -3.120667
     36          6           0       24.826115    0.695532   -1.737758
     37          6           0       25.475363   -0.072031   -5.484440
     38          6           0       23.045996    1.074618   -3.185214
     39          8           0       22.233596    1.194620   -4.117153
     40          6           0       22.596943    1.467885   -1.739219
     41          6           0       21.507293    0.472515   -1.535923
     42          8           0       21.636970   -0.723305   -1.595848
     43          8           0       20.339483    1.095332   -1.405389
     44          6           0       19.103883    0.291549   -1.103469
     45          1           0       26.483631    2.164631    4.135753
     46          1           0       31.202726   -1.382606    1.170459
     47          1           0       27.896463   -1.510719   -4.028445
     48          1           0       23.266197    3.240867    0.923180
     49          1           0       23.721344    1.834924    3.679968
     50          1           0       23.882790    4.045773    4.241341
     51          1           0       23.818612    4.601437    2.592454
     52          1           0       25.400689    4.074170    3.320552
     53          1           0       21.247331    2.108797    0.961987
     54          1           0       21.530218    2.094005    2.713622
     55          1           0       22.663275   -0.370658    1.548043
     56          1           0       20.958910   -0.001541    1.131174
     57          1           0       27.743292    1.572561    5.676606
     58          1           0       29.553407    1.895565    5.685593
     59          1           0       28.998706    0.335611    6.077398
     60          1           0       31.782442   -2.388938    3.077687
     61          1           0       32.867386   -1.784423    4.309547
     62          1           0       32.501757   -0.789130    2.816874
     63          1           0       30.919104   -3.010541   -0.747199
     64          1           0       30.373212   -2.282522   -3.234623
     65          1           0       32.188665   -0.365344   -1.226225
     66          1           0       32.021311   -1.223915   -2.753737
     67          1           0       33.001203   -1.937948   -1.508370
     68          1           0       28.105855   -3.876128   -2.442291
     69          1           0       29.452560   -4.296721   -1.382093
     70          1           0       28.813910   -4.975455   -4.145681
     71          1           0       29.729139   -5.689869   -2.783432
     72          1           0       30.588623   -4.653166   -3.802748
     73          1           0       25.418120   -1.139236   -5.696927
     74          1           0       26.378931    0.417612   -5.848011
     75          1           0       24.565782    0.369346   -5.891405
     76          1           0       22.298490    2.515466   -1.793546
     77          1           0       18.635791   -0.116921   -1.999383
     78          1           0       18.357550    0.895956   -0.586325
     79          1           0       19.445531   -0.497336   -0.433391
     80         12           0      -26.099913   -0.826808    0.078538
     81          6           0      -27.146797    2.624061   -0.243821
     82          6           0      -23.982005   -0.183284   -2.274699
     83          6           0      -25.486609   -4.054951    0.334448
     84          6           0      -29.046818   -1.526700    2.087405
     85          7           0      -25.552139    1.102702   -1.041605
     86          6           0      -26.073474    2.379780   -1.052998
     87          6           0      -25.367608    3.216999   -2.057832
     88          6           0      -24.719840    2.175761   -3.006433
     89          6           0      -24.778554    0.930218   -2.090917
     90          6           0      -25.501690    1.932947   -4.316031
     91          6           0      -24.244066    4.041509   -1.358715
     92          6           0      -24.116716    5.555991   -1.782664
     93          1           0      -23.366643    6.580249   -0.841223
     94          7           0      -24.786976   -1.978039   -0.881075
     95          6           0      -23.908852   -1.539900   -1.743410
     96          6           0      -23.031829   -2.640749   -2.095039
     97          6           0      -23.423407   -3.690026   -1.230534
     98          6           0      -24.625873   -3.259670   -0.570137
     99          6           0      -21.861051   -2.438436   -3.073995
    100          6           0      -22.748477   -5.025654   -1.087105
    101          8           0      -23.193418   -5.846974   -0.342239
    102          6           0      -21.462989   -5.273971   -1.806648
    103          7           0      -27.353948   -2.617388    0.888438
    104          6           0      -26.695180   -3.772528    0.954093
    105          6           0      -27.347087   -4.735107    1.874179
    106          6           0      -28.625659   -3.932611    2.273754
    107          6           0      -28.371136   -2.556593    1.717413
    108          6           0      -27.588522   -6.199010    1.357511
    109          6           0      -28.857889   -3.971621    3.834665
    110          6           0      -29.993373   -4.854957    4.422740
    111          7           0      -27.714313    0.195638    0.782462
    112          6           0      -28.788854   -0.144474    1.634363
    113          6           0      -29.604020    1.058750    1.900470
    114          6           0      -28.984513    2.096818    1.217491
    115          6           0      -27.904502    1.570191    0.529494
    116          6           0      -30.955394    1.071954    2.655254
    117          6           0      -29.110171    3.566600    0.954966
    118          8           0      -29.865112    4.425762    1.344926
    119          6           0      -28.007248    3.940754   -0.156928
    120          6           0      -27.329641    5.144511    0.158077
    121          8           0      -26.269252    5.154008    0.798801
    122          8           0      -27.933891    6.329577   -0.249967
    123          6           0      -27.173504    7.610726   -0.123747
    124          1           0      -23.195407   -0.090831   -3.025649
    125          1           0      -25.246142   -5.111308    0.470644
    126          1           0      -29.930957   -1.718359    2.697341
    127          1           0      -26.092639    3.773080   -2.652718
    128          1           0      -23.702108    2.384564   -3.335591
    129          1           0      -24.885333    2.181646   -5.180460
    130          1           0      -26.379307    2.577941   -4.284279
    131          1           0      -25.881756    0.918229   -4.437638
    132          1           0      -23.319486    3.530829   -1.628519
    133          1           0      -24.409572    3.918810   -0.288555
    134          1           0      -25.120822    5.923233   -1.993069
    135          1           0      -23.568152    5.483316   -2.722512
    136          1           0      -20.927779   -2.571333   -2.525243
    137          1           0      -21.855577   -1.498101   -3.624144
    138          1           0      -21.818347   -3.265035   -3.782650
    139          1           0      -20.668090   -4.602033   -1.484081
    140          1           0      -21.453956   -5.077351   -2.878673
    141          1           0      -21.112832   -6.276508   -1.559594
    142          1           0      -26.715359   -4.822533    2.758144
    143          1           0      -29.476613   -4.305439    1.703274
    144          1           0      -27.097450   -6.263204    0.387074
    145          1           0      -28.616532   -6.562859    1.345115
    146          1           0      -27.112338   -6.889907    2.053425
    147          1           0      -29.091582   -2.964510    4.181016
    148          1           0      -27.859332   -4.086409    4.256319
    149          1           0      -29.618439   -5.419189    5.276498
    150          1           0      -30.372987   -5.521346    3.648008
    151          1           0      -30.811891   -4.234629    4.789839
    152          1           0      -30.915783    0.294085    3.417266
    153          1           0      -31.747499    0.763720    1.972464
    154          1           0      -31.164357    2.042485    3.105856
    155          1           0      -28.522170    4.059194   -1.109852
    156          1           0      -26.278484    7.598888   -0.747362
    157          1           0      -27.075873    7.917232    0.917014
    158          1           0      -27.744295    8.361628   -0.669902
 ---------------------------------------------------------------------

 SCF Done:  E(RPBE1PBE) =  -4067.30690993     A.U. after   16 cycles

 Excitation energies and oscillator strengths:

 Excited State   1:      Singlet-A      1.8532 eV  669.02 nm  f=0.3447  <S**2>=0.000
     309 -> 315        0.19395
     312 -> 314        0.68704
 This state for optimization and/or second-order correction.
 Total Energy, E(TD-HF/TD-DFT) =  -4067.23880482
 Copying the excited state density for this state as the 1-particle RhoCI density.

 Excited State   2:      Singlet-A      1.9925 eV  622.26 nm  f=0.0000  <S**2>=0.000
     312 -> 313        0.70711

 Excited State   3:      Singlet-A      2.0664 eV  600.01 nm  f=0.0000  <S**2>=0.000
     311 -> 314        0.70711

 Excited State   4:      Singlet-A      2.2158 eV  559.54 nm  f=0.0728  <S**2>=0.000
     309 -> 314        0.63258
     312 -> 315       -0.30037

 Excited State   5:      Singlet-A      2.4486 eV  506.34 nm  f=0.0000  <S**2>=0.000
     310 -> 314        0.70711

 The electronic state is 1-A.
 Alpha  occ. eigenvalues --  -46.93600 -46.92837 -19.25723 -19.24666 -19.20075
 Alpha  occ. eigenvalues --  -19.19233 -19.19150 -19.19094 -19.18797 -19.18273
 Alpha  occ. eigenvalues --  -14.41943 -14.41477 -14.41191 -14.39861 -14.39739
 Alpha  occ. eigenvalues --  -14.39687 -14.39234 -14.39211 -10.35753 -10.35521
 Alpha  occ. eigenvalues --  -10.33334 -10.32203 -10.32024 -10.31424 -10.29788
 Alpha  occ. eigenvalues --  -10.29688 -10.29159 -10.28892 -10.28815 -10.28568
 Alpha  occ. eigenvalues --  -10.28522 -10.28509 -10.28509 -10.28372 -10.28007
 Alpha  occ. eigenvalues --  -10.27941 -10.27927 -10.27728 -10.27521 -10.27489
 Alpha  occ. eigenvalues --  -10.27466 -10.26731 -10.26659 -10.26644 -10.26590
 Alpha  occ. eigenvalues --  -10.26556 -10.26478 -10.26052 -10.26033 -10.25989
 Alpha  occ. eigenvalues --  -10.25946 -10.25904 -10.25821 -10.25775 -10.25756
 Alpha  occ. eigenvalues --  -10.25699 -10.25676 -10.25572 -10.25412 -10.25339
 Alpha  occ. eigenvalues --  -10.25105 -10.24741 -10.24682 -10.24608 -10.24579
 Alpha  occ. eigenvalues --  -10.24524 -10.24457 -10.24436 -10.24330 -10.24184
 Alpha  occ. eigenvalues --  -10.24109 -10.23932 -10.23714 -10.23712 -10.23671
 Alpha  occ. eigenvalues --  -10.23660 -10.23576 -10.23475 -10.23413 -10.23261
 Alpha  occ. eigenvalues --  -10.23176 -10.23140 -10.23015 -10.22987 -10.22939
 Alpha  occ. eigenvalues --  -10.22483  -3.15494  -3.14940  -1.88295  -1.87898
 Alpha  occ. eigenvalues --   -1.87766  -1.87693  -1.87320  -1.87165  -1.11845
 Alpha  occ. eigenvalues --   -1.08961  -1.06705  -1.05817  -1.04945  -1.03591
 Alpha  occ. eigenvalues --   -1.02536  -1.00904  -1.00498  -0.99618  -0.99481
 Alpha  occ. eigenvalues --   -0.99232  -0.98293  -0.97103  -0.96241  -0.95930
 Alpha  occ. eigenvalues --   -0.86323  -0.85710  -0.83546  -0.83268  -0.83247
 Alpha  occ. eigenvalues --   -0.83068  -0.82578  -0.82299  -0.81974  -0.81784
 Alpha  occ. eigenvalues --   -0.81421  -0.80498  -0.79733  -0.79628  -0.78929
 Alpha  occ. eigenvalues --   -0.78662  -0.78352  -0.77394  -0.77099  -0.76851
 Alpha  occ. eigenvalues --   -0.76330  -0.76058  -0.75449  -0.75322  -0.74722
 Alpha  occ. eigenvalues --   -0.74620  -0.72939  -0.72258  -0.71656  -0.71458
 Alpha  occ. eigenvalues --   -0.71076  -0.70712  -0.70577  -0.70516  -0.69744
 Alpha  occ. eigenvalues --   -0.69319  -0.67370  -0.67322  -0.66201  -0.65539
 Alpha  occ. eigenvalues --   -0.63521  -0.63246  -0.63220  -0.62947  -0.62554
 Alpha  occ. eigenvalues --   -0.62406  -0.61692  -0.61156  -0.60487  -0.60077
 Alpha  occ. eigenvalues --   -0.60028  -0.59639  -0.59607  -0.59356  -0.58829
 Alpha  occ. eigenvalues --   -0.58588  -0.57026  -0.55890  -0.55646  -0.54866
 Alpha  occ. eigenvalues --   -0.54692  -0.53871  -0.53664  -0.53612  -0.53099
 Alpha  occ. eigenvalues --   -0.52569  -0.52418  -0.52205  -0.51854  -0.51801
 Alpha  occ. eigenvalues --   -0.51061  -0.50766  -0.50379  -0.50334  -0.50126
 Alpha  occ. eigenvalues --   -0.49616  -0.49500  -0.49128  -0.48568  -0.48478
 Alpha  occ. eigenvalues --   -0.48445  -0.48101  -0.47944  -0.47709  -0.47369
 Alpha  occ. eigenvalues --   -0.47223  -0.47111  -0.47008  -0.46945  -0.46682
 Alpha  occ. eigenvalues --   -0.46662  -0.46431  -0.46360  -0.46099  -0.45977
 Alpha  occ. eigenvalues --   -0.45233  -0.44963  -0.44927  -0.44825  -0.44633
 Alpha  occ. eigenvalues --   -0.44454  -0.44380  -0.44299  -0.44295  -0.44054
 Alpha  occ. eigenvalues --   -0.44039  -0.43858  -0.43826  -0.43545  -0.43541
 Alpha  occ. eigenvalues --   -0.43389  -0.43140  -0.43004  -0.42938  -0.42496
 Alpha  occ. eigenvalues --   -0.42467  -0.42376  -0.42234  -0.42119  -0.41978
 Alpha  occ. eigenvalues --   -0.41655  -0.41628  -0.41348  -0.41140  -0.41053
 Alpha  occ. eigenvalues --   -0.40953  -0.40603  -0.40549  -0.40383  -0.40306
 Alpha  occ. eigenvalues --   -0.40236  -0.40106  -0.39944  -0.39833  -0.39679
 Alpha  occ. eigenvalues --   -0.39625  -0.39584  -0.39396  -0.39157  -0.39081
 Alpha  occ. eigenvalues --   -0.38802  -0.38780  -0.38591  -0.38368  -0.38268
 Alpha  occ. eigenvalues --   -0.38184  -0.38004  -0.37950  -0.37767  -0.37668
 Alpha  occ. eigenvalues --   -0.37322  -0.37275  -0.37160  -0.36899  -0.36739
 Alpha  occ. eigenvalues --   -0.36359  -0.36236  -0.36234  -0.36139  -0.35918
 Alpha  occ. eigenvalues --   -0.35736  -0.35433  -0.35304  -0.35112  -0.35027
 Alpha  occ. eigenvalues --   -0.34980  -0.34849  -0.34776  -0.34750  -0.33671
 Alpha  occ. eigenvalues --   -0.33298  -0.32949  -0.32662  -0.32427  -0.32118
 Alpha  occ. eigenvalues --   -0.32066  -0.31793  -0.31552  -0.31434  -0.31188
 Alpha  occ. eigenvalues --   -0.30731  -0.30697  -0.29297  -0.29148  -0.28853
 Alpha  occ. eigenvalues --   -0.28802  -0.28356  -0.27713  -0.27249  -0.27037
 Alpha  occ. eigenvalues --   -0.26580  -0.26143  -0.26039  -0.26025  -0.25552
 Alpha  occ. eigenvalues --   -0.25504  -0.25388  -0.24505  -0.21246  -0.20535
 Alpha  occ. eigenvalues --   -0.19127  -0.19006
 Alpha virt. eigenvalues --   -0.11435  -0.11288  -0.05949  -0.04033  -0.03987
 Alpha virt. eigenvalues --   -0.03328  -0.02087  -0.01808  -0.01687  -0.00481
 Alpha virt. eigenvalues --   -0.00060   0.00394   0.00942   0.01026   0.02199

 Mulliken charges:
               1
     1  Mg  12.005358
     2  C    6.011367
     3  C    5.976007
     4  C    5.987221
     5  C    6.018218
     6  N    7.006274
     7  C    5.972745
     8  C    6.001018
     9  C    5.986492
    10  C    6.040543
    11  C    5.999139
    12  C    6.002624
    13  C    6.007056
    14  H    0.987152
    15  N    6.992061
    16  C    6.040885
    17  C    6.018090
    18  C    6.010256
    19  C    6.034776
    20  C    5.997034
    21  C    6.011634
    22  O    8.017120
    23  C    5.996367
    24  N    7.003684
    25  C    6.026238
    26  C    5.987865
    27  C    6.014194
    28  C    5.963094
    29  C    5.997386
    30  C    6.000676
    31  C    6.001581
    32  N    7.003387
    33  C    5.960225
    34  C    5.973645
    35  C    5.998458
    36  C    5.970319
    37  C    5.995902
    38  C    5.983949
    39  O    7.967956
    40  C    6.000197
    41  C    5.993371
    42  O    7.997834
    43  O    7.998529
    44  C    6.001648
    45  H    1.006494
    46  H    1.009507
    47  H    0.991165
    48  H    1.005564
    49  H    1.005367
    50  H    1.004080
    51  H    1.010069
    52  H    0.995995
    53  H    1.004903
    54  H    0.992731
    55  H    1.000062
    56  H    1.003856
    57  H    1.017766
    58  H    1.017986
    59  H    1.015446
    60  H    1.010520
    61  H    1.011576
    62  H    1.006365
    63  H    1.001542
    64  H    0.995679
    65  H    0.996701
    66  H    1.011541
    67  H    1.001377
    68  H    1.003499
    69  H    0.987493
    70  H    1.002440
    71  H    0.995203
    72  H    0.995609
    73  H    0.984513
    74  H    0.986049
    75  H    0.990218
    76  H    0.990650
    77  H    0.998235
    78  H    0.994402
    79  H    0.995821
    80  Mg  11.999926
    81  C    6.000629
    82  C    5.999975
    83  C    5.999562
    84  C    6.000223
    85  N    7.000473
    86  C    5.999237
    87  C    6.000151
    88  C    5.999854
    89  C    6.000548
    90  C    5.999871
    91  C    6.000073
    92  C    6.000045
    93  H    0.999982
    94  N    6.999742
    95  C    6.000819
    96  C    6.000520
    97  C    6.000296
    98  C    6.000803
    99  C    5.999878
   100  C    6.000283
   101  O    8.000612
   102  C    5.999823
   103  N    6.999986
   104  C    6.000765
   105  C    5.999697
   106  C    6.000239
   107  C    5.999439
   108  C    6.000011
   109  C    6.000054
   110  C    5.999996
   111  N    6.999906
   112  C    5.999060
   113  C    5.999225
   114  C    6.000009
   115  C    5.999143
   116  C    6.000039
   117  C    5.999604
   118  O    7.999415
   119  C    5.999851
   120  C    5.999942
   121  O    7.999791
   122  O    7.999993
   123  C    6.000068
   124  H    1.000342
   125  H    1.000144
   126  H    0.999719
   127  H    1.000042
   128  H    1.000053
   129  H    1.000098
   130  H    1.000348
   131  H    0.999945
   132  H    0.999679
   133  H    1.000097
   134  H    1.000075
   135  H    0.999878
   136  H    1.000482
   137  H    1.000441
   138  H    1.000459
   139  H    1.000206
   140  H    1.000164
   141  H    1.000363
   142  H    1.000022
   143  H    0.999923
   144  H    0.999848
   145  H    1.000182
   146  H    1.000027
   147  H    1.000181
   148  H    0.999815
   149  H    0.999875
   150  H    0.999894
   151  H    1.000056
   152  H    0.999551
   153  H    0.999443
   154  H    0.999580
   155  H    0.999807
   156  H    0.999873
   157  H    0.999939
   158  H    0.999897
 Sum of Mulliken charges = 624.00000

 Dipole moment (field-independent basis, Debye):
    X=              5.5871    Y=              0.3516    Z=              8.1698  Tot=              9.9038
 Quadrupole moment (field-independent basis, Debye-Ang):
   XX=            279.8163   YY=              0.4659   ZZ=              1.9071
   XY=             17.8832   XZ=            228.5768   YZ=              3.3676

 Normal termination of Gaussian 16 at Wed Oct 13 23:58:57 2021.
