 Gaussian 16, Revision A.03,
 Gaussian 16:  ES64L-G16RevA.03 25-Dec-2016

 --------------------------------------------------------
 #p PBE1PBE/Def2SVP td=(nstates=5) density=(transition=1)
 --------------------------------------------------------

 --------------------------------
 TDDFT excited states in gaussian
 --------------------------------
 Symbolic Z-matrix:
 Charge =  0 Multiplicity = 1

                         Standard orientation:
 ---------------------------------------------------------------------
 Center     Atomic      Atomic             Coordinates (Angstroms)
 Number     Number       Type             X           Y           Z
 ---------------------------------------------------------------------
      1         12           0       16.984656    0.652558   -0.202484
      2          6           0       16.235318   -2.041070    1.909459
      3          6           0       13.857312    2.067077    0.666335
      4          6           0       17.522788    3.096863   -2.497102
      5          6           0       19.612361   -1.178338   -1.492450
      6          7           0       15.384575    0.132317    1.240085
      7          6           0       15.423086   -0.954286    2.118612
      8          6           0       14.382453   -0.720331    3.272308
      9          6           0       13.616042    0.514356    2.783948
     10          6           0       14.299878    0.921263    1.432191
     11          6           0       12.112847    0.177327    2.591466
     12          6           0       15.138942   -0.570098    4.586520
     13          6           0       14.429990   -0.972954    5.869206
     14          1           0       12.903089   -1.206223    5.818720
     15          7           0       15.890281    2.365554   -0.851663
     16          6           0       14.616537    2.751692   -0.392814
     17          6           0       14.161598    3.941822   -1.089967
     18          6           0       15.222516    4.346104   -1.992540
     19          6           0       16.263455    3.244167   -1.818760
     20          6           0       12.878565    4.708767   -0.745202
     21          6           0       15.339709    5.545083   -2.913927
     22          8           0       16.347547    5.709518   -3.588408
     23          6           0       14.317948    6.612507   -2.822435
     24          7           0       18.442435    0.923795   -1.734624
     25          6           0       18.497458    2.062844   -2.479573
     26          6           0       19.794388    2.069442   -3.330430
     27          6           0       20.520137    0.716045   -2.967719
     28          6           0       19.546477    0.127963   -1.913870
     29          6           0       19.453905    2.213173   -4.824595
     30          6           0       21.932922    0.877826   -2.346448
     31          6           0       22.985234    0.594367   -3.413971
     32          7           0       17.774620   -1.274028    0.002126
     33          6           0       18.786269   -1.934271   -0.611575
     34          6           0       18.717747   -3.350748   -0.177220
     35          6           0       17.834582   -3.421616    0.860060
     36          6           0       17.252952   -2.128521    0.894855
     37          6           0       19.677425   -4.395213   -0.722054
     38          6           0       17.245763   -4.259513    1.913231
     39          8           0       17.446828   -5.441511    2.164816
     40          6           0       16.278337   -3.354812    2.651727
     41          6           0       15.011097   -4.100218    2.711699
     42          8           0       14.144796   -4.277492    1.844616
     43          8           0       14.938349   -4.691117    3.956527
     44          6           0       13.792605   -5.537712    4.208874
     45          1           0       12.924854    2.511492    1.019920
     46          1           0       17.668501    3.973725   -3.131454
     47          1           0       20.403443   -1.721986   -2.013258
     48          1           0       13.800736   -1.640014    3.199143
     49          1           0       13.619738    1.214769    3.619062
     50          1           0       11.772660    0.169161    1.555804
     51          1           0       11.562361    1.048575    2.945291
     52          1           0       11.848443   -0.788182    3.022287
     53          1           0       15.466776    0.469878    4.586787
     54          1           0       16.078921   -1.115950    4.514431
     55          1           0       14.664060   -0.239612    6.639723
     56          1           0       14.961259   -1.891255    6.121818
     57          1           0       12.237545    4.198172   -0.026281
     58          1           0       12.289785    4.871026   -1.649025
     59          1           0       13.151515    5.713099   -0.423451
     60          1           0       14.389205    7.076825   -1.838537
     61          1           0       13.344381    6.253608   -3.156205
     62          1           0       14.537240    7.441449   -3.495460
     63          1           0       20.361229    2.958785   -3.055954
     64          1           0       20.474188    0.118262   -3.878957
     65          1           0       19.818539    1.427875   -5.486118
     66          1           0       20.017507    3.120519   -5.040743
     67          1           0       18.387537    2.225773   -5.048233
     68          1           0       22.138915    0.056274   -1.660126
     69          1           0       22.109563    1.858889   -1.905115
     70          1           0       23.684795    1.423584   -3.309669
     71          1           0       22.629915    0.716317   -4.436903
     72          1           0       23.503891   -0.360054   -3.319350
     73          1           0       20.246632   -4.092097   -1.601201
     74          1           0       19.181639   -5.334592   -0.963641
     75          1           0       20.482543   -4.525922    0.001855
     76          1           0       16.691908   -3.168026    3.642240
     77          1           0       13.719750   -6.246644    3.383729
     78          1           0       12.852861   -4.989539    4.279363
     79          1           0       14.124493   -6.219958    4.990756
     80         12           0      -16.731748    0.317313    0.633913
     81          6           0      -16.648556   -2.164781   -1.751159
     82          6           0      -13.367517   -0.081937    1.066161
     83          6           0      -16.673090    3.382834    1.863488
     84          6           0      -20.177174    0.621501    0.030596
     85          7           0      -15.158772   -0.688209   -0.622960
     86          6           0      -15.381674   -1.807420   -1.358959
     87          6           0      -14.115911   -2.529554   -1.715027
     88          6           0      -13.222817   -2.117792   -0.500169
     89          6           0      -13.988391   -0.934875    0.074023
     90          6           0      -12.964691   -3.288463    0.491248
     91          6           0      -13.491587   -2.014517   -3.107470
     92          6           0      -12.768313   -3.133936   -3.990800
     93          1           0      -11.326566   -2.726211   -4.167335
     94          7           0      -15.247538    1.397028    1.541978
     95          6           0      -13.918355    1.156194    1.570778
     96          6           0      -13.213083    2.239359    2.244227
     97          6           0      -14.171067    3.239103    2.510699
     98          6           0      -15.436973    2.683599    1.955024
     99          6           0      -11.683327    2.179227    2.473365
    100          6           0      -13.804733    4.606218    3.017338
    101          8           0      -12.658161    4.850043    3.289672
    102          6           0      -14.795090    5.775479    3.177395
    103          7           0      -18.240240    1.798999    1.050843
    104          6           0      -17.954365    2.929944    1.523125
    105          6           0      -19.104358    3.867548    1.549970
    106          6           0      -20.276440    2.983984    0.967313
    107          6           0      -19.560137    1.741462    0.659428
    108          6           0      -19.318776    4.481960    2.974519
    109          6           0      -20.942600    3.646504   -0.326120
    110          6           0      -22.369894    3.142947   -0.743952
    111          7           0      -18.179711   -0.598234   -0.516979
    112          6           0      -19.551485   -0.430472   -0.571772
    113          6           0      -20.154162   -1.454019   -1.379913
    114          6           0      -19.025323   -2.217260   -1.841997
    115          6           0      -17.879768   -1.597230   -1.381700
    116          6           0      -21.607047   -1.663852   -1.661772
    117          6           0      -18.658214   -3.360713   -2.603840
    118          8           0      -19.274485   -4.213753   -3.255443
    119          6           0      -17.102404   -3.264073   -2.738507
    120          6           0      -16.567910   -4.636792   -2.499462
    121          8           0      -16.318165   -5.463495   -3.387943
    122          8           0      -16.451665   -4.860323   -1.155278
    123          6           0      -15.963350   -6.250813   -0.936302
    124          1           0      -12.330452   -0.213442    1.383040
    125          1           0      -16.610817    4.412611    2.219891
    126          1           0      -21.215911    0.800766   -0.257262
    127          1           0      -14.390374   -3.582073   -1.656881
    128          1           0      -12.233685   -1.840537   -0.865027
    129          1           0      -11.900672   -3.523046    0.501346
    130          1           0      -13.462701   -4.168481    0.082924
    131          1           0      -13.389511   -3.002089    1.452830
    132          1           0      -12.842371   -1.140892   -3.051171
    133          1           0      -14.276716   -1.611962   -3.746679
    134          1           0      -13.254493   -3.057126   -4.963453
    135          1           0      -12.861135   -4.184646   -3.715801
    136          1           0      -11.118828    2.995379    2.022588
    137          1           0      -11.225460    1.236124    2.172950
    138          1           0      -11.528541    2.183119    3.551798
    139          1           0      -15.567410    5.586571    3.922289
    140          1           0      -15.261320    6.086343    2.242127
    141          1           0      -14.163710    6.638764    3.389825
    142          1           0      -18.819754    4.629673    0.824648
    143          1           0      -21.069261    2.662896    1.642488
    144          1           0      -19.238149    5.563314    2.865921
    145          1           0      -18.592718    4.104076    3.694567
    146          1           0      -20.345102    4.421845    3.336321
    147          1           0      -20.295842    3.505875   -1.192420
    148          1           0      -20.979607    4.713532   -0.111550
    149          1           0      -23.217390    3.826392   -0.788705
    150          1           0      -22.729018    2.390191   -0.043509
    151          1           0      -22.330293    2.674579   -1.727411
    152          1           0      -22.309170   -1.063675   -1.083389
    153          1           0      -21.673709   -2.728271   -1.440305
    154          1           0      -21.607299   -1.525019   -2.742971
    155          1           0      -16.757997   -2.884486   -3.701076
    156          1           0      -16.747705   -6.955677   -1.210234
    157          1           0      -15.838494   -6.492364    0.119261
    158          1           0      -15.033388   -6.364155   -1.493851
 ---------------------------------------------------------------------

 SCF Done:  E(RPBE1PBE) =  -4067.36076643     A.U. after   16 cycles

 Excitation energies and oscillator strengths:

 Excited State   1:      Singlet-A      1.7985 eV  689.38 nm  f=0.3487  <S**2>=0.000
     309 -> 315       -0.16141
     311 -> 313        0.69443
     311 <- 313       -0.10910
 This state for optimization and/or second-order correction.
 Total Energy, E(TD-HF/TD-DFT) =  -4067.29467287
 Copying the excited state density for this state as the 1-particle RhoCI density.

 Excited State   2:      Singlet-A      1.8264 eV  678.85 nm  f=0.3808  <S**2>=0.000
     310 -> 316       -0.16172
     312 -> 314        0.69421
     312 <- 314       -0.11144

 Excited State   3:      Singlet-A      1.8615 eV  666.05 nm  f=0.0000  <S**2>=0.000
     312 -> 313        0.70710

 Excited State   4:      Singlet-A      1.9748 eV  627.85 nm  f=0.0000  <S**2>=0.000
     311 -> 314        0.70710

 Excited State   5:      Singlet-A      2.2008 eV  563.36 nm  f=0.1152  <S**2>=0.000
     310 -> 314        0.65559
     312 -> 316        0.24484

 The electronic state is 1-A.
 Alpha  occ. eigenvalues --  -46.92591 -46.92516 -19.26299 -19.25162 -19.20074
 Alpha  occ. eigenvalues --  -19.19642 -19.19443 -19.19427 -19.19225 -19.18469
 Alpha  occ. eigenvalues --  -14.41715 -14.41514 -14.41472 -14.41261 -14.39748
 Alpha  occ. eigenvalues --  -14.39689 -14.38933 -14.38452 -10.36419 -10.35834
 Alpha  occ. eigenvalues --  -10.32665 -10.32624 -10.32400 -10.31487 -10.29771
 Alpha  occ. eigenvalues --  -10.29578 -10.29018 -10.29013 -10.28832 -10.28643
 Alpha  occ. eigenvalues --  -10.28548 -10.28523 -10.28315 -10.28223 -10.28197
 Alpha  occ. eigenvalues --  -10.28116 -10.28007 -10.27887 -10.27354 -10.26968
 Alpha  occ. eigenvalues --  -10.26633 -10.26554 -10.26523 -10.26503 -10.26356
 Alpha  occ. eigenvalues --  -10.26163 -10.26152 -10.26102 -10.26085 -10.25931
 Alpha  occ. eigenvalues --  -10.25803 -10.25691 -10.25662 -10.25581 -10.25541
 Alpha  occ. eigenvalues --  -10.25514 -10.25504 -10.25422 -10.25366 -10.25360
 Alpha  occ. eigenvalues --  -10.25345 -10.25230 -10.25226 -10.25139 -10.25085
 Alpha  occ. eigenvalues --  -10.24873 -10.24629 -10.24627 -10.24433 -10.24395
 Alpha  occ. eigenvalues --  -10.24354 -10.24220 -10.23976 -10.23920 -10.23860
 Alpha  occ. eigenvalues --  -10.23841 -10.23777 -10.23777 -10.23622 -10.23617
 Alpha  occ. eigenvalues --  -10.23067 -10.22973 -10.22738 -10.22680 -10.22559
 Alpha  occ. eigenvalues --  -10.22475  -3.14743  -3.14497  -1.87570  -1.87351
 Alpha  occ. eigenvalues --   -1.87131  -1.86958  -1.86829  -1.86751  -1.10817
 Alpha  occ. eigenvalues --   -1.10599  -1.06427  -1.04998  -1.04860  -1.03124
 Alpha  occ. eigenvalues --   -1.01719  -1.01685  -1.01375  -0.99160  -0.99078
 Alpha  occ. eigenvalues --   -0.98542  -0.97702  -0.97397  -0.97209  -0.96177
 Alpha  occ. eigenvalues --   -0.87825  -0.87076  -0.84106  -0.83525  -0.83078
 Alpha  occ. eigenvalues --   -0.82943  -0.82531  -0.82208  -0.81646  -0.81458
 Alpha  occ. eigenvalues --   -0.81207  -0.81063  -0.80809  -0.79956  -0.78594
 Alpha  occ. eigenvalues --   -0.78520  -0.78204  -0.78143  -0.77033  -0.76544
 Alpha  occ. eigenvalues --   -0.76434  -0.75878  -0.75261  -0.75183  -0.74708
 Alpha  occ. eigenvalues --   -0.74383  -0.72832  -0.72258  -0.71971  -0.71619
 Alpha  occ. eigenvalues --   -0.71128  -0.71109  -0.70358  -0.70295  -0.69794
 Alpha  occ. eigenvalues --   -0.68904  -0.67224  -0.67019  -0.66632  -0.65455
 Alpha  occ. eigenvalues --   -0.64909  -0.63653  -0.63479  -0.62884  -0.62594
 Alpha  occ. eigenvalues --   -0.62350  -0.62042  -0.61430  -0.61355  -0.59802
 Alpha  occ. eigenvalues --   -0.59800  -0.59445  -0.59318  -0.59174  -0.59061
 Alpha  occ. eigenvalues --   -0.58469  -0.57077  -0.56753  -0.54942  -0.54570
 Alpha  occ. eigenvalues --   -0.54244  -0.54227  -0.53743  -0.53588  -0.53397
 Alpha  occ. eigenvalues --   -0.53334  -0.53005  -0.52591  -0.52260  -0.51449
 Alpha  occ. eigenvalues --   -0.51291  -0.50786  -0.50530  -0.50311  -0.50308
 Alpha  occ. eigenvalues --   -0.49650  -0.49546  -0.49316  -0.48834  -0.48282
 Alpha  occ. eigenvalues --   -0.48176  -0.48025  -0.47875  -0.47733  -0.47552
 Alpha  occ. eigenvalues --   -0.47523  -0.47454  -0.47158  -0.46813  -0.46531
 Alpha  occ. eigenvalues --   -0.46468  -0.46370  -0.46300  -0.46019  -0.45934
 Alpha  occ. eigenvalues --   -0.45795  -0.45414  -0.45377  -0.44826  -0.44814
 Alpha  occ. eigenvalues --   -0.44772  -0.44516  -0.44335  -0.44151  -0.44150
 Alpha  occ. eigenvalues --   -0.44016  -0.43887  -0.43779  -0.43659  -0.43652
 Alpha  occ. eigenvalues --   -0.43325  -0.43267  -0.42979  -0.42871  -0.42499
 Alpha  occ. eigenvalues --   -0.42436  -0.42377  -0.42076  -0.42030  -0.41705
 Alpha  occ. eigenvalues --   -0.41593  -0.41471  -0.41443  -0.41072  -0.41053
 Alpha  occ. eigenvalues --   -0.41032  -0.40819  -0.40670  -0.40581  -0.40542
 Alpha  occ. eigenvalues --   -0.40073  -0.39987  -0.39794  -0.39696  -0.39485
 Alpha  occ. eigenvalues --   -0.39481  -0.39236  -0.39223  -0.39162  -0.39131
 Alpha  occ. eigenvalues --   -0.39038  -0.38929  -0.38719  -0.38415  -0.38329
 Alpha  occ. eigenvalues --   -0.38176  -0.38045  -0.37955  -0.37819  -0.37675
 Alpha  occ. eigenvalues --   -0.37576  -0.37470  -0.37342  -0.37269  -0.37049
 Alpha  occ. eigenvalues --   -0.36914  -0.36811  -0.36748  -0.36384  -0.36254
 Alpha  occ. eigenvalues --   -0.36157  -0.36130  -0.35850  -0.35759  -0.35249
 Alpha  occ. eigenvalues --   -0.34984  -0.34825  -0.34614  -0.33883  -0.33633
 Alpha  occ. eigenvalues --   -0.33465  -0.33253  -0.32987  -0.32947  -0.32763
 Alpha  occ. eigenvalues --   -0.32681  -0.31923  -0.31812  -0.31567  -0.31509
 Alpha  occ. eigenvalues --   -0.31264  -0.30905  -0.30209  -0.29383  -0.29095
 Alpha  occ. eigenvalues --   -0.29091  -0.28388  -0.28248  -0.26922  -0.26856
 Alpha  occ. eigenvalues --   -0.26439  -0.26301  -0.26146  -0.26116  -0.25933
 Alpha  occ. eigenvalues --   -0.25538  -0.25351  -0.24756  -0.21049  -0.20726
 Alpha  occ. eigenvalues --   -0.18762  -0.18572
 Alpha virt. eigenvalues --   -0.11332  -0.11112  -0.05344  -0.05047  -0.04034
 Alpha virt. eigenvalues --   -0.04003  -0.02435  -0.02285  -0.00817  -0.00427
 Alpha virt. eigenvalues --    0.00234   0.00569   0.01084   0.01188   0.01489

 Mulliken charges:
               1
     1  Mg  12.000044
     2  C    5.999085
     3  C    5.999962
     4  C    6.000861
     5  C    5.999959
     6  N    6.999485
     7  C    6.001172
     8  C    5.999782
     9  C    6.000385
    10  C    5.999104
    11  C    6.000122
    12  C    5.999873
    13  C    6.000050
    14  H    0.999983
    15  N    7.000163
    16  C    5.998904
    17  C    5.999363
    18  C    5.999497
    19  C    5.999014
    20  C    6.000135
    21  C    5.999552
    22  O    7.999103
    23  C    6.000236
    24  N    7.000287
    25  C    5.998926
    26  C    6.000239
    27  C    5.999660
    28  C    6.000863
    29  C    6.000034
    30  C    5.999808
    31  C    5.999926
    32  N    6.999965
    33  C    6.001009
    34  C    6.001018
    35  C    6.000000
    36  C    6.001148
    37  C    5.999855
    38  C    6.000662
    39  O    8.000944
    40  C    6.000026
    41  C    6.000084
    42  O    8.000225
    43  O    8.000040
    44  C    5.999938
    45  H    0.999371
    46  H    0.999994
    47  H    1.000478
    48  H    0.999878
    49  H    0.999706
    50  H    0.999976
    51  H    0.999820
    52  H    0.999513
    53  H    1.000298
    54  H    0.999838
    55  H    1.000079
    56  H    0.999934
    57  H    0.999338
    58  H    0.999349
    59  H    0.999403
    60  H    0.999729
    61  H    0.999677
    62  H    0.999558
    63  H    1.000103
    64  H    1.000180
    65  H    0.999835
    66  H    1.000067
    67  H    1.000148
    68  H    0.999885
    69  H    1.000319
    70  H    1.000236
    71  H    1.000207
    72  H    1.000034
    73  H    1.000625
    74  H    1.000646
    75  H    1.000740
    76  H    1.000246
    77  H    1.000074
    78  H    1.000091
    79  H    1.000135
    80  Mg  12.000640
    81  C    6.012951
    82  C    5.992629
    83  C    5.984803
    84  C    6.003376
    85  N    7.008290
    86  C    5.966260
    87  C    6.010310
    88  C    5.986180
    89  C    6.031725
    90  C    5.996972
    91  C    5.998958
    92  C    6.002164
    93  H    0.991106
    94  N    6.995217
    95  C    6.035648
    96  C    6.022165
    97  C    6.013788
    98  C    6.029261
    99  C    5.996162
   100  C    6.009334
   101  O    8.018843
   102  C    5.998353
   103  N    7.000530
   104  C    6.028851
   105  C    5.991684
   106  C    6.010167
   107  C    5.965900
   108  C    5.997332
   109  C    6.006333
   110  C    6.001341
   111  N    6.999679
   112  C    5.973147
   113  C    5.968395
   114  C    6.000143
   115  C    5.975450
   116  C    5.999162
   117  C    5.984256
   118  O    7.971086
   119  C    6.001319
   120  C    5.996155
   121  O    7.992996
   122  O    8.000993
   123  C    6.000818
   124  H    1.010222
   125  H    1.006285
   126  H    0.991696
   127  H    1.002826
   128  H    1.005177
   129  H    1.003432
   130  H    1.014996
   131  H    0.999610
   132  H    0.989372
   133  H    1.004945
   134  H    1.002082
   135  H    1.000471
   136  H    1.017302
   137  H    1.017197
   138  H    1.016936
   139  H    1.010569
   140  H    1.011004
   141  H    1.010753
   142  H    0.998049
   143  H    0.998335
   144  H    0.999997
   145  H    0.994177
   146  H    1.008779
   147  H    0.997175
   148  H    0.988143
   149  H    0.994266
   150  H    1.001504
   151  H    1.003493
   152  H    0.982811
   153  H    0.984965
   154  H    0.982960
   155  H    0.991690
   156  H    1.000038
   157  H    0.993727
   158  H    0.994143
 Sum of Mulliken charges = 624.00000

 Dipole moment (field-independent basis, Debye):
    X=              7.4887    Y=              4.7347    Z=              4.8748  Tot=             10.1124
 Quadrupole moment (field-independent basis, Debye-Ang):
   XX=           -236.9120   YY=              3.4040   ZZ=              2.1264
   XY=            -84.3682   XZ=            -75.6153   YZ=              3.1621

 Normal termination of Gaussian 16 at Fri Oct 15 03:06:14 2021.
