 Gaussian 16, Revision A.03,
 Gaussian 16:  ES64L-G16RevA.03 25-Dec-2016

 --------------------------------------------------------
 #p PBE1PBE/Def2SVP td=(nstates=5) density=(transition=1)
 --------------------------------------------------------

 --------------------------------
 TDDFT excited states in gaussian
 --------------------------------
 Symbolic Z-matrix:
 Charge =  0 Multiplicity = 1

                         Standard orientation:
 ---------------------------------------------------------------------
 Center     Atomic      Atomic             Coordinates (Angstroms)
 Number     Number       Type             X           Y           Z
 ---------------------------------------------------------------------
      1         12           0       26.682283    0.514102    0.028505
      2          6           0       24.733584   -2.038908   -1.454436
      3          6           0       27.074447   -1.477073    2.608160
      4          6           0       27.533158    3.243009    1.690161
      5          6           0       25.475042    2.607085   -2.577327
      6          7           0       26.067772   -1.640292    0.363826
      7          6           0       25.400610   -2.480685   -0.339685
      8          6           0       25.511485   -3.901961    0.249529
      9          6           0       25.855537   -3.624320    1.800681
     10          6           0       26.304466   -2.113514    1.630074
     11          6           0       24.671599   -3.805896    2.830975
     12          6           0       26.730653   -4.713317   -0.436193
     13          6           0       26.641757   -6.261501   -0.632034
     14          1           0       25.763399   -7.044566    0.412069
     15          7           0       27.430011    0.813259    1.835254
     16          6           0       27.567631   -0.208225    2.763036
     17          6           0       28.183952    0.367649    4.009939
     18          6           0       28.349422    1.782601    3.702696
     19          6           0       27.780385    2.081688    2.385811
     20          6           0       28.441378   -0.494979    5.231013
     21          6           0       29.001868    2.832482    4.574942
     22          8           0       29.081635    4.035195    4.288727
     23          6           0       29.625751    2.411034    5.843262
     24          7           0       26.616697    2.696116   -0.447582
     25          6           0       26.997930    3.570803    0.465639
     26          6           0       27.163803    5.011596   -0.193947
     27          6           0       26.434043    4.753142   -1.621441
     28          6           0       26.190501    3.247440   -1.564714
     29          6           0       26.574987    6.175677    0.669650
     30          6           0       27.198355    5.164588   -2.922436
     31          6           0       26.640302    6.324724   -3.706078
     32          7           0       25.539215    0.330208   -1.823823
     33          6           0       25.162207    1.295321   -2.736407
     34          6           0       24.294052    0.742622   -3.690348
     35          6           0       24.068216   -0.556446   -3.197184
     36          6           0       24.796735   -0.785499   -2.053986
     37          6           0       23.702477    1.384182   -4.842581
     38          6           0       23.400216   -1.748798   -3.549667
     39          8           0       22.718942   -2.147661   -4.533006
     40          6           0       23.590912   -2.684240   -2.272323
     41          6           0       23.860471   -4.082306   -2.693149
     42          8           0       24.822557   -4.507270   -3.329483
     43          8           0       22.836214   -4.898786   -2.117959
     44          6           0       22.886618   -6.337810   -2.406144
     45          1           0       27.294344   -2.219708    3.378514
     46          1           0       27.876201    4.127321    2.230049
     47          1           0       25.173884    3.238928   -3.416292
     48          1           0       24.500849   -4.307016    0.293952
     49          1           0       26.578506   -4.371228    2.126825
     50          1           0       23.705764   -3.883309    2.332170
     51          1           0       24.573483   -2.940903    3.486684
     52          1           0       24.892143   -4.724615    3.374386
     53          1           0       27.672993   -4.496456    0.067108
     54          1           0       26.916767   -4.272055   -1.415552
     55          1           0       27.610364   -6.762183   -0.616232
     56          1           0       26.048599   -6.425986   -1.532452
     57          1           0       29.426918   -0.314240    5.661637
     58          1           0       28.345767   -1.562129    5.030518
     59          1           0       27.618145   -0.375775    5.934981
     60          1           0       28.901113    1.921680    6.494668
     61          1           0       30.049390    3.277015    6.351983
     62          1           0       30.473684    1.732606    5.749185
     63          1           0       28.201111    5.248686   -0.430061
     64          1           0       25.408450    5.125074   -1.631422
     65          1           0       26.056014    5.776528    1.541299
     66          1           0       25.994953    6.709956   -0.083089
     67          1           0       27.403948    6.843307    0.900993
     68          1           0       27.187480    4.302202   -3.589340
     69          1           0       28.242691    5.363579   -2.681051
     70          1           0       25.872155    6.724234   -3.045256
     71          1           0       26.147658    5.920112   -4.590972
     72          1           0       27.370088    7.110729   -3.896281
     73          1           0       24.518961    1.847328   -5.395971
     74          1           0       23.115096    2.280204   -4.641799
     75          1           0       23.212263    0.636713   -5.466622
     76          1           0       22.674765   -2.641403   -1.682442
     77          1           0       22.013866   -6.844787   -1.993758
     78          1           0       23.701884   -6.776154   -1.830261
     79          1           0       22.874341   -6.486886   -3.485316
     80         12           0      -26.455940    0.563341   -0.157323
     81          6           0      -24.384303   -1.693572    1.548382
     82          6           0      -27.831395   -2.115396   -1.826665
     83          6           0      -28.373021    2.710112   -1.772208
     84          6           0      -24.826291    3.180622    1.526951
     85          7           0      -26.161280   -1.628851   -0.035247
     86          6           0      -25.247746   -2.373588    0.710967
     87          6           0      -25.560990   -3.921329    0.716897
     88          6           0      -26.523882   -3.966551   -0.453786
     89          6           0      -26.885686   -2.465538   -0.809879
     90          6           0      -25.818768   -4.595152   -1.741782
     91          6           0      -26.334938   -4.152777    2.090017
     92          6           0      -25.968271   -5.462732    2.916863
     93          1           0      -25.612386   -6.578539    1.967975
     94          7           0      -27.756009    0.334989   -1.661858
     95          6           0      -28.189823   -0.792619   -2.218104
     96          6           0      -29.197808   -0.564535   -3.219413
     97          6           0      -29.516339    0.803627   -3.110551
     98          6           0      -28.476689    1.377346   -2.175497
     99          6           0      -29.812072   -1.595024   -4.094328
    100          6           0      -30.676758    1.591476   -3.682731
    101          8           0      -30.969758    2.729549   -3.298878
    102          6           0      -31.476316    1.026436   -4.860028
    103          7           0      -26.530731    2.683812   -0.144828
    104          6           0      -27.512339    3.286819   -0.895350
    105          6           0      -27.536926    4.774650   -0.551655
    106          6           0      -26.455739    4.933371    0.625269
    107          6           0      -25.925637    3.528884    0.746703
    108          6           0      -27.328344    5.625521   -1.854013
    109          6           0      -26.944515    5.537424    1.932413
    110          6           0      -26.081888    6.738846    2.431043
    111          7           0      -24.910045    0.719618    1.226751
    112          6           0      -24.325093    1.880562    1.823135
    113          6           0      -23.263483    1.509314    2.688955
    114          6           0      -23.268867    0.107049    2.600340
    115          6           0      -24.247958   -0.293113    1.667445
    116          6           0      -22.368197    2.341995    3.548922
    117          6           0      -22.655955   -1.091130    3.077489
    118          8           0      -21.736981   -1.298280    3.834668
    119          6           0      -23.443730   -2.293749    2.485128
    120          6           0      -22.477079   -3.277818    1.933629
    121          8           0      -21.782152   -3.163436    0.927932
    122          8           0      -22.540364   -4.360680    2.714526
    123          6           0      -21.738063   -5.500250    2.322035
    124          1           0      -28.442926   -2.871715   -2.322855
    125          1           0      -29.028363    3.368390   -2.348074
    126          1           0      -24.335208    3.956633    2.117907
    127          1           0      -24.584219   -4.403836    0.732756
    128          1           0      -27.431050   -4.501394   -0.174553
    129          1           0      -24.774927   -4.852241   -1.560700
    130          1           0      -25.869637   -3.865048   -2.549303
    131          1           0      -26.427125   -5.469371   -1.973870
    132          1           0      -27.416218   -4.213467    1.970119
    133          1           0      -26.158732   -3.259188    2.689379
    134          1           0      -26.857517   -5.876778    3.392304
    135          1           0      -25.329157   -5.232084    3.769567
    136          1           0      -30.851071   -1.691367   -3.776279
    137          1           0      -29.334812   -2.565149   -3.963015
    138          1           0      -29.784510   -1.336655   -5.152489
    139          1           0      -31.930195    1.946468   -5.227599
    140          1           0      -32.200819    0.261704   -4.577583
    141          1           0      -30.912359    0.659941   -5.717568
    142          1           0      -28.481674    5.153642   -0.161995
    143          1           0      -25.639645    5.555338    0.257278
    144          1           0      -28.080317    6.413579   -1.812451
    145          1           0      -27.381217    5.045728   -2.775558
    146          1           0      -26.434815    6.246654   -1.781264
    147          1           0      -27.028767    4.824397    2.751931
    148          1           0      -27.887040    6.015741    1.662302
    149          1           0      -25.336697    7.014486    1.684665
    150          1           0      -25.442231    6.455593    3.266685
    151          1           0      -26.702201    7.607839    2.651469
    152          1           0      -23.045998    2.611934    4.359221
    153          1           0      -21.995658    3.148984    2.918366
    154          1           0      -21.558019    1.763800    3.990993
    155          1           0      -23.871697   -2.766825    3.369958
    156          1           0      -20.698258   -5.197447    2.195546
    157          1           0      -21.975152   -5.961202    1.362581
    158          1           0      -21.821536   -6.221804    3.134943
 ---------------------------------------------------------------------

 SCF Done:  E(RPBE1PBE) =  -4067.36922141     A.U. after   17 cycles

 Excitation energies and oscillator strengths:

 Excited State   1:      Singlet-A      1.8615 eV  666.05 nm  f=0.3657  <S**2>=0.000
     310 -> 316       -0.15513
     312 -> 314        0.69392
     312 <- 314       -0.10802
 This state for optimization and/or second-order correction.
 Total Energy, E(TD-HF/TD-DFT) =  -4067.30081318
 Copying the excited state density for this state as the 1-particle RhoCI density.

 Excited State   2:      Singlet-A      1.9488 eV  636.21 nm  f=0.3521  <S**2>=0.000
     309 -> 315       -0.20425
     311 -> 313        0.68089

 Excited State   3:      Singlet-A      1.9754 eV  627.66 nm  f=0.0000  <S**2>=0.000
     312 -> 313        0.70711

 Excited State   4:      Singlet-A      2.1758 eV  569.84 nm  f=0.0000  <S**2>=0.000
     311 -> 314        0.70711

 Excited State   5:      Singlet-A      2.2125 eV  560.39 nm  f=0.0832  <S**2>=0.000
     309 -> 313        0.64637
     311 -> 315        0.26598

 The electronic state is 1-A.
 Alpha  occ. eigenvalues --  -46.92777 -46.91151 -19.25961 -19.24606 -19.20393
 Alpha  occ. eigenvalues --  -19.19892 -19.19167 -19.19114 -19.18750 -19.17879
 Alpha  occ. eigenvalues --  -14.41760 -14.41643 -14.41137 -14.41120 -14.39691
 Alpha  occ. eigenvalues --  -14.39650 -14.38287 -14.38245 -10.36284 -10.35401
 Alpha  occ. eigenvalues --  -10.33123 -10.32191 -10.31653 -10.30503 -10.29425
 Alpha  occ. eigenvalues --  -10.29232 -10.28651 -10.28625 -10.28425 -10.28389
 Alpha  occ. eigenvalues --  -10.28385 -10.28379 -10.28332 -10.28294 -10.28206
 Alpha  occ. eigenvalues --  -10.28070 -10.28058 -10.27933 -10.27915 -10.27009
 Alpha  occ. eigenvalues --  -10.26828 -10.26546 -10.26501 -10.26476 -10.26346
 Alpha  occ. eigenvalues --  -10.26281 -10.26276 -10.26145 -10.26068 -10.26061
 Alpha  occ. eigenvalues --  -10.26058 -10.25475 -10.25474 -10.25413 -10.25397
 Alpha  occ. eigenvalues --  -10.25386 -10.25378 -10.25352 -10.25117 -10.25114
 Alpha  occ. eigenvalues --  -10.25091 -10.25048 -10.25013 -10.24973 -10.24815
 Alpha  occ. eigenvalues --  -10.24612 -10.24414 -10.24397 -10.23954 -10.23924
 Alpha  occ. eigenvalues --  -10.23899 -10.23877 -10.23848 -10.23713 -10.23615
 Alpha  occ. eigenvalues --  -10.23447 -10.23407 -10.23397 -10.23341 -10.23287
 Alpha  occ. eigenvalues --  -10.23171 -10.23053 -10.22928 -10.22837 -10.22378
 Alpha  occ. eigenvalues --  -10.21623  -3.14814  -3.13437  -1.87657  -1.87196
 Alpha  occ. eigenvalues --   -1.87023  -1.86289  -1.85792  -1.85692  -1.11964
 Alpha  occ. eigenvalues --   -1.08668  -1.04832  -1.04341  -1.04085  -1.02025
 Alpha  occ. eigenvalues --   -1.01970  -1.01527  -1.00424  -0.99846  -0.99439
 Alpha  occ. eigenvalues --   -0.98733  -0.98216  -0.97504  -0.96995  -0.96073
 Alpha  occ. eigenvalues --   -0.87357  -0.87154  -0.83826  -0.83821  -0.82926
 Alpha  occ. eigenvalues --   -0.82680  -0.82669  -0.82223  -0.82181  -0.81894
 Alpha  occ. eigenvalues --   -0.81630  -0.81533  -0.81105  -0.80931  -0.78580
 Alpha  occ. eigenvalues --   -0.78273  -0.78255  -0.77835  -0.76988  -0.76544
 Alpha  occ. eigenvalues --   -0.76217  -0.75971  -0.75775  -0.75533  -0.75007
 Alpha  occ. eigenvalues --   -0.74668  -0.73264  -0.73028  -0.72039  -0.71813
 Alpha  occ. eigenvalues --   -0.71262  -0.71111  -0.70211  -0.69932  -0.69568
 Alpha  occ. eigenvalues --   -0.69298  -0.67693  -0.67594  -0.66733  -0.65806
 Alpha  occ. eigenvalues --   -0.63461  -0.63396  -0.63235  -0.62937  -0.62301
 Alpha  occ. eigenvalues --   -0.62054  -0.61778  -0.61610  -0.60420  -0.60080
 Alpha  occ. eigenvalues --   -0.60015  -0.59797  -0.59709  -0.59552  -0.59147
 Alpha  occ. eigenvalues --   -0.59084  -0.57091  -0.55816  -0.55196  -0.55065
 Alpha  occ. eigenvalues --   -0.54716  -0.54180  -0.53896  -0.53701  -0.53210
 Alpha  occ. eigenvalues --   -0.53022  -0.52344  -0.52306  -0.51881  -0.51865
 Alpha  occ. eigenvalues --   -0.51478  -0.51160  -0.50331  -0.50206  -0.49991
 Alpha  occ. eigenvalues --   -0.49856  -0.49022  -0.48821  -0.48539  -0.48440
 Alpha  occ. eigenvalues --   -0.48082  -0.48032  -0.47726  -0.47527  -0.47433
 Alpha  occ. eigenvalues --   -0.47203  -0.47072  -0.47064  -0.47011  -0.46728
 Alpha  occ. eigenvalues --   -0.46645  -0.46400  -0.46082  -0.45957  -0.45716
 Alpha  occ. eigenvalues --   -0.45503  -0.45489  -0.45256  -0.45113  -0.45052
 Alpha  occ. eigenvalues --   -0.44972  -0.44872  -0.44556  -0.44468  -0.44239
 Alpha  occ. eigenvalues --   -0.44225  -0.43813  -0.43760  -0.43414  -0.43289
 Alpha  occ. eigenvalues --   -0.43250  -0.43045  -0.43028  -0.42855  -0.42638
 Alpha  occ. eigenvalues --   -0.42574  -0.42459  -0.42343  -0.42293  -0.42180
 Alpha  occ. eigenvalues --   -0.42003  -0.41883  -0.41650  -0.41521  -0.41519
 Alpha  occ. eigenvalues --   -0.41328  -0.41057  -0.41043  -0.40881  -0.40790
 Alpha  occ. eigenvalues --   -0.40293  -0.40136  -0.40051  -0.39887  -0.39721
 Alpha  occ. eigenvalues --   -0.39516  -0.39291  -0.39281  -0.39058  -0.38980
 Alpha  occ. eigenvalues --   -0.38776  -0.38723  -0.38541  -0.38391  -0.38189
 Alpha  occ. eigenvalues --   -0.38127  -0.37891  -0.37775  -0.37549  -0.37478
 Alpha  occ. eigenvalues --   -0.37424  -0.37249  -0.36776  -0.36757  -0.36486
 Alpha  occ. eigenvalues --   -0.36462  -0.36361  -0.35982  -0.35956  -0.35854
 Alpha  occ. eigenvalues --   -0.35651  -0.35636  -0.35506  -0.35366  -0.35259
 Alpha  occ. eigenvalues --   -0.34999  -0.34997  -0.34650  -0.33959  -0.33708
 Alpha  occ. eigenvalues --   -0.33484  -0.33282  -0.32865  -0.32642  -0.32427
 Alpha  occ. eigenvalues --   -0.32405  -0.31942  -0.31547  -0.31486  -0.31331
 Alpha  occ. eigenvalues --   -0.31028  -0.30663  -0.29777  -0.29464  -0.29014
 Alpha  occ. eigenvalues --   -0.28940  -0.28778  -0.28156  -0.27407  -0.27190
 Alpha  occ. eigenvalues --   -0.26455  -0.26377  -0.26034  -0.25934  -0.25292
 Alpha  occ. eigenvalues --   -0.25279  -0.25001  -0.24605  -0.21098  -0.21006
 Alpha  occ. eigenvalues --   -0.19299  -0.18672
 Alpha virt. eigenvalues --   -0.11160  -0.11053  -0.06055  -0.05312  -0.04411
 Alpha virt. eigenvalues --   -0.03529  -0.02132  -0.01611  -0.00530  -0.00018
 Alpha virt. eigenvalues --    0.00559   0.01167   0.01425   0.01452   0.01767

 Mulliken charges:
               1
     1  Mg  11.999987
     2  C    6.000025
     3  C    6.000024
     4  C    5.999975
     5  C    5.999976
     6  N    7.000011
     7  C    5.999990
     8  C    6.000004
     9  C    5.999988
    10  C    5.999991
    11  C    6.000003
    12  C    5.999997
    13  C    5.999999
    14  H    1.000018
    15  N    6.999997
    16  C    5.999981
    17  C    6.000010
    18  C    5.999990
    19  C    6.000021
    20  C    5.999998
    21  C    5.999996
    22  O    7.999996
    23  C    6.000005
    24  N    6.999991
    25  C    6.000028
    26  C    5.999987
    27  C    6.000006
    28  C    6.000019
    29  C    6.000009
    30  C    6.000000
    31  C    5.999997
    32  N    7.000002
    33  C    6.000005
    34  C    5.999997
    35  C    6.000003
    36  C    5.999991
    37  C    6.000006
    38  C    6.000000
    39  O    8.000003
    40  C    6.000004
    41  C    5.999994
    42  O    7.999981
    43  O    8.000016
    44  C    5.999997
    45  H    0.999998
    46  H    0.999998
    47  H    0.999997
    48  H    1.000018
    49  H    0.999992
    50  H    1.000024
    51  H    1.000017
    52  H    1.000001
    53  H    0.999986
    54  H    0.999988
    55  H    0.999979
    56  H    0.999997
    57  H    0.999985
    58  H    0.999998
    59  H    1.000021
    60  H    1.000017
    61  H    0.999992
    62  H    0.999981
    63  H    0.999979
    64  H    1.000018
    65  H    1.000020
    66  H    1.000003
    67  H    0.999984
    68  H    0.999988
    69  H    0.999981
    70  H    1.000018
    71  H    0.999998
    72  H    0.999982
    73  H    0.999976
    74  H    1.000015
    75  H    0.999997
    76  H    1.000029
    77  H    1.000024
    78  H    0.999992
    79  H    0.999989
    80  Mg  11.996949
    81  C    6.025539
    82  C    6.003288
    83  C    5.975079
    84  C    5.997637
    85  N    7.017973
    86  C    5.966972
    87  C    6.003592
    88  C    5.997378
    89  C    6.020288
    90  C    5.996569
    91  C    6.000622
    92  C    6.003130
    93  H    0.994039
    94  N    6.993322
    95  C    6.029632
    96  C    6.024662
    97  C    6.010190
    98  C    6.038035
    99  C    5.995722
   100  C    6.012590
   101  O    8.028983
   102  C    5.993887
   103  N    6.992707
   104  C    6.031024
   105  C    5.989312
   106  C    6.011692
   107  C    5.972333
   108  C    5.996639
   109  C    6.006963
   110  C    6.000322
   111  N    6.999406
   112  C    5.966395
   113  C    5.976150
   114  C    5.996695
   115  C    5.970462
   116  C    5.997739
   117  C    5.982489
   118  O    7.969058
   119  C    5.995600
   120  C    5.996848
   121  O    7.994587
   122  O    7.998956
   123  C    6.001785
   124  H    1.012447
   125  H    1.002087
   126  H    0.986126
   127  H    1.003684
   128  H    1.002307
   129  H    1.013759
   130  H    0.995541
   131  H    1.003510
   132  H    0.989483
   133  H    1.006880
   134  H    0.996833
   135  H    1.004272
   136  H    1.018239
   137  H    1.015374
   138  H    1.017750
   139  H    1.012998
   140  H    1.008241
   141  H    1.007719
   142  H    1.000750
   143  H    0.996887
   144  H    1.001872
   145  H    0.993436
   146  H    1.008694
   147  H    1.000497
   148  H    0.987807
   149  H    0.997924
   150  H    1.003173
   151  H    0.993902
   152  H    0.985103
   153  H    0.986233
   154  H    0.988091
   155  H    0.995731
   156  H    0.999365
   157  H    0.993417
   158  H    0.996630
 Sum of Mulliken charges = 624.00000

 Dipole moment (field-independent basis, Debye):
    X=             -7.1654    Y=             -1.6244    Z=             -7.0455  Tot=             10.1795
 Quadrupole moment (field-independent basis, Debye-Ang):
   XX=            377.6178   YY=             -4.5495   ZZ=              4.1246
   XY=             40.2654   XZ=            188.3641   YZ=             -2.5331

 Normal termination of Gaussian 16 at Thu Oct 14 08:06:16 2021.
