 Gaussian 16, Revision A.03,
 Gaussian 16:  ES64L-G16RevA.03 25-Dec-2016

 --------------------------------------------------------
 #p PBE1PBE/Def2SVP td=(nstates=5) density=(transition=1)
 --------------------------------------------------------

 --------------------------------
 TDDFT excited states in gaussian
 --------------------------------
 Symbolic Z-matrix:
 Charge =  0 Multiplicity = 1

                         Standard orientation:
 ---------------------------------------------------------------------
 Center     Atomic      Atomic             Coordinates (Angstroms)
 Number     Number       Type             X           Y           Z
 ---------------------------------------------------------------------
      1         12           0       25.940140   -0.764880    0.142260
      2          6           0       27.043493    2.482801   -0.416787
      3          6           0       25.743195   -0.112151    3.441452
      4          6           0       25.637242   -4.078024    0.750914
      5          6           0       26.959682   -1.593475   -3.148289
      6          7           0       26.278332    1.018148    1.253948
      7          6           0       26.575147    2.309359    0.875530
      8          6           0       26.653003    3.236662    2.119532
      9          6           0       26.770626    2.190659    3.270712
     10          6           0       26.119579    0.962503    2.651747
     11          6           0       28.239866    1.869058    3.718493
     12          6           0       25.475289    4.225565    2.044306
     13          6           0       25.825295    5.618307    2.407788
     14          1           0       24.894594    6.635046    1.921832
     15          7           0       25.502762   -1.864711    1.830240
     16          6           0       25.403164   -1.381133    3.095436
     17          6           0       24.770716   -2.382403    3.916986
     18          6           0       24.735099   -3.573585    3.105845
     19          6           0       25.392270   -3.216755    1.845103
     20          6           0       24.404221   -2.169064    5.341972
     21          6           0       24.296330   -5.036305    3.441196
     22          8           0       24.322588   -5.948896    2.612960
     23          6           0       23.676851   -5.379700    4.767053
     24          7           0       26.598197   -2.591997   -0.972222
     25          6           0       26.200713   -3.872858   -0.500639
     26          6           0       26.381229   -4.959319   -1.508518
     27          6           0       26.587431   -4.064237   -2.773527
     28          6           0       26.656810   -2.623263   -2.274817
     29          6           0       27.557481   -5.943249   -1.189838
     30          6           0       25.436237   -4.207194   -3.835065
     31          6           0       23.995393   -4.031364   -3.291534
     32          7           0       26.719597    0.222476   -1.509666
     33          6           0       27.036685   -0.231497   -2.799270
     34          6           0       27.501955    0.893993   -3.519701
     35          6           0       27.487295    1.960025   -2.628862
     36          6           0       27.022473    1.496101   -1.442590
     37          6           0       27.872059    0.904743   -4.968687
     38          6           0       27.843068    3.294570   -2.496520
     39          8           0       28.343069    4.066701   -3.334768
     40          6           0       27.577513    3.783420   -1.040729
     41          6           0       26.544138    4.937487   -1.230022
     42          8           0       25.364382    4.796754   -1.598350
     43          8           0       27.177410    6.136295   -0.920495
     44          6           0       26.481213    7.417048   -1.263332
     45          1           0       25.811361    0.192453    4.487960
     46          1           0       25.454939   -5.154884    0.718974
     47          1           0       27.089037   -1.743969   -4.222155
     48          1           0       27.526386    3.884644    2.054045
     49          1           0       26.149664    2.510178    4.107096
     50          1           0       29.026537    2.457119    3.244942
     51          1           0       28.515194    0.856267    3.427089
     52          1           0       28.331646    2.073142    4.785079
     53          1           0       24.778637    3.907242    2.818575
     54          1           0       25.053083    4.160061    1.041168
     55          1           0       26.778591    5.817608    1.918016
     56          1           0       25.994313    5.662280    3.483527
     57          1           0       24.343410   -1.108091    5.583588
     58          1           0       25.039887   -2.808678    5.955207
     59          1           0       23.389868   -2.531711    5.508694
     60          1           0       23.883825   -6.442579    4.893814
     61          1           0       22.594672   -5.251353    4.734721
     62          1           0       24.142639   -4.836677    5.589994
     63          1           0       25.490246   -5.568707   -1.666196
     64          1           0       27.539416   -4.327491   -3.235655
     65          1           0       28.248539   -5.455965   -0.501490
     66          1           0       28.157363   -6.281367   -2.034922
     67          1           0       27.277632   -6.883271   -0.713420
     68          1           0       25.603065   -5.167001   -4.324279
     69          1           0       25.695511   -3.461052   -4.586088
     70          1           0       23.460796   -3.213869   -3.775692
     71          1           0       24.086190   -3.858679   -2.218775
     72          1           0       23.381203   -4.920043   -3.433753
     73          1           0       28.895240    1.278308   -5.008315
     74          1           0       27.152320    1.536318   -5.489424
     75          1           0       27.908657   -0.072417   -5.450426
     76          1           0       28.504681    4.200875   -0.648957
     77          1           0       26.339082    7.402344   -2.343688
     78          1           0       26.982737    8.350731   -1.008942
     79          1           0       25.574958    7.229825   -0.687286
     80         12           0      -26.730627   -0.435786   -0.168857
     81          6           0      -24.629770    2.396700   -0.352291
     82          6           0      -28.362250    0.957601    2.490925
     83          6           0      -28.161085   -3.362036    0.341962
     84          6           0      -24.655585   -1.972626   -2.601588
     85          7           0      -26.566504    1.530405    0.852945
     86          6           0      -25.678925    2.470410    0.594558
     87          6           0      -26.130427    3.750626    1.273962
     88          6           0      -27.000127    3.229312    2.482112
     89          6           0      -27.347540    1.794186    1.936315
     90          6           0      -26.208389    3.319643    3.841796
     91          6           0      -27.013494    4.632120    0.353839
     92          6           0      -27.110443    6.169183    0.756260
     93          1           0      -26.404780    6.728450    1.994573
     94          7           0      -28.195739   -1.037269    1.065788
     95          6           0      -28.841269   -0.303968    2.094230
     96          6           0      -29.911620   -1.153561    2.666639
     97          6           0      -29.789626   -2.464165    2.079902
     98          6           0      -28.686087   -2.377879    1.098907
     99          6           0      -30.902056   -0.675409    3.668897
    100          6           0      -30.592765   -3.808068    2.279435
    101          8           0      -30.406544   -4.834099    1.611147
    102          6           0      -31.545486   -3.901597    3.435857
    103          7           0      -26.370490   -2.451562   -0.940620
    104          6           0      -27.126971   -3.465085   -0.612502
    105          6           0      -26.827382   -4.749446   -1.333456
    106          6           0      -25.670436   -4.318564   -2.302023
    107          6           0      -25.600537   -2.785540   -2.012013
    108          6           0      -26.582258   -5.905520   -0.359333
    109          6           0      -25.940017   -4.588297   -3.777054
    110          6           0      -24.729484   -5.109854   -4.631335
    111          7           0      -24.997690    0.069457   -1.373150
    112          6           0      -24.299828   -0.662455   -2.353786
    113          6           0      -23.359415    0.199781   -2.982854
    114          6           0      -23.303816    1.356459   -2.141544
    115          6           0      -24.327306    1.252085   -1.233992
    116          6           0      -22.644631   -0.076211   -4.274502
    117          6           0      -22.762767    2.713655   -1.889101
    118          8           0      -21.875298    3.317394   -2.455102
    119          6           0      -23.457019    3.277109   -0.559320
    120          6           0      -23.565652    4.765963   -0.610410
    121          8           0      -24.173446    5.411054   -1.412975
    122          8           0      -22.762248    5.371637    0.373741
    123          6           0      -22.207167    6.702338    0.047292
    124          1           0      -28.793037    1.246865    3.452204
    125          1           0      -28.664429   -4.330411    0.330249
    126          1           0      -24.085639   -2.450890   -3.400979
    127          1           0      -25.192550    4.282211    1.434571
    128          1           0      -27.919499    3.805336    2.592497
    129          1           0      -25.206354    3.711123    3.669606
    130          1           0      -26.046590    2.275202    4.108466
    131          1           0      -26.667865    3.958109    4.596449
    132          1           0      -28.006722    4.188415    0.433818
    133          1           0      -26.637736    4.509479   -0.661906
    134          1           0      -28.181640    6.360772    0.835323
    135          1           0      -26.772709    6.706955   -0.129984
    136          1           0      -30.966416    0.390211    3.885961
    137          1           0      -30.727848   -1.099138    4.657544
    138          1           0      -31.861006   -0.972417    3.243549
    139          1           0      -32.550251   -3.542148    3.214229
    140          1           0      -31.001075   -3.292471    4.158489
    141          1           0      -31.535943   -4.946029    3.746368
    142          1           0      -27.751697   -4.912158   -1.887622
    143          1           0      -24.709229   -4.778140   -2.075174
    144          1           0      -26.229501   -5.588751    0.622639
    145          1           0      -25.779093   -6.488714   -0.808057
    146          1           0      -27.467560   -6.523490   -0.207873
    147          1           0      -26.297464   -3.690744   -4.281479
    148          1           0      -26.835181   -5.209978   -3.768689
    149          1           0      -23.798454   -5.077772   -4.065683
    150          1           0      -24.659259   -4.402862   -5.457710
    151          1           0      -24.788767   -6.103688   -5.076264
    152          1           0      -22.243241   -1.083266   -4.160225
    153          1           0      -21.818081    0.601128   -4.490052
    154          1           0      -23.361444   -0.108720   -5.095622
    155          1           0      -22.761398    3.155271    0.270345
    156          1           0      -22.638697    7.422158    0.742966
    157          1           0      -22.400683    6.990054   -0.986673
    158          1           0      -21.133588    6.610332    0.211607
 ---------------------------------------------------------------------

 SCF Done:  E(RPBE1PBE) =  -4067.37037449     A.U. after   17 cycles

 Excitation energies and oscillator strengths:

 Excited State   1:      Singlet-A      1.8237 eV  679.85 nm  f=0.3603  <S**2>=0.000
     309 -> 316        0.15445
     312 -> 313        0.69681
     312 <- 313       -0.11765
 This state for optimization and/or second-order correction.
 Total Energy, E(TD-HF/TD-DFT) =  -4067.30335468
 Copying the excited state density for this state as the 1-particle RhoCI density.

 Excited State   2:      Singlet-A      1.8894 eV  656.20 nm  f=0.3611  <S**2>=0.000
     310 -> 315       -0.18736
     311 -> 314        0.68566

 Excited State   3:      Singlet-A      1.9678 eV  630.06 nm  f=0.0000  <S**2>=0.000
     311 -> 313        0.70711

 Excited State   4:      Singlet-A      2.0515 eV  604.37 nm  f=0.0000  <S**2>=0.000
     312 -> 314        0.70711

 Excited State   5:      Singlet-A      2.1350 eV  580.72 nm  f=0.0937  <S**2>=0.000
     310 -> 314        0.65947
     311 -> 315        0.23134

 The electronic state is 1-A.
 Alpha  occ. eigenvalues --  -46.91937 -46.91702 -19.25391 -19.24068 -19.20215
 Alpha  occ. eigenvalues --  -19.20196 -19.19883 -19.18981 -19.18915 -19.17850
 Alpha  occ. eigenvalues --  -14.41538 -14.41481 -14.41137 -14.40915 -14.39310
 Alpha  occ. eigenvalues --  -14.39016 -14.38146 -14.37915 -10.37057 -10.35695
 Alpha  occ. eigenvalues --  -10.33626 -10.32457 -10.32284 -10.30722 -10.29655
 Alpha  occ. eigenvalues --  -10.29159 -10.28805 -10.28652 -10.28359 -10.28206
 Alpha  occ. eigenvalues --  -10.28179 -10.28121 -10.28047 -10.28002 -10.27995
 Alpha  occ. eigenvalues --  -10.27853 -10.27852 -10.27778 -10.26943 -10.26934
 Alpha  occ. eigenvalues --  -10.26504 -10.26276 -10.26127 -10.25999 -10.25950
 Alpha  occ. eigenvalues --  -10.25939 -10.25924 -10.25859 -10.25783 -10.25758
 Alpha  occ. eigenvalues --  -10.25705 -10.25540 -10.25534 -10.25501 -10.25447
 Alpha  occ. eigenvalues --  -10.25431 -10.25384 -10.25317 -10.25183 -10.25104
 Alpha  occ. eigenvalues --  -10.24988 -10.24975 -10.24834 -10.24588 -10.24469
 Alpha  occ. eigenvalues --  -10.24262 -10.24178 -10.24009 -10.23941 -10.23912
 Alpha  occ. eigenvalues --  -10.23893 -10.23831 -10.23670 -10.23581 -10.23480
 Alpha  occ. eigenvalues --  -10.23396 -10.23347 -10.23331 -10.23286 -10.23258
 Alpha  occ. eigenvalues --  -10.23226 -10.23086 -10.22967 -10.22878 -10.22585
 Alpha  occ. eigenvalues --  -10.21378  -3.13981  -3.13876  -1.86833  -1.86696
 Alpha  occ. eigenvalues --   -1.86354  -1.86253  -1.86200  -1.86101  -1.10070
 Alpha  occ. eigenvalues --   -1.09132  -1.04881  -1.04603  -1.04220  -1.02605
 Alpha  occ. eigenvalues --   -1.01965  -1.01430  -0.99707  -0.99433  -0.99130
 Alpha  occ. eigenvalues --   -0.98586  -0.98153  -0.96842  -0.96682  -0.95295
 Alpha  occ. eigenvalues --   -0.86875  -0.86368  -0.83575  -0.83449  -0.83298
 Alpha  occ. eigenvalues --   -0.83104  -0.82882  -0.82102  -0.81999  -0.81617
 Alpha  occ. eigenvalues --   -0.81493  -0.81423  -0.80833  -0.80073  -0.78874
 Alpha  occ. eigenvalues --   -0.78192  -0.78125  -0.77785  -0.76798  -0.76451
 Alpha  occ. eigenvalues --   -0.75935  -0.75786  -0.75240  -0.75069  -0.74709
 Alpha  occ. eigenvalues --   -0.74230  -0.72731  -0.72541  -0.71520  -0.71355
 Alpha  occ. eigenvalues --   -0.71202  -0.70811  -0.70320  -0.69813  -0.69779
 Alpha  occ. eigenvalues --   -0.69426  -0.67665  -0.67025  -0.66460  -0.66162
 Alpha  occ. eigenvalues --   -0.64219  -0.64121  -0.63176  -0.63002  -0.61967
 Alpha  occ. eigenvalues --   -0.61775  -0.60978  -0.60927  -0.60430  -0.59841
 Alpha  occ. eigenvalues --   -0.59602  -0.59068  -0.59067  -0.59012  -0.58547
 Alpha  occ. eigenvalues --   -0.58071  -0.56144  -0.55744  -0.54526  -0.54444
 Alpha  occ. eigenvalues --   -0.54297  -0.53769  -0.53750  -0.53117  -0.53094
 Alpha  occ. eigenvalues --   -0.52682  -0.52218  -0.52157  -0.51512  -0.51339
 Alpha  occ. eigenvalues --   -0.50934  -0.50547  -0.50129  -0.50057  -0.49863
 Alpha  occ. eigenvalues --   -0.49754  -0.49445  -0.49290  -0.48784  -0.48049
 Alpha  occ. eigenvalues --   -0.47786  -0.47750  -0.47675  -0.47635  -0.47538
 Alpha  occ. eigenvalues --   -0.47416  -0.47393  -0.47005  -0.46791  -0.46634
 Alpha  occ. eigenvalues --   -0.46476  -0.46326  -0.46100  -0.46015  -0.45948
 Alpha  occ. eigenvalues --   -0.45731  -0.45364  -0.45056  -0.45045  -0.44929
 Alpha  occ. eigenvalues --   -0.44857  -0.44528  -0.44122  -0.44035  -0.44022
 Alpha  occ. eigenvalues --   -0.43819  -0.43729  -0.43579  -0.43355  -0.43169
 Alpha  occ. eigenvalues --   -0.42985  -0.42962  -0.42725  -0.42685  -0.42643
 Alpha  occ. eigenvalues --   -0.42484  -0.42323  -0.42176  -0.42048  -0.41964
 Alpha  occ. eigenvalues --   -0.41774  -0.41660  -0.41313  -0.41085  -0.41055
 Alpha  occ. eigenvalues --   -0.41031  -0.40923  -0.40688  -0.40524  -0.40396
 Alpha  occ. eigenvalues --   -0.40315  -0.40253  -0.39869  -0.39765  -0.39363
 Alpha  occ. eigenvalues --   -0.39149  -0.39143  -0.38930  -0.38668  -0.38542
 Alpha  occ. eigenvalues --   -0.38511  -0.38298  -0.38209  -0.38043  -0.37974
 Alpha  occ. eigenvalues --   -0.37957  -0.37833  -0.37574  -0.37533  -0.37408
 Alpha  occ. eigenvalues --   -0.37097  -0.36992  -0.36871  -0.36769  -0.36585
 Alpha  occ. eigenvalues --   -0.36529  -0.36455  -0.36368  -0.36298  -0.36044
 Alpha  occ. eigenvalues --   -0.35957  -0.35864  -0.35749  -0.35473  -0.35127
 Alpha  occ. eigenvalues --   -0.35091  -0.34915  -0.34864  -0.33988  -0.33974
 Alpha  occ. eigenvalues --   -0.33668  -0.33192  -0.33013  -0.32762  -0.32539
 Alpha  occ. eigenvalues --   -0.32383  -0.31902  -0.31612  -0.31470  -0.30983
 Alpha  occ. eigenvalues --   -0.30830  -0.30416  -0.29400  -0.29287  -0.29092
 Alpha  occ. eigenvalues --   -0.29036  -0.28699  -0.28448  -0.26979  -0.26668
 Alpha  occ. eigenvalues --   -0.26374  -0.25777  -0.25642  -0.25358  -0.25303
 Alpha  occ. eigenvalues --   -0.25015  -0.24784  -0.24264  -0.21151  -0.20590
 Alpha  occ. eigenvalues --   -0.18896  -0.18829
 Alpha virt. eigenvalues --   -0.11413  -0.11042  -0.05509  -0.05119  -0.04195
 Alpha virt. eigenvalues --   -0.03653  -0.02006  -0.01764  -0.00494  -0.00022
 Alpha virt. eigenvalues --    0.00252   0.00394   0.00742   0.01323   0.02274

 Mulliken charges:
               1
     1  Mg  12.002545
     2  C    5.975448
     3  C    6.003479
     4  C    6.032498
     5  C    6.016507
     6  N    6.978613
     7  C    6.031872
     8  C    5.997008
     9  C    6.006765
    10  C    5.976685
    11  C    6.003214
    12  C    5.994125
    13  C    6.000545
    14  H    0.998664
    15  N    7.007159
    16  C    5.964663
    17  C    5.980401
    18  C    5.987125
    19  C    5.961866
    20  C    6.003189
    21  C    5.987726
    22  O    7.970836
    23  C    6.004960
    24  N    7.016549
    25  C    5.958268
    26  C    6.014721
    27  C    5.992505
    28  C    6.017854
    29  C    5.999550
    30  C    5.992294
    31  C    5.994594
    32  N    6.998061
    33  C    6.027400
    34  C    6.030221
    35  C    6.000250
    36  C    6.027672
    37  C    5.996989
    38  C    6.014813
    39  O    8.028559
    40  C    6.003861
    41  C    6.003174
    42  O    8.003548
    43  O    8.001568
    44  C    5.999463
    45  H    0.985932
    46  H    0.995859
    47  H    1.015920
    48  H    0.998513
    49  H    0.998630
    50  H    0.984167
    51  H    1.000544
    52  H    0.996664
    53  H    1.011851
    54  H    0.994350
    55  H    0.996270
    56  H    1.005421
    57  H    0.985644
    58  H    0.981517
    59  H    0.982652
    60  H    0.987039
    61  H    0.989354
    62  H    0.996025
    63  H    0.999180
    64  H    1.002903
    65  H    1.000499
    66  H    0.990795
    67  H    1.003450
    68  H    1.009742
    69  H    0.993562
    70  H    0.997381
    71  H    1.013324
    72  H    1.006753
    73  H    1.017473
    74  H    1.018795
    75  H    1.016181
    76  H    1.008087
    77  H    0.999078
    78  H    1.004298
    79  H    1.004342
    80  Mg  11.999994
    81  C    5.999983
    82  C    5.999979
    83  C    6.000009
    84  C    6.000021
    85  N    6.999996
    86  C    5.999990
    87  C    6.000009
    88  C    5.999990
    89  C    6.000033
    90  C    6.000002
    91  C    6.000005
    92  C    5.999999
    93  H    1.000006
    94  N    7.000002
    95  C    6.000035
    96  C    6.000004
    97  C    6.000012
    98  C    6.000012
    99  C    5.999996
   100  C    6.000019
   101  O    8.000025
   102  C    5.999994
   103  N    7.000010
   104  C    6.000016
   105  C    5.999988
   106  C    6.000014
   107  C    5.999966
   108  C    5.999996
   109  C    6.000006
   110  C    6.000002
   111  N    6.999998
   112  C    5.999971
   113  C    5.999989
   114  C    6.000000
   115  C    5.999997
   116  C    5.999989
   117  C    5.999979
   118  O    7.999969
   119  C    6.000002
   120  C    5.999992
   121  O    7.999980
   122  O    8.000008
   123  C    6.000003
   124  H    1.000011
   125  H    1.000008
   126  H    0.999987
   127  H    1.000007
   128  H    0.999992
   129  H    1.000017
   130  H    1.000013
   131  H    1.000000
   132  H    0.999984
   133  H    0.999997
   134  H    0.999985
   135  H    0.999989
   136  H    1.000014
   137  H    1.000032
   138  H    1.000007
   139  H    1.000000
   140  H    1.000012
   141  H    1.000024
   142  H    0.999988
   143  H    1.000014
   144  H    1.000014
   145  H    1.000023
   146  H    0.999996
   147  H    0.999985
   148  H    0.999985
   149  H    1.000018
   150  H    0.999988
   151  H    0.999996
   152  H    0.999995
   153  H    0.999978
   154  H    0.999962
   155  H    1.000012
   156  H    0.999992
   157  H    0.999983
   158  H    1.000004
 Sum of Mulliken charges = 624.00000

 Dipole moment (field-independent basis, Debye):
    X=              2.8156    Y=              4.5629    Z=             -8.6855  Tot=             10.2072
 Quadrupole moment (field-independent basis, Debye-Ang):
   XX=            147.3465   YY=             -5.8767   ZZ=             -3.1026
   XY=            116.4735   XZ=           -227.1753   YZ=              8.8044

 Normal termination of Gaussian 16 at Thu Oct 14 14:16:34 2021.
