 Gaussian 16, Revision A.03,
 Gaussian 16:  ES64L-G16RevA.03 25-Dec-2016

 --------------------------------------------------------
 #p PBE1PBE/Def2SVP td=(nstates=5) density=(transition=1)
 --------------------------------------------------------

 --------------------------------
 TDDFT excited states in gaussian
 --------------------------------
 Symbolic Z-matrix:
 Charge =  0 Multiplicity = 1

                         Standard orientation:
 ---------------------------------------------------------------------
 Center     Atomic      Atomic             Coordinates (Angstroms)
 Number     Number       Type             X           Y           Z
 ---------------------------------------------------------------------
      1         12           0      -26.362615   -0.476390   -0.050797
      2          6           0      -24.848839    2.726225    0.085098
      3          6           0      -23.497874   -1.752325    1.250307
      4          6           0      -28.091930   -3.335836    0.575638
      5          6           0      -29.347132    1.083270   -0.871077
      6          7           0      -24.487967    0.529846    0.710618
      7          6           0      -24.010155    1.807982    0.591687
      8          6           0      -22.601819    1.920535    1.044313
      9          6           0      -22.111972    0.397131    1.088705
     10          6           0      -23.415415   -0.323642    1.030965
     11          6           0      -21.169349    0.071028   -0.058511
     12          6           0      -22.609017    2.699572    2.368953
     13          6           0      -21.685413    3.985943    2.469548
     14          1           0      -20.631994    4.139881    3.607668
     15          7           0      -25.914151   -2.325006    0.744220
     16          6           0      -24.617292   -2.672870    1.146913
     17          6           0      -24.607682   -4.080098    1.412558
     18          6           0      -25.940454   -4.592423    1.261344
     19          6           0      -26.701011   -3.412529    0.769465
     20          6           0      -23.313216   -4.797178    1.773872
     21          6           0      -26.451781   -5.996459    1.494760
     22          8           0      -25.535661   -6.829142    1.755225
     23          6           0      -27.922031   -6.498535    1.558776
     24          7           0      -28.456500   -1.081350   -0.138499
     25          6           0      -28.902765   -2.326283    0.138806
     26          6           0      -30.442020   -2.468032    0.003463
     27          6           0      -30.825222   -1.061876   -0.574080
     28          6           0      -29.435895   -0.273139   -0.471320
     29          6           0      -30.768865   -3.630677   -0.916521
     30          6           0      -31.905050   -0.334982    0.167785
     31          6           0      -33.185132   -0.189024   -0.609398
     32          7           0      -26.993915    1.395752   -0.507345
     33          6           0      -28.228612    1.938223   -0.885517
     34          6           0      -28.111489    3.238105   -1.312904
     35          6           0      -26.785532    3.588333   -0.986099
     36          6           0      -26.180195    2.462928   -0.431612
     37          6           0      -29.191467    3.970413   -2.080838
     38          6           0      -25.781495    4.679593   -1.098349
     39          8           0      -25.897569    5.765967   -1.574584
     40          6           0      -24.545173    4.105632   -0.308188
     41          6           0      -23.305618    4.504953   -1.078698
     42          8           0      -22.538413    5.409791   -0.749897
     43          8           0      -23.127824    3.656700   -2.198567
     44          6           0      -21.874966    3.921425   -2.905321
     45          1           0      -22.525857   -2.206521    1.454877
     46          1           0      -28.668544   -4.259293    0.667244
     47          1           0      -30.268483    1.666886   -0.912082
     48          1           0      -22.029048    2.486039    0.309195
     49          1           0      -21.572976    0.241958    2.022940
     50          1           0      -21.439630    0.565095   -0.990747
     51          1           0      -21.256048   -0.993356   -0.279381
     52          1           0      -20.118410    0.244292    0.172911
     53          1           0      -22.314899    1.999956    3.151208
     54          1           0      -23.605638    2.979814    2.710003
     55          1           0      -22.449349    4.752162    2.604021
     56          1           0      -21.278537    4.245423    1.492903
     57          1           0      -22.793344   -4.284111    2.582958
     58          1           0      -22.683733   -4.747633    0.885473
     59          1           0      -23.392058   -5.809966    2.171405
     60          1           0      -28.257084   -6.413208    0.525556
     61          1           0      -28.487159   -5.833314    2.211728
     62          1           0      -28.001960   -7.511737    1.953543
     63          1           0      -30.954795   -2.666599    0.944258
     64          1           0      -31.005729   -1.137996   -1.646024
     65          1           0      -30.214069   -4.499025   -0.560770
     66          1           0      -30.441543   -3.368325   -1.923080
     67          1           0      -31.810491   -3.891077   -1.100577
     68          1           0      -31.641714    0.689607    0.430423
     69          1           0      -32.197940   -0.745017    1.134119
     70          1           0      -33.993536   -0.590215    0.000610
     71          1           0      -33.199991   -0.793149   -1.516544
     72          1           0      -33.393515    0.828611   -0.941414
     73          1           0      -28.697444    4.817337   -2.558122
     74          1           0      -29.988165    4.332363   -1.431379
     75          1           0      -29.573528    3.234636   -2.788133
     76          1           0      -24.516812    4.759025    0.564573
     77          1           0      -21.529228    3.024180   -3.418838
     78          1           0      -21.058420    4.110092   -2.209803
     79          1           0      -21.939942    4.768921   -3.588247
     80         12           0       26.211461    0.474806    0.427802
     81          6           0       25.315692   -2.110739   -1.943048
     82          6           0       26.771151    2.345956   -2.145703
     83          6           0       27.246989    2.593680    2.730105
     84          6           0       26.309926   -2.003766    3.084234
     85          7           0       25.926255    0.149349   -1.828416
     86          6           0       25.571695   -0.939316   -2.597795
     87          6           0       25.636865   -0.594503   -4.042001
     88          6           0       26.559935    0.650650   -4.076053
     89          6           0       26.465752    1.074622   -2.591340
     90          6           0       28.022566    0.349581   -4.470215
     91          6           0       24.218526   -0.194563   -4.551207
     92          6           0       23.780784   -0.785458   -5.947212
     93          1           0       22.249930   -0.844746   -6.335796
     94          7           0       26.898612    2.337650    0.261578
     95          6           0       26.964115    3.005840   -0.859101
     96          6           0       27.356291    4.368232   -0.551257
     97          6           0       27.357624    4.421027    0.862566
     98          6           0       27.186168    3.072380    1.330548
     99          6           0       27.490844    5.423755   -1.663809
    100          6           0       27.570176    5.645343    1.708662
    101          8           0       27.580570    5.558099    2.900150
    102          6           0       27.665190    6.981385    1.046962
    103          7           0       26.983185    0.190302    2.609137
    104          6           0       27.178345    1.322676    3.281652
    105          6           0       27.212445    1.102325    4.747388
    106          6           0       27.101015   -0.454035    4.808479
    107          6           0       26.772568   -0.843721    3.391443
    108          6           0       28.397059    1.738533    5.559901
    109          6           0       26.028015   -0.906793    5.874114
    110          6           0       26.494137   -1.515426    7.226051
    111          7           0       25.913919   -1.530453    0.621706
    112          6           0       25.898016   -2.412080    1.725576
    113          6           0       25.496099   -3.759516    1.271779
    114          6           0       25.259801   -3.647095   -0.091804
    115          6           0       25.551642   -2.347399   -0.469585
    116          6           0       25.512929   -5.037189    2.145481
    117          6           0       24.831796   -4.456685   -1.277699
    118          8           0       24.468634   -5.599772   -1.424764
    119          6           0       25.018169   -3.522373   -2.575799
    120          6           0       23.915229   -3.622987   -3.459435
    121          8           0       22.949322   -2.849626   -3.396360
    122          8           0       23.943889   -4.663949   -4.382244
    123          6           0       22.912563   -4.700904   -5.464124
    124          1           0       26.953141    3.093882   -2.919457
    125          1           0       27.528038    3.311186    3.503706
    126          1           0       26.325399   -2.758036    3.872457
    127          1           0       26.155188   -1.382695   -4.588701
    128          1           0       26.262265    1.458666   -4.744054
    129          1           0       28.294250    0.894669   -5.374678
    130          1           0       28.087784   -0.723705   -4.646400
    131          1           0       28.757233    0.569609   -3.695140
    132          1           0       24.252018    0.891938   -4.633857
    133          1           0       23.530374   -0.461267   -3.749330
    134          1           0       24.216899   -1.780300   -6.033579
    135          1           0       24.290019   -0.119897   -6.645227
    136          1           0       26.718137    6.179232   -1.515601
    137          1           0       27.471301    5.045934   -2.685470
    138          1           0       28.399198    6.007672   -1.518152
    139          1           0       26.752099    7.249664    0.516203
    140          1           0       28.389865    7.079041    0.238700
    141          1           0       27.787596    7.743990    1.816492
    142          1           0       26.296057    1.521357    5.163038
    143          1           0       28.089368   -0.878161    4.986935
    144          1           0       28.951298    2.356834    4.854533
    145          1           0       29.032877    1.061724    6.131750
    146          1           0       27.974821    2.368277    6.343179
    147          1           0       25.397664   -1.679184    5.432624
    148          1           0       25.315112   -0.083061    5.910480
    149          1           0       25.937106   -1.063581    8.046652
    150          1           0       27.566085   -1.356851    7.345099
    151          1           0       26.287984   -2.585979    7.257010
    152          1           0       25.274635   -4.742041    3.166959
    153          1           0       26.530975   -5.424840    2.189636
    154          1           0       24.808859   -5.788619    1.787323
    155          1           0       25.920967   -3.846728   -3.092506
    156          1           0       22.997524   -3.831136   -6.117105
    157          1           0       21.930021   -4.960189   -5.071640
    158          1           0       23.234295   -5.467482   -6.168955
 ---------------------------------------------------------------------

 SCF Done:  E(RPBE1PBE) =  -4067.34466879     A.U. after   17 cycles

 Excitation energies and oscillator strengths:

 Excited State   1:      Singlet-A      1.8485 eV  670.72 nm  f=0.3388  <S**2>=0.000
     309 -> 315        0.16637
     311 -> 313        0.69422
     311 <- 313       -0.11258
 This state for optimization and/or second-order correction.
 Total Energy, E(TD-HF/TD-DFT) =  -4067.27673697
 Copying the excited state density for this state as the 1-particle RhoCI density.

 Excited State   2:      Singlet-A      1.8807 eV  659.24 nm  f=0.3692  <S**2>=0.000
     310 -> 316       -0.15931
     312 -> 314        0.69578
     312 <- 314       -0.11003

 Excited State   3:      Singlet-A      1.9404 eV  638.95 nm  f=0.0000  <S**2>=0.000
     312 -> 313        0.70711

 Excited State   4:      Singlet-A      2.0662 eV  600.05 nm  f=0.0000  <S**2>=0.000
     311 -> 314        0.70711

 Excited State   5:      Singlet-A      2.2338 eV  555.04 nm  f=0.1562  <S**2>=0.000
     309 -> 313        0.65765
     311 -> 315       -0.24164

 The electronic state is 1-A.
 Alpha  occ. eigenvalues --  -46.92838 -46.92416 -19.26290 -19.24668 -19.21266
 Alpha  occ. eigenvalues --  -19.20101 -19.20077 -19.19234 -19.18798 -19.18522
 Alpha  occ. eigenvalues --  -14.41929 -14.41686 -14.41192 -14.39740 -14.39708
 Alpha  occ. eigenvalues --  -14.39688 -14.39235 -14.38731 -10.37420 -10.35522
 Alpha  occ. eigenvalues --  -10.33335 -10.32836 -10.32680 -10.32025 -10.29686
 Alpha  occ. eigenvalues --  -10.28912 -10.28902 -10.28893 -10.28537 -10.28510
 Alpha  occ. eigenvalues --  -10.28510 -10.28303 -10.28284 -10.28284 -10.28008
 Alpha  occ. eigenvalues --  -10.27943 -10.27928 -10.27522 -10.27467 -10.26794
 Alpha  occ. eigenvalues --  -10.26660 -10.26653 -10.26645 -10.26479 -10.26330
 Alpha  occ. eigenvalues --  -10.26189 -10.26185 -10.26127 -10.26030 -10.26018
 Alpha  occ. eigenvalues --  -10.25991 -10.25969 -10.25947 -10.25822 -10.25821
 Alpha  occ. eigenvalues --  -10.25758 -10.25436 -10.25413 -10.25340 -10.25303
 Alpha  occ. eigenvalues --  -10.25042 -10.24683 -10.24673 -10.24645 -10.24624
 Alpha  occ. eigenvalues --  -10.24609 -10.24526 -10.24437 -10.24351 -10.24058
 Alpha  occ. eigenvalues --  -10.23962 -10.23934 -10.23772 -10.23715 -10.23713
 Alpha  occ. eigenvalues --  -10.23660 -10.23569 -10.23476 -10.23414 -10.23262
 Alpha  occ. eigenvalues --  -10.23177 -10.23142 -10.23015 -10.22903 -10.22805
 Alpha  occ. eigenvalues --  -10.22623  -3.14941  -3.14558  -1.87767  -1.87379
 Alpha  occ. eigenvalues --   -1.87321  -1.87166  -1.86938  -1.86786  -1.10346
 Alpha  occ. eigenvalues --   -1.08963  -1.06858  -1.06706  -1.05818  -1.02804
 Alpha  occ. eigenvalues --   -1.02314  -1.00906  -1.00499  -0.99883  -0.99619
 Alpha  occ. eigenvalues --   -0.99482  -0.98954  -0.97997  -0.97408  -0.95931
 Alpha  occ. eigenvalues --   -0.87698  -0.85711  -0.84203  -0.83639  -0.83548
 Alpha  occ. eigenvalues --   -0.83367  -0.83249  -0.82300  -0.82195  -0.81975
 Alpha  occ. eigenvalues --   -0.81785  -0.81420  -0.80241  -0.79734  -0.79106
 Alpha  occ. eigenvalues --   -0.78664  -0.78621  -0.77396  -0.76940  -0.76331
 Alpha  occ. eigenvalues --   -0.76103  -0.76060  -0.75324  -0.75021  -0.74836
 Alpha  occ. eigenvalues --   -0.74723  -0.72941  -0.72148  -0.71755  -0.71460
 Alpha  occ. eigenvalues --   -0.71190  -0.71077  -0.70806  -0.70517  -0.69873
 Alpha  occ. eigenvalues --   -0.69745  -0.67994  -0.67371  -0.66678  -0.65540
 Alpha  occ. eigenvalues --   -0.63785  -0.63522  -0.63383  -0.63221  -0.62407
 Alpha  occ. eigenvalues --   -0.62127  -0.61693  -0.61686  -0.60701  -0.60488
 Alpha  occ. eigenvalues --   -0.60159  -0.60078  -0.59948  -0.59608  -0.59507
 Alpha  occ. eigenvalues --   -0.58830  -0.57689  -0.55891  -0.55647  -0.55083
 Alpha  occ. eigenvalues --   -0.54693  -0.54633  -0.54216  -0.53665  -0.53649
 Alpha  occ. eigenvalues --   -0.52723  -0.52570  -0.52206  -0.51802  -0.51387
 Alpha  occ. eigenvalues --   -0.51062  -0.50838  -0.50345  -0.50335  -0.50217
 Alpha  occ. eigenvalues --   -0.50128  -0.49437  -0.48986  -0.48569  -0.48456
 Alpha  occ. eigenvalues --   -0.48446  -0.48234  -0.47945  -0.47815  -0.47396
 Alpha  occ. eigenvalues --   -0.47371  -0.47112  -0.47010  -0.46842  -0.46663
 Alpha  occ. eigenvalues --   -0.46521  -0.46361  -0.46206  -0.45978  -0.45738
 Alpha  occ. eigenvalues --   -0.45527  -0.45155  -0.44964  -0.44928  -0.44840
 Alpha  occ. eigenvalues --   -0.44679  -0.44635  -0.44503  -0.44456  -0.44296
 Alpha  occ. eigenvalues --   -0.44281  -0.44040  -0.43859  -0.43591  -0.43546
 Alpha  occ. eigenvalues --   -0.43390  -0.43304  -0.43005  -0.43005  -0.42654
 Alpha  occ. eigenvalues --   -0.42497  -0.42426  -0.42377  -0.42236  -0.42120
 Alpha  occ. eigenvalues --   -0.41892  -0.41635  -0.41331  -0.41175  -0.41141
 Alpha  occ. eigenvalues --   -0.40954  -0.40826  -0.40656  -0.40604  -0.40482
 Alpha  occ. eigenvalues --   -0.40384  -0.40237  -0.40213  -0.40086  -0.39949
 Alpha  occ. eigenvalues --   -0.39683  -0.39680  -0.39626  -0.39397  -0.39082
 Alpha  occ. eigenvalues --   -0.38950  -0.38803  -0.38681  -0.38492  -0.38269
 Alpha  occ. eigenvalues --   -0.38185  -0.38143  -0.37952  -0.37669  -0.37573
 Alpha  occ. eigenvalues --   -0.37324  -0.37323  -0.37269  -0.37218  -0.37161
 Alpha  occ. eigenvalues --   -0.36908  -0.36740  -0.36569  -0.36408  -0.36237
 Alpha  occ. eigenvalues --   -0.36214  -0.36015  -0.35919  -0.35434  -0.35306
 Alpha  occ. eigenvalues --   -0.35113  -0.35058  -0.34850  -0.34778  -0.34053
 Alpha  occ. eigenvalues --   -0.33765  -0.33299  -0.33202  -0.32772  -0.32663
 Alpha  occ. eigenvalues --   -0.32392  -0.32203  -0.32067  -0.31553  -0.31457
 Alpha  occ. eigenvalues --   -0.31190  -0.30699  -0.30303  -0.29858  -0.28856
 Alpha  occ. eigenvalues --   -0.28803  -0.28357  -0.27715  -0.27425  -0.27251
 Alpha  occ. eigenvalues --   -0.26582  -0.26164  -0.26145  -0.26026  -0.25673
 Alpha  occ. eigenvalues --   -0.25505  -0.25490  -0.25102  -0.21381  -0.20536
 Alpha  occ. eigenvalues --   -0.19278  -0.19128
 Alpha virt. eigenvalues --   -0.11747  -0.11436  -0.05370  -0.04034  -0.03984
 Alpha virt. eigenvalues --   -0.03329  -0.02117  -0.01810  -0.00953  -0.00481
 Alpha virt. eigenvalues --   -0.00471  -0.00062   0.00718   0.01025   0.01393

 Mulliken charges:
               1
     1  Mg  12.001218
     2  C    5.977376
     3  C    5.993217
     4  C    6.033149
     5  C    6.018995
     6  N    6.973379
     7  C    6.026223
     8  C    5.990589
     9  C    6.015033
    10  C    5.976608
    11  C    6.004093
    12  C    5.995780
    13  C    6.000297
    14  H    1.004868
    15  N    7.006091
    16  C    5.966770
    17  C    5.979797
    18  C    5.992570
    19  C    5.959806
    20  C    6.002513
    21  C    5.988698
    22  O    7.981102
    23  C    5.997665
    24  N    7.017403
    25  C    5.963540
    26  C    6.009838
    27  C    5.994069
    28  C    6.018667
    29  C    6.002914
    30  C    5.994884
    31  C    5.998186
    32  N    7.000667
    33  C    6.022289
    34  C    6.027657
    35  C    6.003233
    36  C    6.032651
    37  C    6.000806
    38  C    6.019099
    39  O    8.024674
    40  C    6.002281
    41  C    6.003447
    42  O    8.006057
    43  O    7.998382
    44  C    5.997297
    45  H    0.985552
    46  H    0.998635
    47  H    1.014601
    48  H    0.997998
    49  H    0.995171
    50  H    0.986093
    51  H    1.004441
    52  H    0.990076
    53  H    1.009659
    54  H    0.996454
    55  H    0.995505
    56  H    0.998452
    57  H    0.984175
    58  H    0.983341
    59  H    0.986463
    60  H    0.990613
    61  H    0.990580
    62  H    0.990248
    63  H    1.000044
    64  H    1.001776
    65  H    1.008198
    66  H    0.995716
    67  H    0.994444
    68  H    0.995476
    69  H    1.010036
    70  H    1.006701
    71  H    1.004909
    72  H    0.998144
    73  H    1.013304
    74  H    1.018528
    75  H    1.014409
    76  H    1.004741
    77  H    1.006317
    78  H    1.005209
    79  H    1.000110
    80  Mg  12.000019
    81  C    5.999812
    82  C    6.000040
    83  C    6.000097
    84  C    5.999951
    85  N    6.999892
    86  C    6.000240
    87  C    5.999959
    88  C    6.000046
    89  C    5.999808
    90  C    6.000039
    91  C    5.999990
    92  C    5.999979
    93  H    1.000028
    94  N    7.000076
    95  C    5.999775
    96  C    5.999824
    97  C    5.999920
    98  C    5.999799
    99  C    6.000049
   100  C    5.999895
   101  O    7.999819
   102  C    6.000047
   103  N    6.999992
   104  C    5.999829
   105  C    6.000083
   106  C    5.999936
   107  C    6.000129
   108  C    5.999997
   109  C    5.999975
   110  C    6.000003
   111  N    7.000042
   112  C    6.000234
   113  C    6.000230
   114  C    5.999951
   115  C    6.000238
   116  C    5.999984
   117  C    6.000168
   118  O    8.000179
   119  C    6.000035
   120  C    6.000030
   121  O    8.000068
   122  O    8.000000
   123  C    5.999984
   124  H    0.999890
   125  H    0.999944
   126  H    1.000089
   127  H    0.999989
   128  H    0.999979
   129  H    0.999962
   130  H    0.999907
   131  H    1.000008
   132  H    1.000078
   133  H    0.999983
   134  H    0.999982
   135  H    1.000020
   136  H    0.999861
   137  H    0.999875
   138  H    0.999854
   139  H    0.999945
   140  H    0.999949
   141  H    0.999889
   142  H    0.999991
   143  H    1.000018
   144  H    1.000030
   145  H    0.999943
   146  H    0.999984
   147  H    0.999969
   148  H    1.000057
   149  H    1.000037
   150  H    1.000014
   151  H    0.999997
   152  H    1.000134
   153  H    1.000152
   154  H    1.000139
   155  H    1.000047
   156  H    1.000023
   157  H    1.000041
   158  H    1.000029
 Sum of Mulliken charges = 624.00000

 Dipole moment (field-independent basis, Debye):
    X=             -4.2199    Y=              8.3336    Z=             -3.0648  Tot=              9.8311
 Quadrupole moment (field-independent basis, Debye-Ang):
   XX=            221.9465   YY=             -8.0905   ZZ=              0.1965
   XY=           -221.1972   XZ=             80.8545   YZ=              1.7332

 Normal termination of Gaussian 16 at Thu Oct 14 23:08:33 2021.
