 Gaussian 16, Revision A.03,
 Gaussian 16:  ES64L-G16RevA.03 25-Dec-2016

 --------------------------------------------------------
 #p PBE1PBE/Def2SVP td=(nstates=5) density=(transition=1)
 --------------------------------------------------------

 --------------------------------
 TDDFT excited states in gaussian
 --------------------------------
 Symbolic Z-matrix:
 Charge =  0 Multiplicity = 1

                         Standard orientation:
 ---------------------------------------------------------------------
 Center     Atomic      Atomic             Coordinates (Angstroms)
 Number     Number       Type             X           Y           Z
 ---------------------------------------------------------------------
      1         12           0        4.972752    0.701225    0.287247
      2          6           0        2.981347   -2.178102    1.127474
      3          6           0        7.538508   -1.461976   -0.338293
      4          6           0        6.902876    3.401414   -0.197591
      5          6           0        2.442034    2.662755    1.426994
      6          7           0        5.194551   -1.666218    0.347864
      7          6           0        4.209949   -2.550548    0.680960
      8          6           0        4.722870   -3.908189    0.382530
      9          6           0        6.226825   -3.713272    0.044157
     10          6           0        6.425020   -2.172755    0.043845
     11          6           0        7.154271   -4.390560    1.102732
     12          6           0        3.973334   -4.677583   -0.676235
     13          6           0        4.279394   -6.152962   -0.877548
     14          1           0        3.129902   -7.069927   -0.919659
     15          7           0        6.888136    0.929165   -0.300698
     16          6           0        7.850830   -0.110941   -0.419794
     17          6           0        9.078759    0.513769   -0.946616
     18          6           0        8.897083    1.887466   -0.809324
     19          6           0        7.516395    2.127164   -0.351718
     20          6           0       10.283353   -0.321433   -1.327260
     21          6           0        9.861575    3.046483   -1.141523
     22          8           0        9.690653    4.223994   -0.774133
     23          6           0       11.035511    2.718739   -1.970863
     24          7           0        4.753249    2.780474    0.630547
     25          6           0        5.635886    3.719774    0.358929
     26          6           0        5.145270    5.150051    0.714835
     27          6           0        3.662533    4.881861    0.981788
     28          6           0        3.600321    3.371653    0.970623
     29          6           0        5.896215    5.722269    1.964243
     30          6           0        2.671833    5.503737    0.023580
     31          6           0        1.414874    6.137733    0.645445
     32          7           0        3.084019    0.324383    1.012745
     33          6           0        2.159281    1.257168    1.428722
     34          6           0        0.877221    0.607190    1.836290
     35          6           0        1.247652   -0.717909    1.725963
     36          6           0        2.569783   -0.860637    1.287909
     37          6           0       -0.445792    1.245271    2.114655
     38          6           0        0.724367   -2.062603    1.916863
     39          8           0       -0.410121   -2.382836    2.253156
     40          6           0        1.819671   -3.085230    1.536871
     41          6           0        1.915584   -4.010075    2.637320
     42          8           0        2.467222   -3.808701    3.746042
     43          8           0        1.463195   -5.238314    2.261503
     44          6           0        1.724727   -6.368973    3.125165
     45          1           0        8.341731   -2.143777   -0.624513
     46          1           0        7.568347    4.267023   -0.193767
     47          1           0        1.801082    3.353191    1.978857
     48          1           0        4.627532   -4.415349    1.341740
     49          1           0        6.492319   -4.131814   -0.926790
     50          1           0        7.965361   -5.071944    0.843989
     51          1           0        6.467448   -4.961038    1.727776
     52          1           0        7.579885   -3.714158    1.844457
     53          1           0        4.176170   -4.279594   -1.670643
     54          1           0        2.907109   -4.453152   -0.664883
     55          1           0        4.915844   -6.526534   -0.076779
     56          1           0        4.617623   -6.234396   -1.910213
     57          1           0       11.230087    0.055869   -0.941250
     58          1           0       10.406720   -0.458456   -2.401364
     59          1           0       10.286142   -1.333821   -0.922574
     60          1           0       10.692595    2.181108   -2.854980
     61          1           0       11.602515    2.058305   -1.315712
     62          1           0       11.439367    3.669034   -2.318118
     63          1           0        5.305624    5.754516   -0.178574
     64          1           0        3.295104    5.160288    1.969088
     65          1           0        5.230846    5.822146    2.821293
     66          1           0        6.272231    6.727530    1.773999
     67          1           0        6.678091    4.995811    2.186191
     68          1           0        2.348988    4.796934   -0.740155
     69          1           0        3.289946    6.126688   -0.622113
     70          1           0        1.095259    6.927280   -0.033979
     71          1           0        1.554932    6.434195    1.685419
     72          1           0        0.735824    5.285392    0.653351
     73          1           0       -1.151773    1.193509    1.285583
     74          1           0       -0.208581    2.236144    2.500907
     75          1           0       -0.861478    0.819628    3.028810
     76          1           0        1.370001   -3.675490    0.738490
     77          1           0        2.375004   -6.152756    3.973221
     78          1           0        2.075719   -7.222233    2.545418
     79          1           0        0.811289   -6.759404    3.574587
     80         12           0       -4.982557    0.534115   -0.365224
     81          6           0       -2.853534   -2.147290   -1.001512
     82          6           0       -7.532862   -1.678799    0.293416
     83          6           0       -6.983005    3.236577   -0.053371
     84          6           0       -2.374693    2.719691   -1.457017
     85          7           0       -5.158209   -1.631287   -0.473287
     86          6           0       -4.174892   -2.538408   -0.721574
     87          6           0       -4.672255   -3.974738   -0.513557
     88          6           0       -6.223572   -3.737545   -0.242465
     89          6           0       -6.295933   -2.211815   -0.120835
     90          6           0       -7.090486   -4.252088   -1.385300
     91          6           0       -4.089416   -4.729383    0.734023
     92          6           0       -4.008649   -6.231950    0.658586
     93          1           0       -4.758710   -6.945399   -0.375401
     94          7           0       -6.922006    0.738377    0.140870
     95          6           0       -7.822614   -0.321401    0.368363
     96          6           0       -9.034696    0.279774    0.859776
     97          6           0       -8.910810    1.691865    0.829187
     98          6           0       -7.556384    1.955375    0.283860
     99          6           0      -10.302918   -0.505435    1.117562
    100          6           0       -9.831521    2.757229    1.255538
    101          8           0       -9.666576    3.927715    0.985134
    102          6           0      -11.189806    2.399654    1.961025
    103          7           0       -4.700937    2.751631   -0.538544
    104          6           0       -5.677010    3.595271   -0.382792
    105          6           0       -5.217612    5.057076   -0.666729
    106          6           0       -3.751464    4.928779   -1.038104
    107          6           0       -3.549549    3.371268   -1.080716
    108          6           0       -6.188689    5.751133   -1.733739
    109          6           0       -2.813012    5.681927   -0.071686
    110          6           0       -2.357622    7.129209   -0.492265
    111          7           0       -3.011870    0.416794   -0.817381
    112          6           0       -2.064813    1.379307   -1.247079
    113          6           0       -0.804859    0.786258   -1.488165
    114          6           0       -1.126254   -0.637364   -1.474627
    115          6           0       -2.472992   -0.749649   -1.025039
    116          6           0        0.417719    1.486911   -2.052095
    117          6           0       -0.525104   -1.890200   -1.748882
    118          8           0        0.609304   -2.201833   -2.088990
    119          6           0       -1.696063   -3.003615   -1.336426
    120          6           0       -1.831902   -3.891197   -2.538638
    121          8           0       -2.141804   -3.497026   -3.667814
    122          8           0       -1.431719   -5.235326   -2.277812
    123          6           0       -1.528551   -6.178945   -3.435166
    124          1           0       -8.294852   -2.437797    0.486265
    125          1           0       -7.732173    4.028312   -0.113671
    126          1           0       -1.528368    3.344581   -1.748551
    127          1           0       -4.497450   -4.494764   -1.455688
    128          1           0       -6.579504   -4.241489    0.656025
    129          1           0       -6.525674   -4.912498   -2.042730
    130          1           0       -7.587657   -3.450304   -1.931931
    131          1           0       -7.859499   -4.957803   -1.071072
    132          1           0       -4.682314   -4.435322    1.599404
    133          1           0       -3.118453   -4.278660    0.940562
    134          1           0       -4.440176   -6.617281    1.582123
    135          1           0       -2.964319   -6.526686    0.555284
    136          1           0      -11.107169   -0.262002    0.423368
    137          1           0      -10.599484   -0.334357    2.153242
    138          1           0      -10.228319   -1.587196    1.007696
    139          1           0      -11.879528    2.137698    1.158258
    140          1           0      -11.633272    3.295407    2.396055
    141          1           0      -11.072666    1.538386    2.617618
    142          1           0       -5.362536    5.547415    0.296087
    143          1           0       -3.570044    5.211867   -2.073807
    144          1           0       -5.620698    6.112792   -2.590769
    145          1           0       -6.663260    6.660378   -1.364218
    146          1           0       -6.869901    4.955178   -2.037393
    147          1           0       -1.922277    5.060239    0.025462
    148          1           0       -3.312568    5.696474    0.897104
    149          1           0       -1.482400    7.025038   -1.134512
    150          1           0       -2.181232    7.873960    0.284072
    151          1           0       -3.178639    7.407304   -1.152232
    152          1           0        0.885591    1.916629   -1.166739
    153          1           0        0.137994    2.286161   -2.737409
    154          1           0        1.040320    0.904826   -2.732755
    155          1           0       -1.374792   -3.532977   -0.438542
    156          1           0       -0.861918   -5.888744   -4.246454
    157          1           0       -2.506102   -6.346002   -3.888262
    158          1           0       -1.126100   -7.072211   -2.957458
 ---------------------------------------------------------------------

 SCF Done:  E(RPBE1PBE) =  -4067.42499278     A.U. after   16 cycles

 Excitation energies and oscillator strengths:

 Excited State   1:      Singlet-A      1.4783 eV  838.68 nm  f=0.0000  <S**2>=0.000
     312 -> 313        0.70607
 This state for optimization and/or second-order correction.
 Total Energy, E(TD-HF/TD-DFT) =  -4067.37066556
 Copying the excited state density for this state as the 1-particle RhoCI density.

 Excited State   2:      Singlet-A      1.8200 eV  681.24 nm  f=0.7341  <S**2>=0.000
     309 -> 315       -0.13888
     311 -> 313        0.64219
     312 -> 314        0.26254

 Excited State   3:      Singlet-A      1.9126 eV  648.26 nm  f=0.1279  <S**2>=0.000
     310 -> 316       -0.15922
     311 -> 313       -0.24605
     311 -> 314       -0.19569
     312 -> 314        0.61343

 Excited State   4:      Singlet-A      1.9503 eV  635.71 nm  f=0.0092  <S**2>=0.000
     311 -> 314        0.67831
     312 -> 314        0.17001

 Excited State   5:      Singlet-A      2.1280 eV  582.64 nm  f=0.0037  <S**2>=0.000
     310 -> 313        0.70341

 The electronic state is 1-A.
 Alpha  occ. eigenvalues --  -46.91448 -46.91205 -19.25570 -19.24785 -19.19619
 Alpha  occ. eigenvalues --  -19.19034 -19.18994 -19.18903 -19.18796 -19.18766
 Alpha  occ. eigenvalues --  -14.41892 -14.41048 -14.41046 -14.40131 -14.39547
 Alpha  occ. eigenvalues --  -14.39096 -14.39021 -14.38789 -10.36016 -10.35802
 Alpha  occ. eigenvalues --  -10.32151 -10.32021 -10.31783 -10.31429 -10.28935
 Alpha  occ. eigenvalues --  -10.28770 -10.28678 -10.28467 -10.28437 -10.28304
 Alpha  occ. eigenvalues --  -10.28213 -10.28190 -10.28098 -10.27966 -10.27917
 Alpha  occ. eigenvalues --  -10.27834 -10.27740 -10.27662 -10.27285 -10.26987
 Alpha  occ. eigenvalues --  -10.26743 -10.26670 -10.26267 -10.25743 -10.25640
 Alpha  occ. eigenvalues --  -10.25612 -10.25521 -10.25506 -10.25407 -10.25403
 Alpha  occ. eigenvalues --  -10.25357 -10.25356 -10.25354 -10.25343 -10.25341
 Alpha  occ. eigenvalues --  -10.25132 -10.25059 -10.25059 -10.24982 -10.24874
 Alpha  occ. eigenvalues --  -10.24782 -10.24729 -10.24597 -10.24590 -10.24490
 Alpha  occ. eigenvalues --  -10.24381 -10.24360 -10.24149 -10.24079 -10.23758
 Alpha  occ. eigenvalues --  -10.23704 -10.23588 -10.23520 -10.23410 -10.23400
 Alpha  occ. eigenvalues --  -10.23376 -10.23296 -10.23248 -10.23112 -10.23045
 Alpha  occ. eigenvalues --  -10.23044 -10.22964 -10.22834 -10.22731 -10.22607
 Alpha  occ. eigenvalues --  -10.21903  -3.13629  -3.13478  -1.86478  -1.86332
 Alpha  occ. eigenvalues --   -1.85996  -1.85866  -1.85845  -1.85724  -1.10630
 Alpha  occ. eigenvalues --   -1.08133  -1.05426  -1.04086  -1.03807  -1.03413
 Alpha  occ. eigenvalues --   -1.00610  -1.00461  -1.00099  -0.99552  -0.98850
 Alpha  occ. eigenvalues --   -0.98583  -0.98027  -0.97189  -0.96676  -0.96388
 Alpha  occ. eigenvalues --   -0.87071  -0.86362  -0.84273  -0.83443  -0.82924
 Alpha  occ. eigenvalues --   -0.82893  -0.82421  -0.82352  -0.81890  -0.81576
 Alpha  occ. eigenvalues --   -0.81448  -0.81069  -0.80622  -0.80476  -0.78575
 Alpha  occ. eigenvalues --   -0.78201  -0.78086  -0.77289  -0.76865  -0.76347
 Alpha  occ. eigenvalues --   -0.76240  -0.75537  -0.75192  -0.74838  -0.74446
 Alpha  occ. eigenvalues --   -0.74124  -0.72689  -0.72567  -0.71789  -0.71501
 Alpha  occ. eigenvalues --   -0.71276  -0.70968  -0.70566  -0.69998  -0.69285
 Alpha  occ. eigenvalues --   -0.69190  -0.67471  -0.67028  -0.66034  -0.65879
 Alpha  occ. eigenvalues --   -0.63837  -0.63723  -0.63272  -0.63216  -0.62328
 Alpha  occ. eigenvalues --   -0.61916  -0.61362  -0.60652  -0.60493  -0.59798
 Alpha  occ. eigenvalues --   -0.59654  -0.59405  -0.59282  -0.59140  -0.59038
 Alpha  occ. eigenvalues --   -0.58685  -0.56857  -0.55916  -0.54644  -0.54623
 Alpha  occ. eigenvalues --   -0.54092  -0.54062  -0.53738  -0.53620  -0.53046
 Alpha  occ. eigenvalues --   -0.52984  -0.52446  -0.52291  -0.51856  -0.51565
 Alpha  occ. eigenvalues --   -0.50683  -0.50659  -0.49899  -0.49675  -0.49315
 Alpha  occ. eigenvalues --   -0.49074  -0.48663  -0.48338  -0.48294  -0.47958
 Alpha  occ. eigenvalues --   -0.47724  -0.47643  -0.47535  -0.47455  -0.47216
 Alpha  occ. eigenvalues --   -0.46961  -0.46883  -0.46773  -0.46614  -0.46467
 Alpha  occ. eigenvalues --   -0.46446  -0.46299  -0.46214  -0.46072  -0.45421
 Alpha  occ. eigenvalues --   -0.45201  -0.45152  -0.44977  -0.44736  -0.44599
 Alpha  occ. eigenvalues --   -0.44531  -0.44359  -0.44129  -0.44069  -0.43784
 Alpha  occ. eigenvalues --   -0.43708  -0.43659  -0.43320  -0.43283  -0.43119
 Alpha  occ. eigenvalues --   -0.42961  -0.42852  -0.42776  -0.42753  -0.42662
 Alpha  occ. eigenvalues --   -0.42339  -0.42226  -0.42166  -0.42009  -0.41745
 Alpha  occ. eigenvalues --   -0.41652  -0.41570  -0.41471  -0.41366  -0.41343
 Alpha  occ. eigenvalues --   -0.41213  -0.40999  -0.40522  -0.40374  -0.40365
 Alpha  occ. eigenvalues --   -0.40018  -0.39783  -0.39653  -0.39572  -0.39467
 Alpha  occ. eigenvalues --   -0.39344  -0.39119  -0.38948  -0.38722  -0.38624
 Alpha  occ. eigenvalues --   -0.38556  -0.38421  -0.38256  -0.38160  -0.38093
 Alpha  occ. eigenvalues --   -0.37815  -0.37747  -0.37702  -0.37627  -0.37420
 Alpha  occ. eigenvalues --   -0.37068  -0.36950  -0.36868  -0.36677  -0.36520
 Alpha  occ. eigenvalues --   -0.36465  -0.36319  -0.36248  -0.36172  -0.36102
 Alpha  occ. eigenvalues --   -0.35929  -0.35752  -0.35595  -0.35496  -0.35421
 Alpha  occ. eigenvalues --   -0.34805  -0.34792  -0.34409  -0.34350  -0.34210
 Alpha  occ. eigenvalues --   -0.33585  -0.33432  -0.32611  -0.32501  -0.32058
 Alpha  occ. eigenvalues --   -0.31727  -0.31678  -0.30898  -0.30794  -0.30677
 Alpha  occ. eigenvalues --   -0.30449  -0.30075  -0.29538  -0.29038  -0.28637
 Alpha  occ. eigenvalues --   -0.28426  -0.28123  -0.27865  -0.26814  -0.26779
 Alpha  occ. eigenvalues --   -0.25909  -0.25804  -0.25578  -0.25507  -0.25428
 Alpha  occ. eigenvalues --   -0.25272  -0.25175  -0.25079  -0.20914  -0.20572
 Alpha  occ. eigenvalues --   -0.18987  -0.18199
 Alpha virt. eigenvalues --   -0.11379  -0.10307  -0.05092  -0.04839  -0.03890
 Alpha virt. eigenvalues --   -0.03147  -0.01992  -0.01521   0.00149   0.00193
 Alpha virt. eigenvalues --    0.00916   0.01399   0.01532   0.01867   0.02401

 Mulliken charges:
               1
     1  Mg  11.999811
     2  C    6.000010
     3  C    6.000213
     4  C    6.000503
     5  C    6.000171
     6  N    6.999863
     7  C    5.999628
     8  C    5.999995
     9  C    6.000231
    10  C    5.999235
    11  C    6.000156
    12  C    5.999734
    13  C    6.000198
    14  H    0.999842
    15  N    7.000129
    16  C    5.999170
    17  C    5.999715
    18  C    5.999763
    19  C    5.999279
    20  C    6.000107
    21  C    5.999771
    22  O    7.999503
    23  C    6.000070
    24  N    7.000287
    25  C    5.999179
    26  C    6.000129
    27  C    6.000046
    28  C    5.999995
    29  C    6.000022
    30  C    5.999523
    31  C    6.000106
    32  N    7.000238
    33  C    6.000553
    34  C    6.002033
    35  C    5.999498
    36  C    5.999809
    37  C    5.999276
    38  C    6.000810
    39  O    8.001276
    40  C    5.999688
    41  C    6.000144
    42  O    8.000241
    43  O    8.000002
    44  C    5.999895
    45  H    0.999755
    46  H    0.999923
    47  H    1.000140
    48  H    0.999773
    49  H    0.999793
    50  H    0.999909
    51  H    0.999707
    52  H    0.999965
    53  H    1.000009
    54  H    0.999835
    55  H    1.000102
    56  H    1.000058
    57  H    0.999723
    58  H    0.999667
    59  H    0.999758
    60  H    0.999870
    61  H    0.999925
    62  H    0.999762
    63  H    0.999976
    64  H    0.999897
    65  H    0.999810
    66  H    0.999962
    67  H    1.000103
    68  H    1.000081
    69  H    1.000296
    70  H    1.000155
    71  H    1.000160
    72  H    0.999793
    73  H    0.999583
    74  H    1.001070
    75  H    1.001590
    76  H    1.000092
    77  H    1.000152
    78  H    1.000189
    79  H    1.000114
    80  Mg  11.999532
    81  C    5.999312
    82  C    5.999971
    83  C    5.999787
    84  C    5.999431
    85  N    6.999542
    86  C    6.000576
    87  C    5.999817
    88  C    6.000220
    89  C    5.999577
    90  C    6.000084
    91  C    5.999933
    92  C    5.999982
    93  H    1.000189
    94  N    7.000079
    95  C    5.999386
    96  C    5.999540
    97  C    5.999610
    98  C    5.999675
    99  C    6.000134
   100  C    5.999747
   101  O    7.999423
   102  C    6.000055
   103  N    6.999542
   104  C    5.999792
   105  C    5.999951
   106  C    5.999962
   107  C    6.000734
   108  C    6.000074
   109  C    6.000006
   110  C    6.000011
   111  N    7.000355
   112  C    6.000281
   113  C    6.001426
   114  C    6.000233
   115  C    6.000367
   116  C    5.999461
   117  C    6.000804
   118  O    8.001648
   119  C    6.000249
   120  C    6.000088
   121  O    8.000209
   122  O    8.000047
   123  C    5.999926
   124  H    0.999728
   125  H    0.999804
   126  H    0.999639
   127  H    0.999903
   128  H    0.999938
   129  H    0.999689
   130  H    1.000098
   131  H    0.999952
   132  H    1.000187
   133  H    0.999715
   134  H    1.000088
   135  H    0.999862
   136  H    0.999635
   137  H    0.999643
   138  H    0.999633
   139  H    0.999809
   140  H    0.999694
   141  H    0.999858
   142  H    1.000012
   143  H    0.999966
   144  H    0.999794
   145  H    0.999967
   146  H    1.000143
   147  H    0.999619
   148  H    1.000133
   149  H    0.999907
   150  H    1.000061
   151  H    1.000180
   152  H    0.999767
   153  H    1.001418
   154  H    1.000630
   155  H    0.999785
   156  H    1.000057
   157  H    1.000222
   158  H    1.000151
 Sum of Mulliken charges = 624.00000

 Dipole moment (field-independent basis, Debye):
    X=              0.0392    Y=             -0.0602    Z=              0.0037  Tot=              0.0719
 Quadrupole moment (field-independent basis, Debye-Ang):
   XX=             -4.3525   YY=             -0.0333   ZZ=              0.2787
   XY=              0.1426   XZ=              0.3399   YZ=              0.0077

 Normal termination of Gaussian 16 at Fri Oct 15 06:20:20 2021.
