 Gaussian 16, Revision A.03,
 Gaussian 16:  ES64L-G16RevA.03 25-Dec-2016

 --------------------------------------------------------
 #p PBE1PBE/Def2SVP td=(nstates=5) density=(transition=1)
 --------------------------------------------------------

 --------------------------------
 TDDFT excited states in gaussian
 --------------------------------
 Symbolic Z-matrix:
 Charge =  0 Multiplicity = 1

                         Standard orientation:
 ---------------------------------------------------------------------
 Center     Atomic      Atomic             Coordinates (Angstroms)
 Number     Number       Type             X           Y           Z
 ---------------------------------------------------------------------
      1         12           0       -4.470904   -0.426196    1.318275
      2          6           0       -5.510966    2.341113   -0.624578
      3          6           0       -2.302458    1.575718    2.754717
      4          6           0       -2.917905   -3.189515    2.258642
      5          6           0       -6.411936   -2.402737   -0.907497
      6          7           0       -4.148361    1.808699    1.137487
      7          6           0       -4.687752    2.715496    0.407371
      8          6           0       -4.279582    4.123434    0.887580
      9          6           0       -2.884835    3.854443    1.651684
     10          6           0       -3.055055    2.286823    1.815297
     11          6           0       -1.566534    4.256875    0.879468
     12          6           0       -5.363845    4.708654    1.934851
     13          6           0       -5.652765    6.243287    2.002338
     14          1           0       -4.462992    7.192405    1.604253
     15          7           0       -2.952141   -0.769594    2.538262
     16          6           0       -2.196740    0.252344    3.093384
     17          6           0       -1.147718   -0.364902    3.979280
     18          6           0       -1.371042   -1.798952    3.847014
     19          6           0       -2.427627   -2.055376    2.864507
     20          6           0       -0.136088    0.492667    4.715892
     21          6           0       -0.649354   -2.903865    4.586663
     22          8           0       -0.844790   -4.114283    4.409195
     23          6           0        0.334437   -2.537031    5.622553
     24          7           0       -4.721527   -2.587825    0.811624
     25          6           0       -3.894408   -3.476047    1.332512
     26          6           0       -4.450616   -4.948982    1.088486
     27          6           0       -5.610849   -4.634227   -0.003244
     28          6           0       -5.609885   -3.107914   -0.009298
     29          6           0       -3.356342   -5.973759    0.641288
     30          6           0       -7.041749   -5.208480    0.259066
     31          6           0       -7.522801   -6.296397   -0.666385
     32          7           0       -5.905115   -0.136766   -0.303702
     33          6           0       -6.579178   -1.065228   -1.071808
     34          6           0       -7.272463   -0.420593   -2.107653
     35          6           0       -6.844672    0.915490   -1.990743
     36          6           0       -5.995038    1.071399   -0.921200
     37          6           0       -8.137181   -1.005339   -3.107420
     38          6           0       -7.079548    2.183097   -2.565354
     39          8           0       -7.843820    2.645686   -3.455343
     40          6           0       -6.000555    3.125052   -1.864269
     41          6           0       -6.598008    4.447214   -1.549179
     42          8           0       -7.526148    4.692908   -0.781510
     43          8           0       -5.813116    5.434304   -2.224594
     44          6           0       -6.222359    6.836017   -2.069344
     45          1           0       -1.698012    2.303652    3.300669
     46          1           0       -2.433433   -4.095401    2.627182
     47          1           0       -7.066552   -3.011254   -1.535963
     48          1           0       -3.968914    4.682232    0.005165
     49          1           0       -2.853463    4.491512    2.534907
     50          1           0       -1.758260    4.464761   -0.172987
     51          1           0       -0.841629    3.443097    0.871023
     52          1           0       -1.192717    5.149943    1.380136
     53          1           0       -5.149167    4.366946    2.947518
     54          1           0       -6.313580    4.207114    1.747888
     55          1           0       -5.969289    6.587351    2.987511
     56          1           0       -6.344990    6.463943    1.188839
     57          1           0       -0.006432    0.177145    5.751763
     58          1           0       -0.387233    1.553345    4.709895
     59          1           0        0.789263    0.529730    4.141572
     60          1           0        1.129491   -1.916597    5.208008
     61          1           0        0.763646   -3.438544    6.059867
     62          1           0       -0.065290   -2.002887    6.484536
     63          1           0       -4.965508   -5.353378    1.959875
     64          1           0       -5.282504   -4.842113   -1.022679
     65          1           0       -2.405914   -5.466052    0.475927
     66          1           0       -3.853734   -6.439310   -0.209813
     67          1           0       -3.328602   -6.753047    1.401792
     68          1           0       -7.744478   -4.380735    0.161095
     69          1           0       -7.108038   -5.558320    1.289464
     70          1           0       -6.631518   -6.546226   -1.240445
     71          1           0       -8.250396   -5.853772   -1.347659
     72          1           0       -7.856209   -7.193026   -0.145363
     73          1           0       -8.868726   -1.610494   -2.572612
     74          1           0       -7.695776   -1.790788   -3.720949
     75          1           0       -8.646194   -0.214805   -3.659151
     76          1           0       -5.162238    3.247647   -2.550794
     77          1           0       -5.611678    7.487866   -2.694600
     78          1           0       -5.955422    7.163576   -1.064408
     79          1           0       -7.256956    6.944300   -2.393182
     80         12           0        4.268365   -0.762256   -1.149178
     81          6           0        6.503798    1.797470   -0.320749
     82          6           0        1.762093    1.352326   -1.019227
     83          6           0        2.083621   -3.413164   -1.207317
     84          6           0        6.880183   -3.109719   -0.784012
     85          7           0        4.213399    1.318386   -0.818665
     86          6           0        5.215461    2.227167   -0.558451
     87          6           0        4.704879    3.661419   -0.607821
     88          6           0        3.157908    3.442305   -0.607202
     89          6           0        3.029744    1.994808   -0.932322
     90          6           0        2.335293    3.911309    0.573415
     91          6           0        5.274389    4.521781   -1.780714
     92          6           0        4.786655    5.974103   -1.821279
     93          1           0        5.869338    7.039734   -1.909168
     94          7           0        2.099603   -1.004116   -1.052267
     95          6           0        1.249892    0.039620   -1.148845
     96          6           0       -0.091884   -0.454598   -1.287932
     97          6           0       -0.021085   -1.857312   -1.234051
     98          6           0        1.437114   -2.141483   -1.145958
     99          6           0       -1.312139    0.435405   -1.394895
    100          6           0       -1.107590   -2.875078   -1.354968
    101          8           0       -0.993277   -4.113977   -1.155168
    102          6           0       -2.503576   -2.454444   -1.797986
    103          7           0        4.458726   -2.905211   -0.987749
    104          6           0        3.404332   -3.753544   -0.972516
    105          6           0        3.936592   -5.283375   -1.070701
    106          6           0        5.456107   -5.077313   -1.403268
    107          6           0        5.638213   -3.620505   -1.120921
    108          6           0        3.639629   -6.020205    0.293566
    109          6           0        5.724558   -5.279403   -2.939369
    110          6           0        4.878266   -4.520596   -3.949695
    111          7           0        6.363649   -0.711999   -0.699949
    112          6           0        7.240679   -1.757298   -0.603814
    113          6           0        8.484771   -1.217768   -0.303117
    114          6           0        8.323179    0.188415   -0.141709
    115          6           0        7.002355    0.450699   -0.394377
    116          6           0        9.772896   -1.918335   -0.049598
    117          6           0        8.953188    1.486561    0.189789
    118          8           0       10.080464    1.811836    0.544464
    119          6           0        7.789706    2.603413   -0.018716
    120          6           0        7.770932    3.556891    1.122470
    121          8           0        8.008849    3.247622    2.327745
    122          8           0        7.635030    4.771655    0.608008
    123          6           0        8.052924    5.839955    1.495574
    124          1           0        0.906419    2.025904   -1.101756
    125          1           0        1.404426   -4.267298   -1.261499
    126          1           0        7.683569   -3.847656   -0.807383
    127          1           0        5.127276    4.121484    0.285702
    128          1           0        2.658948    3.932768   -1.443723
    129          1           0        2.787166    4.662905    1.220698
    130          1           0        2.035381    3.045496    1.164383
    131          1           0        1.350285    4.174425    0.187379
    132          1           0        5.064199    4.030017   -2.730845
    133          1           0        6.361848    4.533801   -1.714964
    134          1           0        4.456846    6.309180   -0.838052
    135          1           0        4.011163    6.111041   -2.575488
    136          1           0       -1.121136    1.496265   -1.233478
    137          1           0       -2.063559    0.305976   -0.616357
    138          1           0       -1.829675    0.349526   -2.350840
    139          1           0       -2.942822   -1.861523   -0.996214
    140          1           0       -3.203569   -3.289613   -1.788515
    141          1           0       -2.521782   -1.996225   -2.787487
    142          1           0        3.379807   -5.814456   -1.842756
    143          1           0        5.986441   -5.699326   -0.682224
    144          1           0        2.942391   -5.482119    0.936009
    145          1           0        4.520195   -6.177262    0.916705
    146          1           0        3.150469   -6.985344    0.170002
    147          1           0        5.550451   -6.353771   -2.999588
    148          1           0        6.753744   -5.100568   -3.249181
    149          1           0        4.021781   -4.063622   -3.453540
    150          1           0        4.583319   -5.068025   -4.844260
    151          1           0        5.586700   -3.791421   -4.342873
    152          1           0       10.080796   -2.595127   -0.847019
    153          1           0        9.590188   -2.529324    0.833903
    154          1           0       10.585936   -1.230132    0.179292
    155          1           0        8.114069    3.146967   -0.905719
    156          1           0        8.631653    6.580308    0.941845
    157          1           0        8.696467    5.553502    2.327036
    158          1           0        7.134038    6.302411    1.857442
 ---------------------------------------------------------------------

 SCF Done:  E(RPBE1PBE) =  -4067.35862016     A.U. after   17 cycles

 Excitation energies and oscillator strengths:

 Excited State   1:      Singlet-A      1.6399 eV  756.07 nm  f=0.0044  <S**2>=0.000
     311 -> 313        0.61149
     312 -> 313       -0.35350
 This state for optimization and/or second-order correction.
 Total Energy, E(TD-HF/TD-DFT) =  -4067.29835661
 Copying the excited state density for this state as the 1-particle RhoCI density.

 Excited State   2:      Singlet-A      1.8065 eV  686.31 nm  f=0.0039  <S**2>=0.000
     311 -> 314        0.27613
     312 -> 314        0.64979

 Excited State   3:      Singlet-A      1.8423 eV  673.00 nm  f=0.4509  <S**2>=0.000
     310 -> 316       -0.15147
     311 -> 313        0.34851
     312 -> 313        0.60123

 Excited State   4:      Singlet-A      1.9429 eV  638.16 nm  f=0.3018  <S**2>=0.000
     309 -> 315       -0.20107
     311 -> 314        0.62735
     312 -> 314       -0.26502

 Excited State   5:      Singlet-A      2.1403 eV  579.30 nm  f=0.0033  <S**2>=0.000
     309 -> 313        0.69327
     310 -> 313       -0.12795

 The electronic state is 1-A.
 Alpha  occ. eigenvalues --  -46.93102 -46.92953 -19.27574 -19.24977 -19.20740
 Alpha  occ. eigenvalues --  -19.19654 -19.19456 -19.19153 -19.19098 -19.19051
 Alpha  occ. eigenvalues --  -14.42547 -14.42054 -14.41551 -14.41379 -14.39947
 Alpha  occ. eigenvalues --  -14.39423 -14.38643 -14.38060 -10.36638 -10.36554
 Alpha  occ. eigenvalues --  -10.32936 -10.32397 -10.32177 -10.31967 -10.29822
 Alpha  occ. eigenvalues --  -10.29629 -10.29509 -10.29073 -10.28872 -10.28852
 Alpha  occ. eigenvalues --  -10.28743 -10.28680 -10.28649 -10.28456 -10.28345
 Alpha  occ. eigenvalues --  -10.28228 -10.28191 -10.28164 -10.28107 -10.27226
 Alpha  occ. eigenvalues --  -10.27180 -10.27034 -10.26974 -10.26969 -10.26597
 Alpha  occ. eigenvalues --  -10.26550 -10.26401 -10.26386 -10.26287 -10.26275
 Alpha  occ. eigenvalues --  -10.26240 -10.26208 -10.26014 -10.25850 -10.25817
 Alpha  occ. eigenvalues --  -10.25804 -10.25784 -10.25736 -10.25719 -10.25485
 Alpha  occ. eigenvalues --  -10.25466 -10.25424 -10.25379 -10.25351 -10.25069
 Alpha  occ. eigenvalues --  -10.24953 -10.24895 -10.24698 -10.24692 -10.24387
 Alpha  occ. eigenvalues --  -10.24320 -10.24288 -10.24204 -10.23906 -10.23824
 Alpha  occ. eigenvalues --  -10.23730 -10.23580 -10.23228 -10.23146 -10.22969
 Alpha  occ. eigenvalues --  -10.22961 -10.22758 -10.22693 -10.22671 -10.22473
 Alpha  occ. eigenvalues --  -10.22132  -3.15166  -3.14926  -1.88018  -1.87775
 Alpha  occ. eigenvalues --   -1.87545  -1.87370  -1.87269  -1.87162  -1.13198
 Alpha  occ. eigenvalues --   -1.09026  -1.04054  -1.03931  -1.03163  -1.02342
 Alpha  occ. eigenvalues --   -1.01876  -1.01028  -1.00823  -1.00079  -1.00053
 Alpha  occ. eigenvalues --   -0.99146  -0.98528  -0.98279  -0.97384  -0.96329
 Alpha  occ. eigenvalues --   -0.87688  -0.86494  -0.84090  -0.83993  -0.83706
 Alpha  occ. eigenvalues --   -0.83141  -0.82754  -0.82441  -0.82314  -0.82073
 Alpha  occ. eigenvalues --   -0.81917  -0.81595  -0.81218  -0.80397  -0.79318
 Alpha  occ. eigenvalues --   -0.78869  -0.78272  -0.78164  -0.77299  -0.77036
 Alpha  occ. eigenvalues --   -0.76525  -0.76228  -0.75940  -0.75806  -0.75286
 Alpha  occ. eigenvalues --   -0.74975  -0.73426  -0.73043  -0.72097  -0.72090
 Alpha  occ. eigenvalues --   -0.71935  -0.71586  -0.70721  -0.70618  -0.69727
 Alpha  occ. eigenvalues --   -0.69506  -0.67941  -0.67449  -0.66968  -0.66352
 Alpha  occ. eigenvalues --   -0.64357  -0.63703  -0.63625  -0.62840  -0.62798
 Alpha  occ. eigenvalues --   -0.62615  -0.62423  -0.61801  -0.60688  -0.60443
 Alpha  occ. eigenvalues --   -0.60126  -0.60093  -0.59997  -0.59472  -0.59303
 Alpha  occ. eigenvalues --   -0.59200  -0.57549  -0.56135  -0.55550  -0.55262
 Alpha  occ. eigenvalues --   -0.54902  -0.54520  -0.54201  -0.54039  -0.53357
 Alpha  occ. eigenvalues --   -0.53324  -0.52408  -0.52345  -0.52105  -0.52069
 Alpha  occ. eigenvalues --   -0.51795  -0.50965  -0.50766  -0.50549  -0.50472
 Alpha  occ. eigenvalues --   -0.50222  -0.50171  -0.50065  -0.49189  -0.49097
 Alpha  occ. eigenvalues --   -0.48755  -0.48550  -0.48212  -0.48022  -0.47734
 Alpha  occ. eigenvalues --   -0.47586  -0.47547  -0.47355  -0.47210  -0.46944
 Alpha  occ. eigenvalues --   -0.46713  -0.46463  -0.46394  -0.46324  -0.45945
 Alpha  occ. eigenvalues --   -0.45819  -0.45649  -0.45439  -0.45117  -0.45048
 Alpha  occ. eigenvalues --   -0.44932  -0.44787  -0.44728  -0.44399  -0.44369
 Alpha  occ. eigenvalues --   -0.44031  -0.43958  -0.43740  -0.43698  -0.43475
 Alpha  occ. eigenvalues --   -0.43376  -0.43255  -0.43153  -0.42996  -0.42915
 Alpha  occ. eigenvalues --   -0.42735  -0.42580  -0.42378  -0.42167  -0.41981
 Alpha  occ. eigenvalues --   -0.41878  -0.41745  -0.41723  -0.41526  -0.41358
 Alpha  occ. eigenvalues --   -0.41293  -0.41170  -0.41081  -0.40922  -0.40816
 Alpha  occ. eigenvalues --   -0.40532  -0.40400  -0.40295  -0.40166  -0.39870
 Alpha  occ. eigenvalues --   -0.39739  -0.39359  -0.39305  -0.39257  -0.39008
 Alpha  occ. eigenvalues --   -0.38896  -0.38778  -0.38694  -0.38594  -0.38351
 Alpha  occ. eigenvalues --   -0.38241  -0.38123  -0.37994  -0.37747  -0.37718
 Alpha  occ. eigenvalues --   -0.37650  -0.37401  -0.37236  -0.37187  -0.36894
 Alpha  occ. eigenvalues --   -0.36672  -0.36459  -0.36376  -0.36315  -0.36268
 Alpha  occ. eigenvalues --   -0.35922  -0.35829  -0.35576  -0.35541  -0.35516
 Alpha  occ. eigenvalues --   -0.35106  -0.34956  -0.34792  -0.34369  -0.34323
 Alpha  occ. eigenvalues --   -0.33758  -0.33406  -0.33086  -0.33010  -0.32663
 Alpha  occ. eigenvalues --   -0.32525  -0.32155  -0.31835  -0.31734  -0.31574
 Alpha  occ. eigenvalues --   -0.31392  -0.31044  -0.30082  -0.29465  -0.29391
 Alpha  occ. eigenvalues --   -0.29190  -0.29033  -0.28457  -0.27674  -0.27509
 Alpha  occ. eigenvalues --   -0.26537  -0.26193  -0.25943  -0.25890  -0.25585
 Alpha  occ. eigenvalues --   -0.25437  -0.25313  -0.24595  -0.21402  -0.21178
 Alpha  occ. eigenvalues --   -0.19574  -0.19472
 Alpha virt. eigenvalues --   -0.11936  -0.11412  -0.06297  -0.05100  -0.04622
 Alpha virt. eigenvalues --   -0.04348  -0.02402  -0.02251  -0.01196  -0.00816
 Alpha virt. eigenvalues --   -0.00489  -0.00360   0.00300   0.00829   0.01051

 Mulliken charges:
               1
     1  Mg  11.999711
     2  C    6.000137
     3  C    5.999524
     4  C    5.999244
     5  C    6.000425
     6  N    7.000035
     7  C    5.999028
     8  C    6.000169
     9  C    6.000198
    10  C    6.000359
    11  C    5.999369
    12  C    6.000034
    13  C    6.000167
    14  H    0.999547
    15  N    6.999964
    16  C    5.999963
    17  C    5.999145
    18  C    5.999972
    19  C    6.000291
    20  C    6.000133
    21  C    5.999741
    22  O    7.999711
    23  C    6.000242
    24  N    7.000225
    25  C    6.001061
    26  C    5.999552
    27  C    6.000273
    28  C    5.998216
    29  C    5.999277
    30  C    6.000137
    31  C    6.000045
    32  N    7.000015
    33  C    5.999778
    34  C    5.999006
    35  C    5.999750
    36  C    5.999716
    37  C    6.000162
    38  C    5.999557
    39  O    7.998936
    40  C    5.999964
    41  C    5.999938
    42  O    7.999725
    43  O    7.999920
    44  C    6.000141
    45  H    0.999483
    46  H    0.999518
    47  H    0.999542
    48  H    0.999867
    49  H    0.999596
    50  H    0.999946
    51  H    1.000545
    52  H    0.999780
    53  H    0.999880
    54  H    1.000053
    55  H    0.999749
    56  H    0.999973
    57  H    0.999573
    58  H    0.999734
    59  H    0.999411
    60  H    0.999593
    61  H    0.999558
    62  H    0.999896
    63  H    0.999570
    64  H    0.999932
    65  H    1.001212
    66  H    0.999793
    67  H    0.999790
    68  H    0.999946
    69  H    0.999680
    70  H    0.999829
    71  H    0.999930
    72  H    0.999643
    73  H    0.999438
    74  H    0.999274
    75  H    0.999509
    76  H    0.999695
    77  H    0.999672
    78  H    0.999830
    79  H    0.999843
    80  Mg  12.000962
    81  C    5.999211
    82  C    6.001096
    83  C    6.002012
    84  C    6.000547
    85  N    6.999413
    86  C    6.002056
    87  C    5.999501
    88  C    6.000383
    89  C    5.998063
    90  C    5.999745
    91  C    5.999824
    92  C    5.999998
    93  H    1.000180
    94  N    7.000235
    95  C    5.997565
    96  C    6.000440
    97  C    5.999967
    98  C    5.998209
    99  C    5.999986
   100  C    5.998950
   101  O    7.998110
   102  C    6.000424
   103  N    7.000764
   104  C    5.998463
   105  C    6.000155
   106  C    5.999284
   107  C    6.001506
   108  C    5.999920
   109  C    5.999382
   110  C    5.999830
   111  N    6.999812
   112  C    6.001589
   113  C    6.002036
   114  C    6.000089
   115  C    6.001917
   116  C    5.999846
   117  C    6.000998
   118  O    8.001864
   119  C    6.000191
   120  C    6.000346
   121  O    8.000317
   122  O    8.000112
   123  C    5.999811
   124  H    0.999896
   125  H    1.000387
   126  H    1.001157
   127  H    1.000115
   128  H    1.000165
   129  H    0.999629
   130  H    1.000382
   131  H    1.000368
   132  H    1.000384
   133  H    0.999652
   134  H    1.000275
   135  H    1.000460
   136  H    0.999514
   137  H    1.000539
   138  H    0.999130
   139  H    1.000007
   140  H    0.999830
   141  H    0.999503
   142  H    1.000437
   143  H    1.000410
   144  H    1.000582
   145  H    0.999680
   146  H    1.000381
   147  H    1.000900
   148  H    1.000037
   149  H    1.000647
   150  H    1.000611
   151  H    0.999830
   152  H    1.001324
   153  H    1.001339
   154  H    1.001020
   155  H    1.000535
   156  H    1.000324
   157  H    1.000164
   158  H    1.000493
 Sum of Mulliken charges = 624.00000

 Dipole moment (field-independent basis, Debye):
    X=              1.1839    Y=             -0.0501    Z=             -0.0313  Tot=              1.1854
 Quadrupole moment (field-independent basis, Debye-Ang):
   XX=              4.0168   YY=              0.0238   ZZ=             -0.5866
   XY=             -0.5769   XZ=             -0.7138   YZ=              0.2888

 Normal termination of Gaussian 16 at Thu Oct 14 07:00:55 2021.
