 Gaussian 16, Revision A.03,
 Gaussian 16:  ES64L-G16RevA.03 25-Dec-2016

 --------------------------------------------------------
 #p PBE1PBE/Def2SVP td=(nstates=5) density=(transition=1)
 --------------------------------------------------------

 --------------------------------
 TDDFT excited states in gaussian
 --------------------------------
 Symbolic Z-matrix:
 Charge =  0 Multiplicity = 1

                         Standard orientation:
 ---------------------------------------------------------------------
 Center     Atomic      Atomic             Coordinates (Angstroms)
 Number     Number       Type             X           Y           Z
 ---------------------------------------------------------------------
      1         12           0       22.086200   -0.577980    0.439702
      2          6           0       21.585825    2.130139   -1.683770
      3          6           0       22.256785    1.590062    3.087977
      4          6           0       22.890715   -3.234816    2.416620
      5          6           0       22.125148   -2.600554   -2.482798
      6          7           0       21.974100    1.599695    0.671040
      7          6           0       21.641690    2.468231   -0.334907
      8          6           0       21.505925    3.848810    0.312054
      9          6           0       22.013460    3.689734    1.734157
     10          6           0       22.050236    2.170127    1.849982
     11          6           0       23.297388    4.355445    2.151098
     12          6           0       20.058612    4.526876    0.194757
     13          6           0       19.844856    5.827539    1.033944
     14          1           0       20.149006    7.196467    0.370927
     15          7           0       22.363708   -0.785095    2.485898
     16          6           0       22.428474    0.215111    3.399648
     17          6           0       22.732950   -0.401414    4.664661
     18          6           0       22.920876   -1.799653    4.457729
     19          6           0       22.755606   -2.003415    3.088964
     20          6           0       22.822987    0.426680    5.909222
     21          6           0       23.388992   -2.834590    5.521888
     22          8           0       23.853823   -3.914990    5.205286
     23          6           0       23.425610   -2.560188    6.949206
     24          7           0       22.425323   -2.500702    0.028037
     25          6           0       22.701878   -3.460432    1.001262
     26          6           0       22.836177   -4.875425    0.412219
     27          6           0       22.314322   -4.659181   -1.048984
     28          6           0       22.241130   -3.144906   -1.156123
     29          6           0       24.111293   -5.572614    0.650779
     30          6           0       20.955718   -5.414998   -1.531749
     31          6           0       20.980369   -6.378621   -2.721990
     32          7           0       21.947077   -0.311937   -1.735592
     33          6           0       21.999899   -1.231599   -2.745179
     34          6           0       21.839745   -0.610952   -4.016918
     35          6           0       21.588045    0.765691   -3.648185
     36          6           0       21.757506    0.890212   -2.240725
     37          6           0       21.830544   -1.339125   -5.306780
     38          6           0       21.197471    2.051523   -4.178937
     39          8           0       20.879919    2.449821   -5.282400
     40          6           0       21.195050    3.019385   -2.854913
     41          6           0       21.990772    4.252941   -3.080674
     42          8           0       23.192896    4.259937   -3.230943
     43          8           0       21.231183    5.362374   -3.085614
     44          6           0       21.950078    6.693546   -3.049166
     45          1           0       22.258781    2.270192    3.942625
     46          1           0       23.155822   -4.067418    3.071296
     47          1           0       22.142946   -3.385202   -3.242292
     48          1           0       22.207413    4.411331   -0.303895
     49          1           0       21.287855    4.118567    2.424865
     50          1           0       23.938496    3.475835    2.200330
     51          1           0       23.198223    4.914290    3.081780
     52          1           0       23.723208    4.971139    1.358531
     53          1           0       19.415252    3.729462    0.567272
     54          1           0       19.838606    4.749475   -0.848679
     55          1           0       20.469815    5.838016    1.926046
     56          1           0       18.809786    5.836463    1.375463
     57          1           0       22.569390    1.485289    5.845130
     58          1           0       23.876307    0.419599    6.187562
     59          1           0       22.295472   -0.014133    6.755333
     60          1           0       23.879150   -1.640308    7.316856
     61          1           0       23.824999   -3.361558    7.570675
     62          1           0       22.366463   -2.572854    7.205547
     63          1           0       22.046441   -5.346391    0.998184
     64          1           0       23.213573   -4.949737   -1.591911
     65          1           0       24.074496   -6.478134    1.257005
     66          1           0       24.781566   -4.866988    1.142320
     67          1           0       24.601877   -5.925696   -0.256195
     68          1           0       20.227241   -4.643659   -1.780937
     69          1           0       20.423492   -6.013123   -0.791125
     70          1           0       20.564535   -5.977294   -3.646544
     71          1           0       20.610556   -7.380912   -2.507637
     72          1           0       22.024080   -6.512882   -3.006474
     73          1           0       22.659089   -2.046974   -5.308951
     74          1           0       21.851815   -0.670972   -6.167303
     75          1           0       20.990290   -2.033615   -5.278625
     76          1           0       20.159858    3.336852   -2.733896
     77          1           0       21.184664    7.372477   -3.424381
     78          1           0       22.823155    6.635546   -3.698833
     79          1           0       22.162244    6.903876   -2.000804
     80         12           0      -21.606950   -0.703762   -0.097819
     81          6           0      -23.264450    1.914055    1.486142
     82          6           0      -19.843474    1.502213   -1.935005
     83          6           0      -20.392628   -3.304486   -1.883075
     84          6           0      -23.784915   -2.877873    1.457655
     85          7           0      -21.599412    1.510104   -0.198294
     86          6           0      -22.208783    2.358451    0.690824
     87          6           0      -21.792034    3.757380    0.437790
     88          6           0      -20.743666    3.703926   -0.679544
     89          6           0      -20.664895    2.147596   -0.991911
     90          6           0      -20.933486    4.577080   -1.910186
     91          6           0      -21.271713    4.481822    1.805471
     92          6           0      -22.054095    5.718590    2.306013
     93          1           0      -21.330804    6.910037    2.884119
     94          7           0      -20.215852   -0.891006   -1.599826
     95          6           0      -19.589562    0.155288   -2.260334
     96          6           0      -18.754202   -0.360432   -3.283098
     97          6           0      -18.896690   -1.774470   -3.297039
     98          6           0      -19.851008   -2.047071   -2.217412
     99          6           0      -17.810234    0.642001   -4.055429
    100          6           0      -18.235810   -2.717643   -4.300798
    101          8           0      -18.419763   -3.942642   -4.363673
    102          6           0      -17.236150   -2.194692   -5.236066
    103          7           0      -22.160561   -2.789785   -0.416853
    104          6           0      -21.454968   -3.669866   -1.096590
    105          6           0      -22.117609   -5.065192   -1.050788
    106          6           0      -22.815808   -4.917144    0.358263
    107          6           0      -22.917947   -3.402888    0.511386
    108          6           0      -23.164295   -5.494436   -2.144619
    109          6           0      -22.077077   -5.592354    1.611179
    110          6           0      -20.710488   -5.146401    1.936188
    111          7           0      -23.299662   -0.601502    1.221189
    112          6           0      -24.100731   -1.606516    1.797929
    113          6           0      -25.083943   -1.002639    2.639594
    114          6           0      -24.860259    0.353969    2.513850
    115          6           0      -23.684690    0.541266    1.715374
    116          6           0      -26.232738   -1.660331    3.231541
    117          6           0      -25.196522    1.586795    3.052818
    118          8           0      -26.066827    1.919711    3.863850
    119          6           0      -24.269728    2.689524    2.364337
    120          6           0      -25.180673    3.477886    1.482452
    121          8           0      -25.885423    3.152075    0.550297
    122          8           0      -25.115836    4.726204    1.948892
    123          6           0      -25.928323    5.747322    1.209923
    124          1           0      -19.184713    2.294663   -2.296198
    125          1           0      -19.860809   -4.121165   -2.374252
    126          1           0      -24.423431   -3.583374    1.993006
    127          1           0      -22.696306    4.257060    0.092576
    128          1           0      -19.770709    3.962297   -0.262157
    129          1           0      -21.423769    3.817599   -2.518070
    130          1           0      -20.025730    5.016730   -2.323833
    131          1           0      -21.602780    5.435833   -1.866013
    132          1           0      -20.221163    4.743512    1.682632
    133          1           0      -21.352390    3.852049    2.691819
    134          1           0      -22.653697    5.371275    3.147909
    135          1           0      -22.790019    6.059162    1.578854
    136          1           0      -17.965857    0.505245   -5.125392
    137          1           0      -16.867621    0.175020   -3.769669
    138          1           0      -17.961085    1.711937   -3.911616
    139          1           0      -17.651212   -1.392527   -5.844701
    140          1           0      -17.121415   -2.964595   -5.998710
    141          1           0      -16.266272   -1.958491   -4.797537
    142          1           0      -21.339940   -5.803787   -0.855832
    143          1           0      -23.767746   -5.430334    0.224164
    144          1           0      -23.862170   -4.720399   -2.461632
    145          1           0      -23.666272   -6.335540   -1.665078
    146          1           0      -22.659199   -5.835429   -3.048722
    147          1           0      -21.967570   -6.672935    1.516021
    148          1           0      -22.536837   -5.286271    2.550833
    149          1           0      -20.879220   -4.227487    2.495889
    150          1           0      -20.024123   -4.895669    1.126828
    151          1           0      -20.101030   -5.771408    2.588069
    152          1           0      -26.960344   -1.681127    2.419334
    153          1           0      -26.673106   -1.153529    4.089735
    154          1           0      -26.002695   -2.639585    3.652780
    155          1           0      -23.701303    3.284840    3.078975
    156          1           0      -25.190771    6.321731    0.648965
    157          1           0      -26.498622    6.346189    1.919645
    158          1           0      -26.634247    5.382214    0.463424
 ---------------------------------------------------------------------

 SCF Done:  E(RPBE1PBE) =  -4067.35819610     A.U. after   16 cycles

 Excitation energies and oscillator strengths:

 Excited State   1:      Singlet-A      1.8569 eV  667.69 nm  f=0.3025  <S**2>=0.000
     309 -> 315       -0.16965
     311 -> 313       -0.13306
     312 -> 314        0.68016
     312 <- 314       -0.10963
 This state for optimization and/or second-order correction.
 Total Energy, E(TD-HF/TD-DFT) =  -4067.28995580
 Copying the excited state density for this state as the 1-particle RhoCI density.

 Excited State   2:      Singlet-A      1.8588 eV  667.02 nm  f=0.4280  <S**2>=0.000
     310 -> 316        0.16079
     311 -> 313        0.67964
     312 -> 314        0.13311
     311 <- 313       -0.10565

 Excited State   3:      Singlet-A      1.9148 eV  647.51 nm  f=0.0000  <S**2>=0.000
     312 -> 313        0.70711

 Excited State   4:      Singlet-A      2.0534 eV  603.79 nm  f=0.0000  <S**2>=0.000
     311 -> 314        0.70711

 Excited State   5:      Singlet-A      2.1770 eV  569.51 nm  f=0.1424  <S**2>=0.000
     310 -> 313        0.66023
     311 -> 316       -0.23475

 The electronic state is 1-A.
 Alpha  occ. eigenvalues --  -46.92753 -46.91286 -19.25704 -19.25084 -19.19323
 Alpha  occ. eigenvalues --  -19.19296 -19.18947 -19.18923 -19.18497 -19.18490
 Alpha  occ. eigenvalues --  -14.42239 -14.41657 -14.41566 -14.41241 -14.39403
 Alpha  occ. eigenvalues --  -14.38750 -14.38633 -14.38123 -10.35625 -10.34974
 Alpha  occ. eigenvalues --  -10.32711 -10.32231 -10.31831 -10.31298 -10.29379
 Alpha  occ. eigenvalues --  -10.29351 -10.29231 -10.28951 -10.28949 -10.28931
 Alpha  occ. eigenvalues --  -10.28870 -10.28387 -10.28112 -10.28032 -10.27854
 Alpha  occ. eigenvalues --  -10.27534 -10.27464 -10.27343 -10.27154 -10.26817
 Alpha  occ. eigenvalues --  -10.26760 -10.26645 -10.26455 -10.26391 -10.26372
 Alpha  occ. eigenvalues --  -10.26010 -10.25962 -10.25831 -10.25828 -10.25825
 Alpha  occ. eigenvalues --  -10.25778 -10.25697 -10.25646 -10.25559 -10.25361
 Alpha  occ. eigenvalues --  -10.25355 -10.25349 -10.25283 -10.25153 -10.25152
 Alpha  occ. eigenvalues --  -10.25039 -10.25033 -10.24937 -10.24929 -10.24787
 Alpha  occ. eigenvalues --  -10.24743 -10.24733 -10.24690 -10.24533 -10.24527
 Alpha  occ. eigenvalues --  -10.24375 -10.24032 -10.24000 -10.23985 -10.23766
 Alpha  occ. eigenvalues --  -10.23714 -10.23434 -10.23422 -10.23395 -10.23222
 Alpha  occ. eigenvalues --  -10.23060 -10.23050 -10.22970 -10.22903 -10.22360
 Alpha  occ. eigenvalues --  -10.22143  -3.14746  -3.13524  -1.87589  -1.87098
 Alpha  occ. eigenvalues --   -1.86985  -1.86382  -1.85901  -1.85749  -1.11798
 Alpha  occ. eigenvalues --   -1.10634  -1.05714  -1.04296  -1.03875  -1.03317
 Alpha  occ. eigenvalues --   -1.02190  -1.01572  -1.00053  -0.99878  -0.98948
 Alpha  occ. eigenvalues --   -0.98821  -0.98079  -0.97968  -0.97337  -0.97021
 Alpha  occ. eigenvalues --   -0.86823  -0.86578  -0.83540  -0.83502  -0.83061
 Alpha  occ. eigenvalues --   -0.83044  -0.82714  -0.82668  -0.82288  -0.81964
 Alpha  occ. eigenvalues --   -0.81903  -0.81276  -0.81180  -0.81017  -0.78964
 Alpha  occ. eigenvalues --   -0.78925  -0.78561  -0.78016  -0.77387  -0.76815
 Alpha  occ. eigenvalues --   -0.76731  -0.76265  -0.75857  -0.75735  -0.75119
 Alpha  occ. eigenvalues --   -0.75105  -0.73149  -0.73102  -0.72138  -0.71996
 Alpha  occ. eigenvalues --   -0.71731  -0.71595  -0.70319  -0.70227  -0.69716
 Alpha  occ. eigenvalues --   -0.69543  -0.67944  -0.67259  -0.66292  -0.66163
 Alpha  occ. eigenvalues --   -0.63799  -0.63701  -0.63497  -0.63291  -0.62743
 Alpha  occ. eigenvalues --   -0.62187  -0.61597  -0.61369  -0.60293  -0.60115
 Alpha  occ. eigenvalues --   -0.59935  -0.59933  -0.59350  -0.59135  -0.58777
 Alpha  occ. eigenvalues --   -0.58510  -0.56641  -0.56025  -0.55090  -0.55031
 Alpha  occ. eigenvalues --   -0.54510  -0.54307  -0.53903  -0.53613  -0.53468
 Alpha  occ. eigenvalues --   -0.53279  -0.52844  -0.52594  -0.52398  -0.51716
 Alpha  occ. eigenvalues --   -0.51060  -0.50995  -0.50349  -0.50274  -0.50120
 Alpha  occ. eigenvalues --   -0.49784  -0.49642  -0.49377  -0.49370  -0.49214
 Alpha  occ. eigenvalues --   -0.49105  -0.48424  -0.47925  -0.47837  -0.47811
 Alpha  occ. eigenvalues --   -0.47469  -0.47386  -0.47303  -0.47154  -0.46925
 Alpha  occ. eigenvalues --   -0.46756  -0.46754  -0.46510  -0.45899  -0.45872
 Alpha  occ. eigenvalues --   -0.45707  -0.45632  -0.45456  -0.45091  -0.45009
 Alpha  occ. eigenvalues --   -0.44831  -0.44580  -0.44440  -0.44340  -0.44143
 Alpha  occ. eigenvalues --   -0.44077  -0.43962  -0.43852  -0.43717  -0.43622
 Alpha  occ. eigenvalues --   -0.43618  -0.43244  -0.43175  -0.42998  -0.42880
 Alpha  occ. eigenvalues --   -0.42742  -0.42433  -0.42162  -0.41999  -0.41828
 Alpha  occ. eigenvalues --   -0.41794  -0.41607  -0.41552  -0.41419  -0.41367
 Alpha  occ. eigenvalues --   -0.41240  -0.41000  -0.40999  -0.40810  -0.40774
 Alpha  occ. eigenvalues --   -0.40547  -0.40097  -0.39928  -0.39853  -0.39597
 Alpha  occ. eigenvalues --   -0.39429  -0.39261  -0.39157  -0.39071  -0.39027
 Alpha  occ. eigenvalues --   -0.38890  -0.38873  -0.38556  -0.38546  -0.38200
 Alpha  occ. eigenvalues --   -0.38094  -0.38066  -0.37781  -0.37694  -0.37569
 Alpha  occ. eigenvalues --   -0.37318  -0.37047  -0.36970  -0.36793  -0.36737
 Alpha  occ. eigenvalues --   -0.36665  -0.36452  -0.36352  -0.36162  -0.35972
 Alpha  occ. eigenvalues --   -0.35836  -0.35815  -0.35602  -0.35315  -0.35118
 Alpha  occ. eigenvalues --   -0.35108  -0.34483  -0.34397  -0.34230  -0.33901
 Alpha  occ. eigenvalues --   -0.33777  -0.33078  -0.33066  -0.32754  -0.32708
 Alpha  occ. eigenvalues --   -0.32323  -0.32060  -0.31941  -0.31392  -0.31366
 Alpha  occ. eigenvalues --   -0.31197  -0.31013  -0.29701  -0.29507  -0.29274
 Alpha  occ. eigenvalues --   -0.29219  -0.29003  -0.27906  -0.27129  -0.26636
 Alpha  occ. eigenvalues --   -0.26195  -0.26082  -0.25815  -0.25748  -0.25367
 Alpha  occ. eigenvalues --   -0.25258  -0.25218  -0.24699  -0.21141  -0.20990
 Alpha  occ. eigenvalues --   -0.19097  -0.18793
 Alpha virt. eigenvalues --   -0.11458  -0.11252  -0.05393  -0.05184  -0.03938
 Alpha virt. eigenvalues --   -0.03614  -0.02147  -0.01742  -0.00626   0.00535
 Alpha virt. eigenvalues --    0.00786   0.01013   0.01324   0.01670   0.01906

 Mulliken charges:
               1
     1  Mg  12.002810
     2  C    6.016295
     3  C    5.985568
     4  C    5.985374
     5  C    6.009432
     6  N    7.004917
     7  C    5.968709
     8  C    6.006429
     9  C    5.993567
    10  C    6.026729
    11  C    5.999007
    12  C    6.004703
    13  C    5.998222
    14  H    1.001156
    15  N    6.996206
    16  C    6.033839
    17  C    6.027326
    18  C    6.008182
    19  C    6.031447
    20  C    5.995583
    21  C    6.011506
    22  O    8.020524
    23  C    5.993158
    24  N    6.996320
    25  C    6.039671
    26  C    5.991503
    27  C    6.013139
    28  C    5.965463
    29  C    5.997744
    30  C    6.002713
    31  C    6.000326
    32  N    7.002267
    33  C    5.970381
    34  C    5.969895
    35  C    5.997214
    36  C    5.971371
    37  C    6.000896
    38  C    5.983843
    39  O    7.970778
    40  C    5.997153
    41  C    5.996676
    42  O    7.995263
    43  O    7.998910
    44  C    6.000819
    45  H    1.008145
    46  H    1.008776
    47  H    0.989249
    48  H    1.000808
    49  H    0.999443
    50  H    0.995672
    51  H    1.000237
    52  H    1.011603
    53  H    0.994036
    54  H    1.005400
    55  H    0.993704
    56  H    0.997893
    57  H    1.019288
    58  H    1.020731
    59  H    1.019018
    60  H    1.004761
    61  H    1.013128
    62  H    1.007186
    63  H    0.999125
    64  H    0.998091
    65  H    1.001612
    66  H    0.996881
    67  H    1.011769
    68  H    1.002863
    69  H    0.989000
    70  H    1.004115
    71  H    0.994756
    72  H    0.998187
    73  H    0.982455
    74  H    0.987091
    75  H    0.980124
    76  H    0.993095
    77  H    0.996668
    78  H    0.998293
    79  H    0.993766
    80  Mg  12.000564
    81  C    6.005660
    82  C    6.000513
    83  C    5.994232
    84  C    5.996739
    85  N    7.003948
    86  C    5.993866
    87  C    6.002007
    88  C    5.999140
    89  C    6.004230
    90  C    5.999560
    91  C    6.000320
    92  C    6.000049
    93  H    0.999439
    94  N    6.998807
    95  C    6.006272
    96  C    6.003530
    97  C    6.002444
    98  C    6.006560
    99  C    6.000119
   100  C    6.002267
   101  O    8.005410
   102  C    5.998495
   103  N    6.995631
   104  C    6.007240
   105  C    5.998276
   106  C    6.001734
   107  C    5.996374
   108  C    6.000220
   109  C    6.001688
   110  C    5.999841
   111  N    7.000767
   112  C    5.995076
   113  C    5.994330
   114  C    5.999168
   115  C    5.994644
   116  C    6.000568
   117  C    5.997646
   118  O    7.993623
   119  C    5.999702
   120  C    5.999265
   121  O    7.999557
   122  O    7.999764
   123  C    6.000331
   124  H    1.002804
   125  H    1.000120
   126  H    0.997110
   127  H    1.000282
   128  H    1.000596
   129  H    0.999893
   130  H    1.000353
   131  H    1.002491
   132  H    0.998788
   133  H    1.000915
   134  H    1.001067
   135  H    1.000002
   136  H    1.003152
   137  H    1.002719
   138  H    1.002597
   139  H    1.000941
   140  H    1.002523
   141  H    1.001624
   142  H    0.999576
   143  H    0.999019
   144  H    1.000649
   145  H    1.001133
   146  H    0.998807
   147  H    0.998016
   148  H    1.000577
   149  H    1.001146
   150  H    0.997095
   151  H    0.999071
   152  H    0.996313
   153  H    0.997094
   154  H    0.997090
   155  H    0.998664
   156  H    0.998786
   157  H    0.999712
   158  H    0.999659
 Sum of Mulliken charges = 624.00000

 Dipole moment (field-independent basis, Debye):
    X=              3.0758    Y=             -1.3767    Z=              8.6349  Tot=              9.2692
 Quadrupole moment (field-independent basis, Debye-Ang):
   XX=             15.0471   YY=             -2.2119   ZZ=              8.7831
   XY=            -41.0330   XZ=            251.2440   YZ=             -4.5047

 Normal termination of Gaussian 16 at Fri Oct 15 04:14:02 2021.
