 Gaussian 16, Revision A.03,
 Gaussian 16:  ES64L-G16RevA.03 25-Dec-2016

 --------------------------------------------------------
 #p PBE1PBE/Def2SVP td=(nstates=5) density=(transition=1)
 --------------------------------------------------------

 --------------------------------
 TDDFT excited states in gaussian
 --------------------------------
 Symbolic Z-matrix:
 Charge =  0 Multiplicity = 1

                         Standard orientation:
 ---------------------------------------------------------------------
 Center     Atomic      Atomic             Coordinates (Angstroms)
 Number     Number       Type             X           Y           Z
 ---------------------------------------------------------------------
      1         12           0      -27.448329   -0.538412   -0.339251
      2          6           0      -25.675700    2.577380   -0.390175
      3          6           0      -29.422124    0.763976    2.170620
      4          6           0      -28.609177   -3.559561    0.108290
      5          6           0      -25.191597   -1.673167   -2.711997
      6          7           0      -27.353080    1.413588    0.989626
      7          6           0      -26.616039    2.514467    0.646183
      8          6           0      -27.143903    3.752527    1.419465
      9          6           0      -28.322864    3.164251    2.302241
     10          6           0      -28.402976    1.662772    1.842775
     11          6           0      -28.180468    3.247028    3.880235
     12          6           0      -27.630279    4.928296    0.530749
     13          6           0      -27.211577    6.304086    0.910154
     14          1           0      -26.691143    6.690283    2.347231
     15          7           0      -28.856219   -1.350849    0.992400
     16          6           0      -29.678742   -0.649509    1.873635
     17          6           0      -30.536682   -1.611730    2.591386
     18          6           0      -30.372001   -2.870043    1.894576
     19          6           0      -29.246028   -2.640891    0.959617
     20          6           0      -31.444312   -1.297275    3.741838
     21          6           0      -31.114201   -4.218895    2.044843
     22          8           0      -31.106074   -5.138658    1.199702
     23          6           0      -32.033808   -4.364984    3.189857
     24          7           0      -26.923399   -2.296257   -1.127661
     25          6           0      -27.549286   -3.447207   -0.701831
     26          6           0      -27.179216   -4.654831   -1.606888
     27          6           0      -26.347670   -3.924170   -2.752121
     28          6           0      -26.143139   -2.530568   -2.183818
     29          6           0      -26.414606   -5.875590   -0.950085
     30          6           0      -26.979633   -3.862719   -4.133675
     31          6           0      -26.244998   -4.649351   -5.239383
     32          7           0      -25.895689    0.302099   -1.501879
     33          6           0      -25.050723   -0.298593   -2.404841
     34          6           0      -24.039000    0.663014   -2.862010
     35          6           0      -24.306982    1.804887   -2.128058
     36          6           0      -25.434272    1.545606   -1.316955
     37          6           0      -22.917300    0.463656   -3.827076
     38          6           0      -23.860536    3.141079   -1.960781
     39          8           0      -22.994681    3.828939   -2.572881
     40          6           0      -24.683699    3.683390   -0.870336
     41          6           0      -23.804504    4.263686    0.204222
     42          8           0      -23.125273    3.639507    0.945625
     43          8           0      -23.954622    5.587331    0.247790
     44          6           0      -23.009490    6.375404    0.963451
     45          1           0      -30.083761    1.091915    2.975276
     46          1           0      -28.929238   -4.604422    0.114845
     47          1           0      -24.439328   -2.063298   -3.399539
     48          1           0      -26.311418    4.094049    2.035748
     49          1           0      -29.262398    3.647006    2.034996
     50          1           0      -27.344234    3.844225    4.242708
     51          1           0      -27.970263    2.234621    4.228189
     52          1           0      -29.116289    3.579948    4.330152
     53          1           0      -28.717366    5.003629    0.485659
     54          1           0      -27.289382    4.845787   -0.500878
     55          1           0      -28.060026    6.983360    0.822165
     56          1           0      -26.444771    6.614189    0.200803
     57          1           0      -31.209842   -1.956083    4.577675
     58          1           0      -32.456380   -1.512416    3.398991
     59          1           0      -31.473912   -0.227032    3.948901
     60          1           0      -31.437219   -4.295789    4.099523
     61          1           0      -32.406410   -5.387295    3.130155
     62          1           0      -32.900489   -3.709831    3.106202
     63          1           0      -28.123488   -4.995299   -2.032979
     64          1           0      -25.403050   -4.460365   -2.842617
     65          1           0      -26.254830   -5.690230    0.111486
     66          1           0      -25.504861   -6.149701   -1.485620
     67          1           0      -27.045649   -6.754926   -1.080119
     68          1           0      -27.247645   -2.873514   -4.505082
     69          1           0      -27.950243   -4.350974   -4.052954
     70          1           0      -26.127530   -4.154556   -6.203271
     71          1           0      -26.913604   -5.455909   -5.541464
     72          1           0      -25.251393   -5.010231   -4.977097
     73          1           0      -23.055544   -0.417199   -4.454695
     74          1           0      -22.004570    0.206116   -3.289964
     75          1           0      -22.762233    1.422866   -4.320855
     76          1           0      -25.287726    4.471537   -1.319097
     77          1           0      -22.104935    6.391582    0.353853
     78          1           0      -22.708699    5.880659    1.887071
     79          1           0      -23.353466    7.404711    1.068391
     80         12           0       26.555755   -0.664881    0.320348
     81          6           0       27.427901    2.213922   -1.318988
     82          6           0       25.725329    1.113099    3.031168
     83          6           0       25.973161   -3.597586    1.876940
     84          6           0       27.959717   -2.554201   -2.450687
     85          7           0       26.844718    1.461843    0.873003
     86          6           0       27.100526    2.469503    0.029947
     87          6           0       26.945147    3.891566    0.777801
     88          6           0       26.382345    3.406137    2.165819
     89          6           0       26.336584    1.867786    2.070045
     90          6           0       27.145622    3.975864    3.377335
     91          6           0       26.008228    4.889746    0.040147
     92          6           0       25.493308    6.140928    0.823930
     93          1           0       26.171209    7.529204    0.513396
     94          7           0       25.974307   -1.175474    2.232460
     95          6           0       25.584524   -0.326335    3.160363
     96          6           0       25.133029   -1.080532    4.319899
     97          6           0       25.286923   -2.479159    4.080251
     98          6           0       25.759343   -2.468211    2.678301
     99          6           0       24.725687   -0.483570    5.656820
    100          6           0       25.080892   -3.676427    5.002302
    101          8           0       25.538546   -4.779808    4.719229
    102          6           0       24.314013   -3.484467    6.263723
    103          7           0       26.963630   -2.781791   -0.205652
    104          6           0       26.582204   -3.776417    0.586844
    105          6           0       26.741123   -5.148033   -0.089853
    106          6           0       27.161211   -4.726114   -1.495419
    107          6           0       27.405547   -3.270000   -1.354834
    108          6           0       27.669767   -6.176279    0.573012
    109          6           0       26.253884   -5.232452   -2.588000
    110          6           0       26.899191   -6.221959   -3.622642
    111          7           0       27.431768   -0.301050   -1.490666
    112          6           0       27.882045   -1.143260   -2.562076
    113          6           0       28.277645   -0.359701   -3.711682
    114          6           0       28.078675    0.959448   -3.217459
    115          6           0       27.591302    0.927050   -1.904830
    116          6           0       28.630020   -0.753762   -5.102672
    117          6           0       28.049125    2.309705   -3.720300
    118          8           0       28.143796    2.814954   -4.848846
    119          6           0       27.767164    3.214650   -2.547086
    120          6           0       29.067824    3.966581   -2.188244
    121          8           0       30.218576    3.506185   -2.135027
    122          8           0       28.733448    5.261138   -1.922047
    123          6           0       29.840088    6.210213   -1.580653
    124          1           0       25.308185    1.578084    3.926856
    125          1           0       26.005313   -4.574789    2.363254
    126          1           0       28.235930   -3.187092   -3.295958
    127          1           0       27.970300    4.249467    0.865860
    128          1           0       25.341270    3.723562    2.224611
    129          1           0       26.396788    4.268749    4.112442
    130          1           0       27.701427    4.878095    3.121838
    131          1           0       27.824496    3.232083    3.794670
    132          1           0       25.083035    4.337655   -0.125040
    133          1           0       26.498546    5.266552   -0.857393
    134          1           0       25.754485    5.984685    1.871084
    135          1           0       24.429359    6.263337    0.624074
    136          1           0       24.777299    0.605032    5.638557
    137          1           0       25.392851   -0.847795    6.437679
    138          1           0       23.713406   -0.770980    5.938199
    139          1           0       23.404183   -2.962590    5.965831
    140          1           0       24.705043   -2.934051    7.118892
    141          1           0       24.046382   -4.425790    6.742495
    142          1           0       25.755047   -5.609407   -0.131357
    143          1           0       28.126261   -5.191606   -1.694872
    144          1           0       27.146927   -7.123543    0.443326
    145          1           0       27.876707   -5.897360    1.606099
    146          1           0       28.681341   -6.196144    0.167641
    147          1           0       26.024796   -4.336870   -3.164664
    148          1           0       25.357835   -5.729254   -2.217118
    149          1           0       27.953550   -6.370685   -3.388080
    150          1           0       26.834258   -5.749452   -4.603236
    151          1           0       26.377513   -7.170372   -3.751754
    152          1           0       28.427121   -1.813477   -5.255122
    153          1           0       29.714611   -0.666662   -5.156047
    154          1           0       28.020079   -0.108447   -5.736492
    155          1           0       26.993497    3.890082   -2.912723
    156          1           0       30.559029    5.840706   -0.849020
    157          1           0       29.504823    7.198359   -1.267322
    158          1           0       30.419977    6.316409   -2.497311
 ---------------------------------------------------------------------

 SCF Done:  E(RPBE1PBE) =  -4067.37503642     A.U. after   16 cycles

 Excitation energies and oscillator strengths:

 Excited State   1:      Singlet-A      1.8640 eV  665.15 nm  f=0.4039  <S**2>=0.000
     309 -> 316        0.17332
     311 -> 313        0.69406
     311 <- 313       -0.11115
 This state for optimization and/or second-order correction.
 Total Energy, E(TD-HF/TD-DFT) =  -4067.30653602
 Copying the excited state density for this state as the 1-particle RhoCI density.

 Excited State   2:      Singlet-A      1.8791 eV  659.82 nm  f=0.3899  <S**2>=0.000
     310 -> 315       -0.16661
     312 -> 314        0.69068
     312 <- 314       -0.10565

 Excited State   3:      Singlet-A      1.9288 eV  642.79 nm  f=0.0000  <S**2>=0.000
     312 -> 313        0.70711

 Excited State   4:      Singlet-A      2.0896 eV  593.33 nm  f=0.0000  <S**2>=0.000
     311 -> 314        0.70711

 Excited State   5:      Singlet-A      2.2040 eV  562.53 nm  f=0.1214  <S**2>=0.000
     309 -> 313        0.66062
     311 -> 316       -0.24066

 The electronic state is 1-A.
 Alpha  occ. eigenvalues --  -46.92574 -46.92321 -19.26287 -19.25549 -19.19749
 Alpha  occ. eigenvalues --  -19.19721 -19.19656 -19.19042 -19.19004 -19.17993
 Alpha  occ. eigenvalues --  -14.41549 -14.41440 -14.41371 -14.41174 -14.39627
 Alpha  occ. eigenvalues --  -14.39356 -14.39236 -14.38954 -10.36625 -10.35927
 Alpha  occ. eigenvalues --  -10.33142 -10.32313 -10.31594 -10.30529 -10.29402
 Alpha  occ. eigenvalues --  -10.29402 -10.29276 -10.28898 -10.28653 -10.28641
 Alpha  occ. eigenvalues --  -10.28562 -10.28272 -10.28241 -10.28094 -10.27973
 Alpha  occ. eigenvalues --  -10.27904 -10.27796 -10.27789 -10.27598 -10.27493
 Alpha  occ. eigenvalues --  -10.26864 -10.26758 -10.26736 -10.26425 -10.26273
 Alpha  occ. eigenvalues --  -10.26193 -10.26151 -10.26134 -10.26106 -10.26094
 Alpha  occ. eigenvalues --  -10.25876 -10.25824 -10.25817 -10.25674 -10.25584
 Alpha  occ. eigenvalues --  -10.25572 -10.25437 -10.25305 -10.25178 -10.25127
 Alpha  occ. eigenvalues --  -10.25011 -10.24943 -10.24823 -10.24620 -10.24496
 Alpha  occ. eigenvalues --  -10.24437 -10.24351 -10.24314 -10.24307 -10.24041
 Alpha  occ. eigenvalues --  -10.23950 -10.23892 -10.23825 -10.23764 -10.23705
 Alpha  occ. eigenvalues --  -10.23640 -10.23622 -10.23461 -10.23452 -10.23152
 Alpha  occ. eigenvalues --  -10.23137 -10.23026 -10.22937 -10.22880 -10.22612
 Alpha  occ. eigenvalues --  -10.22193  -3.14680  -3.14477  -1.87512  -1.87301
 Alpha  occ. eigenvalues --   -1.87048  -1.86916  -1.86866  -1.86699  -1.13326
 Alpha  occ. eigenvalues --   -1.10341  -1.05030  -1.04443  -1.03236  -1.02743
 Alpha  occ. eigenvalues --   -1.02558  -1.01369  -1.00327  -0.99358  -0.99035
 Alpha  occ. eigenvalues --   -0.98560  -0.98380  -0.97667  -0.97256  -0.96552
 Alpha  occ. eigenvalues --   -0.87798  -0.85661  -0.84221  -0.83489  -0.82992
 Alpha  occ. eigenvalues --   -0.82752  -0.82712  -0.82476  -0.81913  -0.81773
 Alpha  occ. eigenvalues --   -0.81462  -0.81310  -0.81302  -0.80645  -0.78858
 Alpha  occ. eigenvalues --   -0.78459  -0.77819  -0.77592  -0.76887  -0.76495
 Alpha  occ. eigenvalues --   -0.76386  -0.76364  -0.76048  -0.75391  -0.74870
 Alpha  occ. eigenvalues --   -0.74413  -0.72855  -0.72699  -0.72017  -0.71831
 Alpha  occ. eigenvalues --   -0.71473  -0.71031  -0.70621  -0.70389  -0.69694
 Alpha  occ. eigenvalues --   -0.69628  -0.67562  -0.67097  -0.66138  -0.65987
 Alpha  occ. eigenvalues --   -0.63773  -0.63749  -0.63444  -0.63409  -0.62205
 Alpha  occ. eigenvalues --   -0.61981  -0.61885  -0.60781  -0.60379  -0.60288
 Alpha  occ. eigenvalues --   -0.59460  -0.59456  -0.59263  -0.58983  -0.58913
 Alpha  occ. eigenvalues --   -0.58425  -0.57532  -0.57203  -0.55228  -0.54755
 Alpha  occ. eigenvalues --   -0.54497  -0.54228  -0.53928  -0.53506  -0.53468
 Alpha  occ. eigenvalues --   -0.53256  -0.52815  -0.52611  -0.52385  -0.51871
 Alpha  occ. eigenvalues --   -0.50896  -0.50891  -0.50755  -0.50228  -0.49663
 Alpha  occ. eigenvalues --   -0.49658  -0.49520  -0.49108  -0.48637  -0.48343
 Alpha  occ. eigenvalues --   -0.48301  -0.47998  -0.47995  -0.47772  -0.47654
 Alpha  occ. eigenvalues --   -0.47328  -0.47139  -0.47081  -0.46985  -0.46767
 Alpha  occ. eigenvalues --   -0.46371  -0.46222  -0.46147  -0.45955  -0.45840
 Alpha  occ. eigenvalues --   -0.45756  -0.45658  -0.45325  -0.45014  -0.44768
 Alpha  occ. eigenvalues --   -0.44627  -0.44571  -0.44394  -0.44375  -0.44211
 Alpha  occ. eigenvalues --   -0.43958  -0.43897  -0.43729  -0.43603  -0.43554
 Alpha  occ. eigenvalues --   -0.43422  -0.43277  -0.43191  -0.42994  -0.42952
 Alpha  occ. eigenvalues --   -0.42852  -0.42454  -0.42421  -0.42284  -0.42118
 Alpha  occ. eigenvalues --   -0.41942  -0.41566  -0.41516  -0.41461  -0.41166
 Alpha  occ. eigenvalues --   -0.40948  -0.40915  -0.40896  -0.40663  -0.40635
 Alpha  occ. eigenvalues --   -0.40465  -0.40083  -0.39704  -0.39558  -0.39551
 Alpha  occ. eigenvalues --   -0.39292  -0.39267  -0.39131  -0.39112  -0.38849
 Alpha  occ. eigenvalues --   -0.38795  -0.38664  -0.38478  -0.38362  -0.38332
 Alpha  occ. eigenvalues --   -0.38026  -0.37753  -0.37671  -0.37621  -0.37442
 Alpha  occ. eigenvalues --   -0.36999  -0.36864  -0.36842  -0.36791  -0.36732
 Alpha  occ. eigenvalues --   -0.36619  -0.36522  -0.36374  -0.36316  -0.36142
 Alpha  occ. eigenvalues --   -0.35946  -0.35841  -0.35677  -0.35388  -0.35209
 Alpha  occ. eigenvalues --   -0.34972  -0.34654  -0.34217  -0.34001  -0.33954
 Alpha  occ. eigenvalues --   -0.33229  -0.33217  -0.32885  -0.32868  -0.32083
 Alpha  occ. eigenvalues --   -0.32009  -0.31660  -0.31390  -0.31261  -0.31199
 Alpha  occ. eigenvalues --   -0.31014  -0.30914  -0.29503  -0.29495  -0.29269
 Alpha  occ. eigenvalues --   -0.29130  -0.28670  -0.28511  -0.27110  -0.26773
 Alpha  occ. eigenvalues --   -0.26620  -0.26143  -0.26136  -0.26043  -0.25693
 Alpha  occ. eigenvalues --   -0.25359  -0.25338  -0.24788  -0.21024  -0.20854
 Alpha  occ. eigenvalues --   -0.18947  -0.18726
 Alpha virt. eigenvalues --   -0.11391  -0.11025  -0.05328  -0.05062  -0.04373
 Alpha virt. eigenvalues --   -0.03581  -0.02404  -0.01871  -0.00835  -0.00528
 Alpha virt. eigenvalues --    0.00791   0.00954   0.01163   0.01642   0.01719

 Mulliken charges:
               1
     1  Mg  12.000108
     2  C    5.980268
     3  C    6.003372
     4  C    6.027171
     5  C    5.996895
     6  N    6.993873
     7  C    6.028833
     8  C    5.990439
     9  C    6.005845
    10  C    5.974968
    11  C    6.002135
    12  C    5.997786
    13  C    5.999047
    14  H    1.004942
    15  N    7.003748
    16  C    5.960246
    17  C    5.980415
    18  C    5.986587
    19  C    5.966867
    20  C    6.002585
    21  C    5.985100
    22  O    7.970544
    23  C    6.007304
    24  N    7.007335
    25  C    5.963857
    26  C    6.012005
    27  C    5.991756
    28  C    6.027682
    29  C    5.999083
    30  C    5.991704
    31  C    5.998722
    32  N    6.997747
    33  C    6.030632
    34  C    6.034552
    35  C    5.999229
    36  C    6.029988
    37  C    5.997550
    38  C    6.017383
    39  O    8.029862
    40  C    5.994811
    41  C    6.005454
    42  O    8.004952
    43  O    8.001699
    44  C    5.998679
    45  H    0.990039
    46  H    0.995071
    47  H    1.012046
    48  H    0.999435
    49  H    0.998583
    50  H    0.988501
    51  H    1.003930
    52  H    0.999172
    53  H    1.008328
    54  H    0.992953
    55  H    1.003367
    56  H    0.995040
    57  H    0.982925
    58  H    0.982609
    59  H    0.983556
    60  H    0.992477
    61  H    0.985652
    62  H    0.992890
    63  H    1.000971
    64  H    1.001758
    65  H    1.003017
    66  H    0.990862
    67  H    1.000921
    68  H    0.998261
    69  H    1.013319
    70  H    0.999742
    71  H    1.006351
    72  H    1.000583
    73  H    1.017771
    74  H    1.021874
    75  H    1.014585
    76  H    1.009841
    77  H    0.999949
    78  H    1.004692
    79  H    1.005170
    80  Mg  11.999989
    81  C    6.000120
    82  C    5.999935
    83  C    5.999969
    84  C    6.000011
    85  N    7.000015
    86  C    5.999849
    87  C    6.000033
    88  C    5.999961
    89  C    6.000117
    90  C    6.000004
    91  C    6.000014
    92  C    5.999997
    93  H    1.000009
    94  N    6.999937
    95  C    6.000103
    96  C    6.000060
    97  C    6.000047
    98  C    6.000056
    99  C    6.000017
   100  C    6.000038
   101  O    8.000094
   102  C    6.000001
   103  N    7.000009
   104  C    6.000124
   105  C    5.999973
   106  C    6.000038
   107  C    5.999890
   108  C    5.999997
   109  C    6.000007
   110  C    5.999994
   111  N    7.000005
   112  C    5.999924
   113  C    5.999907
   114  C    6.000004
   115  C    5.999921
   116  C    5.999987
   117  C    5.999930
   118  O    7.999910
   119  C    5.999980
   120  C    5.999986
   121  O    8.000012
   122  O    7.999977
   123  C    5.999989
   124  H    1.000008
   125  H    1.000039
   126  H    0.999982
   127  H    1.000019
   128  H    0.999980
   129  H    0.999991
   130  H    1.000030
   131  H    1.000018
   132  H    0.999966
   133  H    1.000011
   134  H    0.999997
   135  H    0.999961
   136  H    1.000048
   137  H    1.000066
   138  H    1.000027
   139  H    0.999983
   140  H    1.000037
   141  H    1.000043
   142  H    0.999985
   143  H    1.000017
   144  H    1.000013
   145  H    1.000001
   146  H    1.000046
   147  H    0.999991
   148  H    0.999955
   149  H    1.000021
   150  H    0.999998
   151  H    0.999985
   152  H    0.999957
   153  H    0.999984
   154  H    0.999955
   155  H    0.999950
   156  H    1.000010
   157  H    0.999983
   158  H    1.000006
 Sum of Mulliken charges = 624.00000

 Dipole moment (field-independent basis, Debye):
    X=              7.8207    Y=              3.8877    Z=             -6.1636  Tot=             10.6896
 Quadrupole moment (field-independent basis, Debye-Ang):
   XX=           -427.3218   YY=             -2.4856   ZZ=              2.4055
   XY=           -109.9943   XZ=            169.3904   YZ=              4.3091

 Normal termination of Gaussian 16 at Fri Oct 15 10:30:00 2021.
