 Gaussian 16, Revision A.03,
 Gaussian 16:  ES64L-G16RevA.03 25-Dec-2016

 --------------------------------------------------------
 #p PBE1PBE/Def2SVP td=(nstates=5) density=(transition=1)
 --------------------------------------------------------

 --------------------------------
 TDDFT excited states in gaussian
 --------------------------------
 Symbolic Z-matrix:
 Charge =  0 Multiplicity = 1

                         Standard orientation:
 ---------------------------------------------------------------------
 Center     Atomic      Atomic             Coordinates (Angstroms)
 Number     Number       Type             X           Y           Z
 ---------------------------------------------------------------------
      1         12           0      -21.633879    0.212392   -0.530845
      2          6           0      -18.307599   -0.918783   -0.450221
      3          6           0      -22.672356   -3.065237   -0.501497
      4          6           0      -24.664010    1.349692    0.155014
      5          6           0      -20.431141    3.546394   -0.294842
      6          7           0      -20.615480   -1.724104   -0.226625
      7          6           0      -19.218361   -1.971364   -0.221425
      8          6           0      -18.887534   -3.389265   -0.445333
      9          6           0      -20.326088   -4.055862   -0.559404
     10          6           0      -21.282744   -2.878164   -0.459816
     11          6           0      -20.461237   -4.968688   -1.802185
     12          6           0      -18.176451   -4.053998    0.693709
     13          6           0      -18.603888   -3.642067    2.110315
     14          1           0      -18.631748   -4.683033    3.296402
     15          7           0      -23.473592   -0.709573   -0.243004
     16          6           0      -23.681451   -2.031142   -0.397632
     17          6           0      -25.098957   -2.281161   -0.319339
     18          6           0      -25.719678   -1.013013   -0.202916
     19          6           0      -24.627147   -0.030437   -0.119414
     20          6           0      -25.758944   -3.633796   -0.327210
     21          6           0      -27.226192   -0.758209   -0.164244
     22          8           0      -28.019313   -1.677415   -0.223262
     23          6           0      -27.923958    0.550981    0.057737
     24          7           0      -22.401655    2.116950    0.123544
     25          6           0      -23.739742    2.349907    0.298503
     26          6           0      -24.051546    3.881539    0.356587
     27          6           0      -22.628497    4.496832    0.517770
     28          6           0      -21.765224    3.335898    0.074829
     29          6           0      -24.763011    4.463738   -0.888634
     30          6           0      -22.158231    4.798405    2.018540
     31          6           0      -21.531002    6.121273    2.272019
     32          7           0      -19.845485    1.156543   -0.501425
     33          6           0      -19.550669    2.460191   -0.595254
     34          6           0      -18.121286    2.637076   -1.054005
     35          6           0      -17.639899    1.289235   -1.048101
     36          6           0      -18.682235    0.448254   -0.565441
     37          6           0      -17.339726    3.898208   -1.393088
     38          6           0      -16.437725    0.517094   -1.175716
     39          8           0      -15.293588    0.862584   -1.424978
     40          6           0      -16.845805   -0.968583   -0.816666
     41          6           0      -16.126766   -1.324691    0.467969
     42          8           0      -16.317433   -0.882789    1.552570
     43          8           0      -15.258641   -2.360076    0.193998
     44          6           0      -14.706728   -2.999214    1.392839
     45          1           0      -22.989539   -4.092596   -0.691252
     46          1           0      -25.673464    1.761188    0.205570
     47          1           0      -20.151092    4.600051   -0.356544
     48          1           0      -18.267407   -3.445527   -1.339965
     49          1           0      -20.662068   -4.620778    0.310070
     50          1           0      -20.897972   -5.857142   -1.345755
     51          1           0      -19.456125   -5.118386   -2.196608
     52          1           0      -21.167644   -4.585234   -2.538698
     53          1           0      -17.091968   -4.078999    0.583806
     54          1           0      -18.309304   -5.134842    0.745764
     55          1           0      -19.592868   -3.200215    1.984074
     56          1           0      -17.923429   -2.816421    2.319343
     57          1           0      -26.512389   -3.706436    0.457802
     58          1           0      -25.001453   -4.415104   -0.266235
     59          1           0      -26.248866   -3.681148   -1.300046
     60          1           0      -27.783545    0.995978    1.042282
     61          1           0      -28.965842    0.230544    0.068941
     62          1           0      -27.870250    1.217876   -0.803430
     63          1           0      -24.695889    4.055085    1.218354
     64          1           0      -22.457997    5.366839   -0.116886
     65          1           0      -24.070581    5.130340   -1.402404
     66          1           0      -25.766104    4.818803   -0.652910
     67          1           0      -24.956642    3.650039   -1.586647
     68          1           0      -21.499952    4.012356    2.387817
     69          1           0      -23.080186    4.728417    2.596030
     70          1           0      -22.034047    6.688691    3.054741
     71          1           0      -21.454041    6.744791    1.380988
     72          1           0      -20.509324    6.020686    2.637295
     73          1           0      -16.482237    3.917665   -0.720434
     74          1           0      -18.040613    4.733889   -1.389212
     75          1           0      -16.921577    3.721571   -2.383989
     76          1           0      -16.610585   -1.667785   -1.618782
     77          1           0      -15.381790   -2.957284    2.247500
     78          1           0      -13.803778   -2.422194    1.592658
     79          1           0      -14.353517   -3.977703    1.068545
     80         12           0       20.797848    0.691063   -0.430691
     81          6           0       21.314357   -2.689743    0.174627
     82          6           0       17.800599    0.494538    1.449850
     83          6           0       20.845015    4.003899    0.001801
     84          6           0       24.098081    0.844931   -1.660916
     85          7           0       19.845454   -0.907448    1.014923
     86          6           0       20.143123   -2.236875    0.835059
     87          6           0       19.183960   -3.118641    1.571313
     88          6           0       17.932068   -2.143606    1.756928
     89          6           0       18.529089   -0.730877    1.422945
     90          6           0       16.635405   -2.482547    0.862243
     91          6           0       19.876980   -3.735265    2.893031
     92          6           0       19.317682   -4.989421    3.340793
     93          1           0       18.844436   -4.966252    4.809673
     94          7           0       19.443615    2.082205    0.409950
     95          6           0       18.254734    1.800253    1.139392
     96          6           0       17.638176    3.071689    1.478505
     97          6           0       18.486178    4.122957    1.052932
     98          6           0       19.625618    3.421092    0.371920
     99          6           0       16.407021    3.154044    2.301661
    100          6           0       18.216412    5.659792    1.337007
    101          8           0       17.188724    5.939342    1.952392
    102          6           0       18.993125    6.762257    0.625415
    103          7           0       22.314190    2.140005   -0.698830
    104          6           0       21.998128    3.451802   -0.553388
    105          6           0       23.287348    4.452557   -0.813829
    106          6           0       24.272265    3.433166   -1.563747
    107          6           0       23.567009    2.056583   -1.349731
    108          6           0       23.005799    5.716119   -1.712031
    109          6           0       25.689380    3.432533   -0.987369
    110          6           0       26.908661    3.769167   -1.878922
    111          7           0       22.264082   -0.664744   -0.955838
    112          6           0       23.511636   -0.456529   -1.468331
    113          6           0       24.110949   -1.725625   -1.776652
    114          6           0       23.253218   -2.645188   -1.063502
    115          6           0       22.172456   -1.904742   -0.554950
    116          6           0       25.460399   -1.949791   -2.395511
    117          6           0       23.138018   -4.024466   -0.637889
    118          8           0       23.754820   -4.987146   -0.980223
    119          6           0       21.794616   -4.174658    0.176967
    120          6           0       20.726659   -5.064429   -0.496536
    121          8           0       20.364105   -4.953750   -1.648000
    122          8           0       20.321663   -6.076058    0.398530
    123          6           0       19.462184   -7.094358   -0.125232
    124          1           0       16.854461    0.354795    1.975384
    125          1           0       21.019510    5.032559    0.323550
    126          1           0       25.108245    0.939420   -2.063529
    127          1           0       18.736357   -3.875476    0.926313
    128          1           0       17.641962   -2.165956    2.807995
    129          1           0       15.835413   -2.664487    1.579772
    130          1           0       16.783592   -3.341719    0.208783
    131          1           0       16.419959   -1.581929    0.286562
    132          1           0       19.688392   -2.975141    3.650967
    133          1           0       20.928448   -3.708635    2.605740
    134          1           0       20.105642   -5.731150    3.215806
    135          1           0       18.434964   -5.236900    2.751227
    136          1           0       15.913618    2.185888    2.385407
    137          1           0       15.669631    3.785395    1.805297
    138          1           0       16.629384    3.491078    3.314387
    139          1           0       20.048630    6.801535    0.896450
    140          1           0       18.501789    7.707984    0.856431
    141          1           0       18.879697    6.596359   -0.445959
    142          1           0       23.647201    4.658837    0.193794
    143          1           0       24.287251    3.524026   -2.650070
    144          1           0       23.097078    6.620982   -1.111911
    145          1           0       21.992444    5.658932   -2.111255
    146          1           0       23.750200    5.702902   -2.508867
    147          1           0       25.903984    2.509091   -0.449981
    148          1           0       25.830681    4.084665   -0.125627
    149          1           0       27.598053    2.958553   -2.116586
    150          1           0       27.493548    4.479409   -1.293989
    151          1           0       26.595670    4.197860   -2.831710
    152          1           0       25.472590   -2.974557   -2.767558
    153          1           0       26.276499   -2.088713   -1.687139
    154          1           0       25.767580   -1.195006   -3.118936
    155          1           0       22.122738   -4.664100    1.094392
    156          1           0       18.940216   -7.390522    0.785257
    157          1           0       20.015663   -7.987428   -0.414853
    158          1           0       18.868959   -6.714036   -0.955857
 ---------------------------------------------------------------------

 SCF Done:  E(RPBE1PBE) =  -4067.33833630     A.U. after   16 cycles

 Excitation energies and oscillator strengths:

 Excited State   1:      Singlet-A      1.8292 eV  677.79 nm  f=0.3993  <S**2>=0.000
     309 -> 315        0.16329
     311 -> 313       -0.13604
     312 -> 314        0.68199
     312 <- 314       -0.11258
 This state for optimization and/or second-order correction.
 Total Energy, E(TD-HF/TD-DFT) =  -4067.27111290
 Copying the excited state density for this state as the 1-particle RhoCI density.

 Excited State   2:      Singlet-A      1.8325 eV  676.60 nm  f=0.3452  <S**2>=0.000
     310 -> 316        0.16598
     311 -> 313        0.68191
     312 -> 314        0.13599
     311 <- 313       -0.10893

 Excited State   3:      Singlet-A      1.9383 eV  639.65 nm  f=0.0000  <S**2>=0.000
     312 -> 313        0.70711

 Excited State   4:      Singlet-A      1.9704 eV  629.24 nm  f=0.0000  <S**2>=0.000
     311 -> 314        0.70710

 Excited State   5:      Singlet-A      2.2475 eV  551.66 nm  f=0.1023  <S**2>=0.000
     310 -> 313        0.64692
     311 -> 316       -0.27105

 The electronic state is 1-A.
 Alpha  occ. eigenvalues --  -46.93176 -46.91963 -19.25810 -19.25258 -19.20959
 Alpha  occ. eigenvalues --  -19.20590 -19.19724 -19.19359 -19.18620 -19.18424
 Alpha  occ. eigenvalues --  -14.41883 -14.41695 -14.41640 -14.41411 -14.39733
 Alpha  occ. eigenvalues --  -14.39249 -14.39119 -14.38821 -10.37136 -10.36238
 Alpha  occ. eigenvalues --  -10.33385 -10.32136 -10.31726 -10.31293 -10.29383
 Alpha  occ. eigenvalues --  -10.29173 -10.28998 -10.28691 -10.28664 -10.28615
 Alpha  occ. eigenvalues --  -10.28531 -10.28490 -10.28451 -10.28437 -10.28404
 Alpha  occ. eigenvalues --  -10.28393 -10.28352 -10.28066 -10.27649 -10.27586
 Alpha  occ. eigenvalues --  -10.27087 -10.27073 -10.26544 -10.26489 -10.26328
 Alpha  occ. eigenvalues --  -10.26241 -10.26227 -10.26146 -10.26118 -10.26022
 Alpha  occ. eigenvalues --  -10.25957 -10.25934 -10.25934 -10.25852 -10.25796
 Alpha  occ. eigenvalues --  -10.25672 -10.25641 -10.25623 -10.25582 -10.25477
 Alpha  occ. eigenvalues --  -10.25351 -10.25327 -10.25062 -10.24719 -10.24445
 Alpha  occ. eigenvalues --  -10.24288 -10.24217 -10.24198 -10.24124 -10.24122
 Alpha  occ. eigenvalues --  -10.24117 -10.24111 -10.24080 -10.24054 -10.24041
 Alpha  occ. eigenvalues --  -10.23968 -10.23898 -10.23597 -10.23334 -10.23328
 Alpha  occ. eigenvalues --  -10.22913 -10.22896 -10.22796 -10.22779 -10.22685
 Alpha  occ. eigenvalues --  -10.22605  -3.15176  -3.14184  -1.87963  -1.87605
 Alpha  occ. eigenvalues --   -1.87364  -1.86986  -1.86564  -1.86425  -1.11993
 Alpha  occ. eigenvalues --   -1.10851  -1.05706  -1.05117  -1.04850  -1.04702
 Alpha  occ. eigenvalues --   -1.03779  -1.03583  -0.99804  -0.99211  -0.98681
 Alpha  occ. eigenvalues --   -0.97911  -0.97387  -0.97259  -0.96930  -0.96165
 Alpha  occ. eigenvalues --   -0.87536  -0.86677  -0.84143  -0.83738  -0.83512
 Alpha  occ. eigenvalues --   -0.82698  -0.82594  -0.82413  -0.81841  -0.81170
 Alpha  occ. eigenvalues --   -0.80793  -0.80634  -0.80107  -0.80070  -0.79006
 Alpha  occ. eigenvalues --   -0.78459  -0.78298  -0.77663  -0.76995  -0.76897
 Alpha  occ. eigenvalues --   -0.76353  -0.75891  -0.75474  -0.75154  -0.74804
 Alpha  occ. eigenvalues --   -0.74617  -0.72290  -0.72211  -0.71795  -0.71567
 Alpha  occ. eigenvalues --   -0.71130  -0.71009  -0.70478  -0.70354  -0.69505
 Alpha  occ. eigenvalues --   -0.69261  -0.67168  -0.67139  -0.66089  -0.65769
 Alpha  occ. eigenvalues --   -0.63936  -0.63604  -0.63287  -0.63028  -0.62923
 Alpha  occ. eigenvalues --   -0.61848  -0.61522  -0.60825  -0.60303  -0.60291
 Alpha  occ. eigenvalues --   -0.59619  -0.59329  -0.59059  -0.58899  -0.58866
 Alpha  occ. eigenvalues --   -0.58689  -0.57413  -0.56654  -0.54515  -0.54216
 Alpha  occ. eigenvalues --   -0.54074  -0.54064  -0.53536  -0.53519  -0.53404
 Alpha  occ. eigenvalues --   -0.53055  -0.52688  -0.52617  -0.52029  -0.52007
 Alpha  occ. eigenvalues --   -0.51110  -0.50830  -0.50531  -0.49965  -0.49948
 Alpha  occ. eigenvalues --   -0.49666  -0.49556  -0.49251  -0.49194  -0.48683
 Alpha  occ. eigenvalues --   -0.48601  -0.47847  -0.47610  -0.47565  -0.47331
 Alpha  occ. eigenvalues --   -0.47126  -0.46940  -0.46886  -0.46768  -0.46619
 Alpha  occ. eigenvalues --   -0.46579  -0.46293  -0.46256  -0.46177  -0.45942
 Alpha  occ. eigenvalues --   -0.45771  -0.45646  -0.45532  -0.45460  -0.44763
 Alpha  occ. eigenvalues --   -0.44617  -0.44478  -0.44268  -0.44225  -0.44168
 Alpha  occ. eigenvalues --   -0.43994  -0.43935  -0.43887  -0.43823  -0.43521
 Alpha  occ. eigenvalues --   -0.43421  -0.43408  -0.43195  -0.43119  -0.43070
 Alpha  occ. eigenvalues --   -0.42680  -0.42520  -0.42225  -0.42048  -0.41886
 Alpha  occ. eigenvalues --   -0.41804  -0.41665  -0.41600  -0.41555  -0.41453
 Alpha  occ. eigenvalues --   -0.41130  -0.41098  -0.40861  -0.40693  -0.40608
 Alpha  occ. eigenvalues --   -0.40597  -0.40389  -0.40246  -0.39971  -0.39953
 Alpha  occ. eigenvalues --   -0.39732  -0.39548  -0.39476  -0.39330  -0.39163
 Alpha  occ. eigenvalues --   -0.38841  -0.38825  -0.38697  -0.38662  -0.38439
 Alpha  occ. eigenvalues --   -0.38414  -0.38217  -0.38031  -0.37909  -0.37655
 Alpha  occ. eigenvalues --   -0.37554  -0.37455  -0.37374  -0.37305  -0.37168
 Alpha  occ. eigenvalues --   -0.37039  -0.37037  -0.37002  -0.36716  -0.36370
 Alpha  occ. eigenvalues --   -0.36064  -0.35954  -0.35872  -0.35653  -0.35330
 Alpha  occ. eigenvalues --   -0.35268  -0.34789  -0.34770  -0.34032  -0.33601
 Alpha  occ. eigenvalues --   -0.33421  -0.33140  -0.32834  -0.32741  -0.32249
 Alpha  occ. eigenvalues --   -0.32088  -0.32069  -0.31630  -0.31452  -0.31243
 Alpha  occ. eigenvalues --   -0.30742  -0.30679  -0.29905  -0.29766  -0.29408
 Alpha  occ. eigenvalues --   -0.29401  -0.28870  -0.28665  -0.26997  -0.26883
 Alpha  occ. eigenvalues --   -0.26180  -0.26085  -0.25580  -0.25503  -0.25247
 Alpha  occ. eigenvalues --   -0.25129  -0.25090  -0.24957  -0.21223  -0.21193
 Alpha  occ. eigenvalues --   -0.18788  -0.18701
 Alpha virt. eigenvalues --   -0.11263  -0.11235  -0.05316  -0.05146  -0.03999
 Alpha virt. eigenvalues --   -0.03759  -0.02309  -0.01903  -0.01435  -0.01326
 Alpha virt. eigenvalues --   -0.00115   0.00393   0.00884   0.01017   0.01411

 Mulliken charges:
               1
     1  Mg  12.001972
     2  C    6.026717
     3  C    5.992414
     4  C    5.979287
     5  C    6.006939
     6  N    7.006495
     7  C    5.961220
     8  C    6.013697
     9  C    5.991812
    10  C    6.028381
    11  C    5.998122
    12  C    6.003396
    13  C    6.005453
    14  H    0.991718
    15  N    6.992328
    16  C    6.038780
    17  C    6.021832
    18  C    6.005224
    19  C    6.041475
    20  C    5.997417
    21  C    6.010477
    22  O    8.018302
    23  C    5.996457
    24  N    6.996630
    25  C    6.032024
    26  C    5.993620
    27  C    6.005262
    28  C    5.977217
    29  C    6.000143
    30  C    6.007022
    31  C    6.000273
    32  N    7.001054
    33  C    5.966317
    34  C    5.961899
    35  C    6.005057
    36  C    5.963580
    37  C    6.000414
    38  C    5.985234
    39  O    7.975588
    40  C    5.998123
    41  C    5.997319
    42  O    7.996388
    43  O    7.997959
    44  C    6.001194
    45  H    1.012032
    46  H    1.007359
    47  H    0.989153
    48  H    0.998664
    49  H    0.998158
    50  H    1.000137
    51  H    1.011980
    52  H    0.998245
    53  H    1.003424
    54  H    0.991617
    55  H    0.990735
    56  H    1.006487
    57  H    1.015556
    58  H    1.016726
    59  H    1.017089
    60  H    1.010235
    61  H    1.010487
    62  H    1.010877
    63  H    0.999687
    64  H    1.000310
    65  H    1.011835
    66  H    1.000134
    67  H    0.995505
    68  H    1.000762
    69  H    0.986401
    70  H    0.994842
    71  H    0.999447
    72  H    1.002889
    73  H    0.982039
    74  H    0.983014
    75  H    0.981696
    76  H    0.990469
    77  H    0.996129
    78  H    0.998641
    79  H    0.995007
    80  Mg  11.999950
    81  C    6.001443
    82  C    5.996288
    83  C    5.998441
    84  C    6.004335
    85  N    6.998568
    86  C    5.994567
    87  C    6.002628
    88  C    5.997905
    89  C    6.007162
    90  C    5.999752
    91  C    6.000240
    92  C    6.000850
    93  H    0.997757
    94  N    6.999013
    95  C    6.009130
    96  C    6.002442
    97  C    6.003603
    98  C    6.005698
    99  C    5.998864
   100  C    6.002606
   101  O    8.004172
   102  C    5.999309
   103  N    7.002753
   104  C    6.004546
   105  C    5.998474
   106  C    6.001437
   107  C    5.993050
   108  C    5.999704
   109  C    6.000478
   110  C    6.000169
   111  N    6.999912
   112  C    5.991922
   113  C    5.995913
   114  C    5.998123
   115  C    5.995408
   116  C    6.000229
   117  C    5.996531
   118  O    7.994266
   119  C    5.999741
   120  C    5.998959
   121  O    7.998929
   122  O    7.999371
   123  C    6.000527
   124  H    1.001776
   125  H    1.001518
   126  H    0.998638
   127  H    0.999482
   128  H    1.000593
   129  H    1.000561
   130  H    1.002495
   131  H    0.999160
   132  H    0.997796
   133  H    1.001521
   134  H    1.000507
   135  H    0.999281
   136  H    1.003499
   137  H    1.003037
   138  H    1.003399
   139  H    1.002207
   140  H    1.002471
   141  H    1.001618
   142  H    1.000322
   143  H    0.999857
   144  H    0.999916
   145  H    0.999327
   146  H    1.001880
   147  H    1.000907
   148  H    0.998386
   149  H    1.000620
   150  H    0.999208
   151  H    0.999396
   152  H    0.997591
   153  H    0.995846
   154  H    0.996666
   155  H    0.998091
   156  H    0.998840
   157  H    0.999346
   158  H    0.999073
 Sum of Mulliken charges = 624.00000

 Dipole moment (field-independent basis, Debye):
    X=            -10.3086    Y=             -2.8348    Z=              0.9011  Tot=             10.7292
 Quadrupole moment (field-independent basis, Debye-Ang):
   XX=            335.9267   YY=             -1.4675   ZZ=             -2.0256
   XY=            124.1837   XZ=              8.8889   YZ=              4.5294

 Normal termination of Gaussian 16 at Wed Oct 13 23:18:46 2021.
