 Gaussian 16, Revision A.03,
 Gaussian 16:  ES64L-G16RevA.03 25-Dec-2016

 --------------------------------------------------------
 #p PBE1PBE/Def2SVP td=(nstates=5) density=(transition=1)
 --------------------------------------------------------

 --------------------------------
 TDDFT excited states in gaussian
 --------------------------------
 Symbolic Z-matrix:
 Charge =  0 Multiplicity = 1

                         Standard orientation:
 ---------------------------------------------------------------------
 Center     Atomic      Atomic             Coordinates (Angstroms)
 Number     Number       Type             X           Y           Z
 ---------------------------------------------------------------------
      1         12           0       25.232255   -0.486676    0.021886
      2          6           0       23.610560    2.597345    0.632882
      3          6           0       25.202038    0.289356   -3.167165
      4          6           0       25.739153   -3.710005   -0.512184
      5          6           0       24.462804   -1.277317    3.399933
      6          7           0       24.602669    1.405618   -1.052506
      7          6           0       24.080905    2.507639   -0.652998
      8          6           0       24.110099    3.568041   -1.772903
      9          6           0       24.175443    2.675098   -3.114511
     10          6           0       24.623471    1.321208   -2.422100
     11          6           0       22.833703    2.535496   -3.936965
     12          6           0       25.442286    4.478370   -1.665833
     13          6           0       25.412945    5.980388   -2.097353
     14          1           0       24.379128    6.360485   -3.220564
     15          7           0       25.650424   -1.533652   -1.603509
     16          6           0       25.640962   -0.974673   -2.872604
     17          6           0       26.022531   -2.043883   -3.861263
     18          6           0       26.216637   -3.232524   -3.040701
     19          6           0       25.880083   -2.940903   -1.644587
     20          6           0       26.077676   -1.755718   -5.349663
     21          6           0       26.691360   -4.591468   -3.506165
     22          8           0       26.800746   -5.586861   -2.776762
     23          6           0       27.092261   -4.756553   -4.915955
     24          7           0       25.216129   -2.291910    1.338328
     25          6           0       25.419418   -3.483818    0.806901
     26          6           0       25.674644   -4.557619    1.955929
     27          6           0       25.207735   -3.698535    3.252485
     28          6           0       24.981632   -2.321758    2.633590
     29          6           0       24.926795   -5.913686    1.733688
     30          6           0       26.179631   -3.627801    4.475785
     31          6           0       25.747912   -4.335167    5.734628
     32          7           0       24.430894    0.505819    1.795107
     33          6           0       24.202872    0.012545    3.064389
     34          6           0       23.522132    0.966455    3.836283
     35          6           0       23.234515    1.980947    2.903614
     36          6           0       23.757150    1.680125    1.668112
     37          6           0       23.129462    0.881647    5.224743
     38          6           0       22.656533    3.267284    2.844905
     39          8           0       22.162510    4.076232    3.676606
     40          6           0       22.637346    3.605589    1.286635
     41          6           0       22.997664    5.028570    1.063833
     42          8           0       24.062085    5.587236    1.320784
     43          8           0       21.902051    5.635861    0.372879
     44          6           0       22.024195    7.062561    0.047321
     45          1           0       25.296545    0.648014   -4.194657
     46          1           0       25.969454   -4.760738   -0.696813
     47          1           0       24.301914   -1.500741    4.457279
     48          1           0       23.113544    4.006165   -1.821408
     49          1           0       24.842462    3.170158   -3.819441
     50          1           0       21.970381    2.883454   -3.370188
     51          1           0       22.609798    1.493890   -4.166571
     52          1           0       22.970974    3.144557   -4.830374
     53          1           0       26.279510    4.002930   -2.177064
     54          1           0       25.788557    4.443805   -0.632685
     55          1           0       26.371836    6.351429   -2.460658
     56          1           0       24.987639    6.534744   -1.259827
     57          1           0       26.970614   -2.173129   -5.816379
     58          1           0       26.035006   -0.691757   -5.582717
     59          1           0       25.143035   -2.072651   -5.811715
     60          1           0       26.273347   -4.503870   -5.590069
     61          1           0       27.407619   -5.785002   -5.092114
     62          1           0       27.954166   -4.169446   -5.233022
     63          1           0       26.733347   -4.768815    2.105973
     64          1           0       24.193735   -3.949199    3.567515
     65          1           0       24.270782   -5.847432    0.865540
     66          1           0       24.477861   -6.058307    2.716568
     67          1           0       25.692503   -6.685432    1.666413
     68          1           0       26.298114   -2.575046    4.733190
     69          1           0       27.163012   -3.992446    4.178297
     70          1           0       24.870614   -4.896411    5.415726
     71          1           0       25.422647   -3.575473    6.446326
     72          1           0       26.487242   -5.041242    6.110683
     73          1           0       24.022224    0.606724    5.785799
     74          1           0       22.502210    0.031510    5.493085
     75          1           0       22.766700    1.852505    5.562803
     76          1           0       21.632198    3.411225    0.911108
     77          1           0       21.101172    7.437774   -0.395433
     78          1           0       22.733946    7.169160   -0.773249
     79          1           0       22.201659    7.624403    0.963742
     80         12           0      -24.106790   -0.825229    0.099344
     81          6           0      -25.278695    2.560000    0.480997
     82          6           0      -22.631653    0.046012   -2.767834
     83          6           0      -23.845645   -4.095350   -0.585389
     84          6           0      -26.105697   -1.635507    2.865582
     85          7           0      -24.030847    1.046302   -1.006738
     86          6           0      -24.397069    2.340413   -0.599249
     87          6           0      -23.807187    3.435826   -1.567064
     88          6           0      -23.032706    2.577511   -2.612550
     89          6           0      -23.187827    1.129852   -2.075322
     90          6           0      -23.457979    2.692870   -4.054367
     91          6           0      -22.927330    4.553310   -0.788401
     92          6           0      -23.327974    6.008178   -1.062250
     93          1           0      -22.165607    6.891752   -1.650092
     94          7           0      -23.213730   -1.882115   -1.407750
     95          6           0      -22.662424   -1.368749   -2.512151
     96          6           0      -22.155477   -2.417409   -3.398951
     97          6           0      -22.609097   -3.634125   -2.781884
     98          6           0      -23.276233   -3.247082   -1.534401
     99          6           0      -21.411831   -2.142652   -4.634964
    100          6           0      -22.472435   -5.043330   -3.439368
    101          8           0      -22.809654   -6.062186   -2.859923
    102          6           0      -21.899614   -5.247221   -4.805632
    103          7           0      -24.848777   -2.540033    0.996758
    104          6           0      -24.484245   -3.816030    0.580666
    105          6           0      -25.049111   -4.904889    1.550973
    106          6           0      -25.458609   -4.063311    2.816827
    107          6           0      -25.424962   -2.651707    2.231502
    108          6           0      -26.112847   -5.903127    0.988483
    109          6           0      -24.482102   -4.202676    4.016697
    110          6           0      -25.052748   -4.268694    5.410871
    111          7           0      -25.470348    0.205263    1.393048
    112          6           0      -26.191530   -0.263491    2.454241
    113          6           0      -26.851015    0.922680    3.156314
    114          6           0      -26.478665    2.040960    2.450244
    115          6           0      -25.698990    1.550077    1.347335
    116          6           0      -27.635405    0.778974    4.440653
    117          6           0      -26.584834    3.482757    2.314421
    118          8           0      -27.226685    4.213816    3.097417
    119          6           0      -25.850838    3.904816    0.906216
    120          6           0      -26.784327    4.433640   -0.162656
    121          8           0      -27.781752    3.777050   -0.521667
    122          8           0      -26.494486    5.750457   -0.522375
    123          6           0      -27.607848    6.393792   -1.210201
    124          1           0      -22.036681    0.277526   -3.653524
    125          1           0      -23.658773   -5.136889   -0.853831
    126          1           0      -26.604959   -1.946541    3.786117
    127          1           0      -24.707237    3.906595   -1.962034
    128          1           0      -22.039898    3.027671   -2.653557
    129          1           0      -24.315918    3.349831   -4.197979
    130          1           0      -23.856095    1.689252   -4.199988
    131          1           0      -22.663988    3.048990   -4.711458
    132          1           0      -21.914006    4.334504   -1.123995
    133          1           0      -22.920402    4.319153    0.275796
    134          1           0      -23.740380    6.396855   -0.131149
    135          1           0      -24.124648    6.025093   -1.807073
    136          1           0      -21.762335   -2.543710   -5.585450
    137          1           0      -20.508467   -2.744707   -4.544030
    138          1           0      -21.011396   -1.132867   -4.727532
    139          1           0      -20.877342   -4.872618   -4.741036
    140          1           0      -22.444016   -4.578057   -5.472514
    141          1           0      -22.016000   -6.309424   -5.017088
    142          1           0      -24.171615   -5.499362    1.805453
    143          1           0      -26.492641   -4.227355    3.119176
    144          1           0      -26.142863   -5.684955   -0.078797
    145          1           0      -27.083384   -5.848474    1.480781
    146          1           0      -25.749580   -6.931554    0.985444
    147          1           0      -23.928185   -3.277603    3.858121
    148          1           0      -23.764449   -5.018813    3.930605
    149          1           0      -24.485479   -5.047226    5.921098
    150          1           0      -26.099939   -4.572187    5.431500
    151          1           0      -24.751450   -3.341669    5.899289
    152          1           0      -27.649019   -0.281758    4.690519
    153          1           0      -28.670606    1.051498    4.236466
    154          1           0      -27.214291    1.435724    5.201596
    155          1           0      -25.048764    4.606053    1.136549
    156          1           0      -28.107154    7.183837   -0.651006
    157          1           0      -28.377776    5.703322   -1.554825
    158          1           0      -27.186796    6.843968   -2.108810
 ---------------------------------------------------------------------

 SCF Done:  E(RPBE1PBE) =  -4067.33244344     A.U. after   17 cycles

 Excitation energies and oscillator strengths:

 Excited State   1:      Singlet-A      1.8518 eV  669.54 nm  f=0.4053  <S**2>=0.000
     310 -> 316       -0.16677
     312 -> 314        0.69630
     312 <- 314       -0.11426
 This state for optimization and/or second-order correction.
 Total Energy, E(TD-HF/TD-DFT) =  -4067.26439153
 Copying the excited state density for this state as the 1-particle RhoCI density.

 Excited State   2:      Singlet-A      1.9019 eV  651.89 nm  f=0.0000  <S**2>=0.000
     312 -> 313        0.70711

 Excited State   3:      Singlet-A      1.9488 eV  636.21 nm  f=0.3530  <S**2>=0.000
     309 -> 315        0.20425
     311 -> 313        0.68089

 Excited State   4:      Singlet-A      2.2125 eV  560.39 nm  f=0.0831  <S**2>=0.000
     309 -> 313        0.64638
     311 -> 315       -0.26599

 Excited State   5:      Singlet-A      2.2134 eV  560.15 nm  f=0.0000  <S**2>=0.000
     311 -> 314        0.70711

 The electronic state is 1-A.
 Alpha  occ. eigenvalues --  -46.92814 -46.91815 -19.27242 -19.24645 -19.20973
 Alpha  occ. eigenvalues --  -19.20431 -19.20040 -19.19202 -19.18882 -19.18788
 Alpha  occ. eigenvalues --  -14.42072 -14.41680 -14.41240 -14.41174 -14.39687
 Alpha  occ. eigenvalues --  -14.39274 -14.39080 -14.38324 -10.37743 -10.36322
 Alpha  occ. eigenvalues --  -10.33557 -10.32227 -10.32200 -10.31691 -10.29293
 Alpha  occ. eigenvalues --  -10.29269 -10.28903 -10.28805 -10.28688 -10.28426
 Alpha  occ. eigenvalues --  -10.28422 -10.28369 -10.28333 -10.28262 -10.28095
 Alpha  occ. eigenvalues --  -10.28015 -10.27973 -10.27951 -10.27614 -10.27445
 Alpha  occ. eigenvalues --  -10.27381 -10.26864 -10.26727 -10.26538 -10.26513
 Alpha  occ. eigenvalues --  -10.26475 -10.26403 -10.26369 -10.26318 -10.26181
 Alpha  occ. eigenvalues --  -10.26098 -10.26094 -10.26083 -10.25777 -10.25525
 Alpha  occ. eigenvalues --  -10.25512 -10.25511 -10.25449 -10.25434 -10.25353
 Alpha  occ. eigenvalues --  -10.25213 -10.25150 -10.25128 -10.25120 -10.24877
 Alpha  occ. eigenvalues --  -10.24649 -10.24638 -10.24625 -10.24153 -10.23990
 Alpha  occ. eigenvalues --  -10.23912 -10.23887 -10.23652 -10.23536 -10.23535
 Alpha  occ. eigenvalues --  -10.23466 -10.23378 -10.23323 -10.23302 -10.23088
 Alpha  occ. eigenvalues --  -10.23059 -10.22992 -10.22943 -10.22872 -10.22847
 Alpha  occ. eigenvalues --  -10.22415  -3.14850  -3.14041  -1.87693  -1.87233
 Alpha  occ. eigenvalues --   -1.87059  -1.86863  -1.86399  -1.86291  -1.10996
 Alpha  occ. eigenvalues --   -1.08706  -1.04966  -1.04120  -1.03649  -1.02643
 Alpha  occ. eigenvalues --   -1.02063  -1.01566  -1.00461  -0.99883  -0.98579
 Alpha  occ. eigenvalues --   -0.98253  -0.97992  -0.97244  -0.96529  -0.96110
 Alpha  occ. eigenvalues --   -0.87394  -0.86882  -0.83858  -0.83440  -0.83009
 Alpha  occ. eigenvalues --   -0.82963  -0.82387  -0.82218  -0.81930  -0.81667
 Alpha  occ. eigenvalues --   -0.81633  -0.81574  -0.81141  -0.80395  -0.78617
 Alpha  occ. eigenvalues --   -0.78578  -0.78291  -0.77918  -0.77025  -0.76980
 Alpha  occ. eigenvalues --   -0.76253  -0.76173  -0.75812  -0.75500  -0.75044
 Alpha  occ. eigenvalues --   -0.74555  -0.73300  -0.72823  -0.72075  -0.71909
 Alpha  occ. eigenvalues --   -0.71299  -0.71210  -0.70483  -0.70249  -0.69605
 Alpha  occ. eigenvalues --   -0.69145  -0.67730  -0.66854  -0.66770  -0.65453
 Alpha  occ. eigenvalues --   -0.63433  -0.63419  -0.62973  -0.62791  -0.62337
 Alpha  occ. eigenvalues --   -0.62190  -0.61646  -0.61195  -0.60457  -0.60116
 Alpha  occ. eigenvalues --   -0.60052  -0.59754  -0.59479  -0.59414  -0.59184
 Alpha  occ. eigenvalues --   -0.58895  -0.57141  -0.55854  -0.55102  -0.54918
 Alpha  occ. eigenvalues --   -0.54754  -0.54278  -0.53933  -0.53291  -0.53135
 Alpha  occ. eigenvalues --   -0.53059  -0.52899  -0.52342  -0.51955  -0.51902
 Alpha  occ. eigenvalues --   -0.51516  -0.50860  -0.50367  -0.50028  -0.49930
 Alpha  occ. eigenvalues --   -0.49648  -0.49321  -0.48859  -0.48576  -0.48376
 Alpha  occ. eigenvalues --   -0.48163  -0.48120  -0.47763  -0.47704  -0.47564
 Alpha  occ. eigenvalues --   -0.47227  -0.47101  -0.47048  -0.46887  -0.46681
 Alpha  occ. eigenvalues --   -0.46434  -0.46200  -0.46119  -0.46047  -0.45922
 Alpha  occ. eigenvalues --   -0.45753  -0.45713  -0.45526  -0.45315  -0.45088
 Alpha  occ. eigenvalues --   -0.45009  -0.44902  -0.44505  -0.44262  -0.44137
 Alpha  occ. eigenvalues --   -0.43950  -0.43859  -0.43798  -0.43451  -0.43402
 Alpha  occ. eigenvalues --   -0.43299  -0.43286  -0.43064  -0.42983  -0.42802
 Alpha  occ. eigenvalues --   -0.42676  -0.42617  -0.42495  -0.42330  -0.42041
 Alpha  occ. eigenvalues --   -0.41910  -0.41700  -0.41686  -0.41556  -0.41518
 Alpha  occ. eigenvalues --   -0.41178  -0.41094  -0.40918  -0.40810  -0.40689
 Alpha  occ. eigenvalues --   -0.40436  -0.40331  -0.40172  -0.40090  -0.39758
 Alpha  occ. eigenvalues --   -0.39318  -0.39102  -0.39017  -0.38891  -0.38859
 Alpha  occ. eigenvalues --   -0.38813  -0.38760  -0.38607  -0.38428  -0.38426
 Alpha  occ. eigenvalues --   -0.38164  -0.37921  -0.37836  -0.37811  -0.37614
 Alpha  occ. eigenvalues --   -0.37516  -0.37462  -0.36795  -0.36634  -0.36582
 Alpha  occ. eigenvalues --   -0.36499  -0.36397  -0.36002  -0.35994  -0.35891
 Alpha  occ. eigenvalues --   -0.35672  -0.35663  -0.35543  -0.35525  -0.35295
 Alpha  occ. eigenvalues --   -0.35079  -0.35036  -0.34427  -0.34064  -0.33996
 Alpha  occ. eigenvalues --   -0.33520  -0.33301  -0.32901  -0.32816  -0.32467
 Alpha  occ. eigenvalues --   -0.32464  -0.32264  -0.31583  -0.31521  -0.31140
 Alpha  occ. eigenvalues --   -0.31066  -0.30701  -0.29820  -0.29815  -0.29641
 Alpha  occ. eigenvalues --   -0.28977  -0.28816  -0.28546  -0.27444  -0.27089
 Alpha  occ. eigenvalues --   -0.26363  -0.26070  -0.25970  -0.25883  -0.25612
 Alpha  occ. eigenvalues --   -0.25439  -0.25317  -0.25039  -0.21135  -0.21066
 Alpha  occ. eigenvalues --   -0.19336  -0.18455
 Alpha virt. eigenvalues --   -0.11197  -0.10935  -0.06091  -0.04850  -0.04447
 Alpha virt. eigenvalues --   -0.04286  -0.02261  -0.02169  -0.01697  -0.00804
 Alpha virt. eigenvalues --   -0.00568  -0.00056   0.00361   0.01130   0.01291

 Mulliken charges:
               1
     1  Mg  12.000004
     2  C    6.000023
     3  C    5.999986
     4  C    6.000007
     5  C    6.000023
     6  N    7.000030
     7  C    6.000005
     8  C    5.999998
     9  C    6.000013
    10  C    5.999955
    11  C    6.000006
    12  C    5.999988
    13  C    6.000009
    14  H    0.999989
    15  N    6.999984
    16  C    5.999955
    17  C    5.999982
    18  C    5.999995
    19  C    5.999958
    20  C    6.000002
    21  C    5.999973
    22  O    7.999954
    23  C    6.000017
    24  N    6.999981
    25  C    5.999974
    26  C    6.000029
    27  C    5.999989
    28  C    6.000038
    29  C    5.999996
    30  C    5.999985
    31  C    6.000002
    32  N    7.000020
    33  C    6.000020
    34  C    6.000040
    35  C    5.999973
    36  C    6.000027
    37  C    5.999999
    38  C    6.000039
    39  O    8.000064
    40  C    5.999987
    41  C    6.000015
    42  O    8.000028
    43  O    7.999993
    44  C    5.999993
    45  H    0.999985
    46  H    0.999987
    47  H    1.000017
    48  H    0.999988
    49  H    1.000000
    50  H    0.999967
    51  H    0.999977
    52  H    0.999989
    53  H    1.000023
    54  H    1.000007
    55  H    1.000023
    56  H    1.000008
    57  H    0.999977
    58  H    0.999975
    59  H    0.999935
    60  H    0.999966
    61  H    0.999966
    62  H    1.000004
    63  H    1.000007
    64  H    0.999982
    65  H    0.999980
    66  H    0.999981
    67  H    1.000005
    68  H    1.000010
    69  H    1.000031
    70  H    0.999985
    71  H    1.000009
    72  H    1.000021
    73  H    1.000054
    74  H    1.000031
    75  H    1.000042
    76  H    0.999989
    77  H    1.000001
    78  H    1.000008
    79  H    1.000024
    80  Mg  12.002099
    81  C    6.019989
    82  C    5.985098
    83  C    5.987352
    84  C    6.017832
    85  N    7.005968
    86  C    5.966366
    87  C    6.008851
    88  C    5.987946
    89  C    6.032158
    90  C    5.999093
    91  C    6.004214
    92  C    6.002976
    93  H    0.990253
    94  N    6.995911
    95  C    6.037821
    96  C    6.022654
    97  C    6.011295
    98  C    6.036215
    99  C    5.994176
   100  C    6.012090
   101  O    8.023139
   102  C    5.998250
   103  N    7.000385
   104  C    6.028188
   105  C    5.992622
   106  C    6.008846
   107  C    5.970141
   108  C    6.001798
   109  C    6.001043
   110  C    6.002196
   111  N    6.997706
   112  C    5.961471
   113  C    5.967349
   114  C    5.999609
   115  C    5.969667
   116  C    6.002919
   117  C    5.980786
   118  O    7.971545
   119  C    5.995417
   120  C    5.994023
   121  O    7.995907
   122  O    7.997034
   123  C    6.003212
   124  H    1.008443
   125  H    1.007898
   126  H    0.991357
   127  H    0.999501
   128  H    1.005348
   129  H    1.011780
   130  H    0.993836
   131  H    1.002167
   132  H    0.989643
   133  H    1.004315
   134  H    1.003804
   135  H    0.998325
   136  H    1.021709
   137  H    1.018434
   138  H    1.017782
   139  H    1.005280
   140  H    1.004919
   141  H    1.013547
   142  H    0.999876
   143  H    1.001138
   144  H    0.994884
   145  H    1.010926
   146  H    1.001431
   147  H    1.000697
   148  H    0.988843
   149  H    0.995322
   150  H    0.999065
   151  H    1.003888
   152  H    0.981455
   153  H    0.980676
   154  H    0.981929
   155  H    0.991292
   156  H    0.997062
   157  H    0.996616
   158  H    0.993201
 Sum of Mulliken charges = 624.00000

 Dipole moment (field-independent basis, Debye):
    X=              5.1736    Y=             -6.0768    Z=             -7.1924  Tot=             10.7435
 Quadrupole moment (field-independent basis, Debye-Ang):
   XX=           -254.4954   YY=              6.0988   ZZ=              2.2646
   XY=            147.0818   XZ=            175.6267   YZ=              8.1939

 Normal termination of Gaussian 16 at Thu Oct 14 07:49:14 2021.
