 Gaussian 16, Revision A.03,
 Gaussian 16:  ES64L-G16RevA.03 25-Dec-2016

 --------------------------------------------------------
 #p PBE1PBE/Def2SVP td=(nstates=5) density=(transition=1)
 --------------------------------------------------------

 --------------------------------
 TDDFT excited states in gaussian
 --------------------------------
 Symbolic Z-matrix:
 Charge =  0 Multiplicity = 1

                         Standard orientation:
 ---------------------------------------------------------------------
 Center     Atomic      Atomic             Coordinates (Angstroms)
 Number     Number       Type             X           Y           Z
 ---------------------------------------------------------------------
      1         12           0      -21.271854    0.412267   -0.217466
      2          6           0      -18.674685   -1.942783   -0.403857
      3          6           0      -23.432304   -2.149496    0.341244
      4          6           0      -23.496331    2.737993    0.364849
      5          6           0      -18.644366    2.862559    0.024990
      6          7           0      -21.057351   -1.759803   -0.125376
      7          6           0      -19.917160   -2.508308   -0.206243
      8          6           0      -20.246526   -3.935802    0.255410
      9          6           0      -21.731633   -4.036355   -0.074798
     10          6           0      -22.105443   -2.559486    0.155557
     11          6           0      -21.995531   -4.473139   -1.534323
     12          6           0      -19.960249   -4.123513    1.791211
     13          6           0      -18.777165   -5.118093    2.232025
     14          1           0      -17.586744   -4.556747    3.028176
     15          7           0      -23.184533    0.314289    0.340074
     16          6           0      -23.916298   -0.839937    0.500066
     17          6           0      -25.282959   -0.475496    0.707089
     18          6           0      -25.410658    0.949496    0.607728
     19          6           0      -24.006283    1.421690    0.434975
     20          6           0      -26.424347   -1.520559    0.954039
     21          6           0      -26.770582    1.736148    0.656453
     22          8           0      -27.803931    1.141812    0.688894
     23          6           0      -26.750581    3.167184    0.378884
     24          7           0      -21.066201    2.472245    0.460246
     25          6           0      -22.177469    3.213639    0.237973
     26          6           0      -21.872554    4.662692   -0.102906
     27          6           0      -20.377932    4.772658    0.157160
     28          6           0      -19.975766    3.258572    0.229600
     29          6           0      -22.247309    5.036679   -1.584648
     30          6           0      -19.854895    5.603095    1.422056
     31          6           0      -19.178030    6.939354    1.274272
     32          7           0      -19.152004    0.519830   -0.392320
     33          6           0      -18.226872    1.565110   -0.274914
     34          6           0      -16.864978    1.086603   -0.374385
     35          6           0      -17.006316   -0.277033   -0.453735
     36          6           0      -18.398979   -0.617719   -0.438828
     37          6           0      -15.656465    1.924240   -0.305275
     38          6           0      -16.264876   -1.524804   -0.553890
     39          8           0      -15.049166   -1.710720   -0.688881
     40          6           0      -17.299648   -2.627263   -0.635403
     41          6           0      -17.122768   -3.314605   -1.984966
     42          8           0      -17.217929   -2.680046   -3.033041
     43          8           0      -16.726039   -4.652619   -1.835728
     44          6           0      -16.507364   -5.353429   -3.072806
     45          1           0      -24.117135   -2.999466    0.360845
     46          1           0      -24.301150    3.463861    0.238917
     47          1           0      -17.861013    3.622708   -0.012378
     48          1           0      -19.542355   -4.597701   -0.249329
     49          1           0      -22.186607   -4.733526    0.627698
     50          1           0      -22.707492   -5.273765   -1.336862
     51          1           0      -21.027779   -4.821166   -1.896572
     52          1           0      -22.395705   -3.717326   -2.210231
     53          1           0      -20.862002   -4.542582    2.237499
     54          1           0      -19.843534   -3.132111    2.228217
     55          1           0      -18.334436   -5.466001    1.298416
     56          1           0      -19.108116   -6.014748    2.754671
     57          1           0      -27.090191   -1.360274    1.801450
     58          1           0      -25.918945   -2.476478    1.095277
     59          1           0      -27.080743   -1.637953    0.091609
     60          1           0      -26.120493    3.747769    1.053039
     61          1           0      -27.772057    3.542485    0.440236
     62          1           0      -26.556681    3.341208   -0.678632
     63          1           0      -22.457772    5.365161    0.491462
     64          1           0      -19.869386    5.164975   -0.723519
     65          1           0      -23.208463    5.543021   -1.671887
     66          1           0      -22.133840    4.159314   -2.221384
     67          1           0      -21.497252    5.748760   -1.931807
     68          1           0      -19.323468    5.063507    2.205236
     69          1           0      -20.846576    5.790091    1.834866
     70          1           0      -19.756332    7.767239    1.683264
     71          1           0      -19.017604    7.151763    0.216997
     72          1           0      -18.229642    6.819305    1.797458
     73          1           0      -15.908479    2.823622    0.257256
     74          1           0      -15.449818    2.221327   -1.333838
     75          1           0      -14.805976    1.366006    0.083377
     76          1           0      -16.990209   -3.297635    0.165295
     77          1           0      -17.417958   -5.663190   -3.586305
     78          1           0      -15.912992   -6.254322   -2.923063
     79          1           0      -15.933806   -4.793782   -3.811177
     80         12           0       20.543713    0.666332   -0.338225
     81          6           0       20.595457   -2.736904    0.594342
     82          6           0       17.451736    0.993249    1.243067
     83          6           0       21.026889    4.039849   -0.355808
     84          6           0       23.925311    0.206636   -1.426037
     85          7           0       19.212750   -0.711086    0.730312
     86          6           0       19.443817   -2.011623    1.008755
     87          6           0       18.321798   -2.597700    1.926234
     88          6           0       17.201610   -1.470686    1.759724
     89          6           0       17.989964   -0.264066    1.155027
     90          6           0       15.974450   -1.701284    0.848891
     91          6           0       18.885445   -2.744455    3.390131
     92          6           0       18.354749   -3.990978    4.151194
     93          1           0       18.009323   -3.762692    5.679009
     94          7           0       19.287150    2.351023    0.175435
     95          6           0       18.055197    2.219687    0.759431
     96          6           0       17.526045    3.524463    0.884968
     97          6           0       18.526697    4.468840    0.508170
     98          6           0       19.686543    3.646910    0.025342
     99          6           0       16.155602    3.854456    1.427594
    100          6           0       18.484002    5.945424    0.708451
    101          8           0       17.565225    6.490417    1.298855
    102          6           0       19.519060    6.861174    0.304862
    103          7           0       22.327211    1.926831   -0.735866
    104          6           0       22.160507    3.316730   -0.825425
    105          6           0       23.380436    3.956387   -1.411005
    106          6           0       24.357777    2.758612   -1.704396
    107          6           0       23.528710    1.559366   -1.278151
    108          6           0       22.974865    4.761446   -2.652236
    109          6           0       25.808063    2.967144   -1.126272
    110          6           0       26.942743    2.900806   -2.103049
    111          7           0       22.020623   -0.945733   -0.459692
    112          6           0       23.294842   -0.954985   -0.971767
    113          6           0       23.818642   -2.337473   -1.027410
    114          6           0       22.778294   -3.025925   -0.348757
    115          6           0       21.714914   -2.173336   -0.118469
    116          6           0       25.180951   -2.839303   -1.479805
    117          6           0       22.458703   -4.297481    0.243845
    118          8           0       23.136406   -5.334371    0.317564
    119          6           0       21.061741   -4.220561    0.859270
    120          6           0       20.176726   -5.264334    0.309367
    121          8           0       19.658420   -6.076418    0.986465
    122          8           0       19.863512   -5.079429   -1.006190
    123          6           0       18.778871   -5.995914   -1.419856
    124          1           0       16.449600    1.115738    1.660315
    125          1           0       21.076506    5.127871   -0.421496
    126          1           0       24.938466   -0.117877   -1.674626
    127          1           0       18.027440   -3.566606    1.522527
    128          1           0       16.914181   -0.961180    2.679301
    129          1           0       16.211601   -2.425787    0.068984
    130          1           0       15.543253   -0.815364    0.382611
    131          1           0       15.218178   -2.157249    1.486945
    132          1           0       18.704743   -1.837163    3.967260
    133          1           0       19.964234   -2.828694    3.258553
    134          1           0       19.167151   -4.710653    4.048823
    135          1           0       17.521616   -4.313903    3.526535
    136          1           0       15.740592    4.820051    1.138357
    137          1           0       16.295107    3.809705    2.507366
    138          1           0       15.400227    3.072064    1.354041
    139          1           0       19.605574    6.778685   -0.779321
    140          1           0       20.455387    6.651184    0.822666
    141          1           0       19.211391    7.870587    0.578011
    142          1           0       23.905917    4.541743   -0.656846
    143          1           0       24.450660    2.423758   -2.737754
    144          1           0       21.900517    4.933380   -2.722282
    145          1           0       23.247961    4.247398   -3.573797
    146          1           0       23.309618    5.792396   -2.541330
    147          1           0       25.911328    2.191691   -0.367244
    148          1           0       25.984259    3.963684   -0.722994
    149          1           0       27.640991    2.151374   -1.731326
    150          1           0       27.494489    3.839909   -2.148985
    151          1           0       26.615666    2.754832   -3.132567
    152          1           0       25.942731   -2.745125   -0.705638
    153          1           0       25.516417   -2.389662   -2.415203
    154          1           0       24.986488   -3.908512   -1.563015
    155          1           0       21.111376   -4.488376    1.913908
    156          1           0       18.569709   -5.805955   -2.472921
    157          1           0       17.887035   -5.835964   -0.814088
    158          1           0       19.060206   -7.048347   -1.431927
 ---------------------------------------------------------------------

 SCF Done:  E(RPBE1PBE) =  -4067.35764615     A.U. after   16 cycles

 Excitation energies and oscillator strengths:

 Excited State   1:      Singlet-A      1.7908 eV  692.34 nm  f=0.0000  <S**2>=0.000
     312 -> 313        0.70711
 This state for optimization and/or second-order correction.
 Total Energy, E(TD-HF/TD-DFT) =  -4067.29183520
 Copying the excited state density for this state as the 1-particle RhoCI density.

 Excited State   2:      Singlet-A      1.8469 eV  671.32 nm  f=0.4001  <S**2>=0.000
     309 -> 315        0.16872
     311 -> 313        0.69406
     311 <- 313       -0.11311

 Excited State   3:      Singlet-A      1.8785 eV  660.00 nm  f=0.3474  <S**2>=0.000
     310 -> 316        0.18355
     312 -> 314        0.68991
     312 <- 314       -0.10093

 Excited State   4:      Singlet-A      2.1877 eV  566.73 nm  f=0.0000  <S**2>=0.000
     311 -> 314        0.70710

 Excited State   5:      Singlet-A      2.2121 eV  560.48 nm  f=0.1072  <S**2>=0.000
     309 -> 313        0.65188
     311 -> 315       -0.25460

 The electronic state is 1-A.
 Alpha  occ. eigenvalues --  -46.94182 -46.92076 -19.26663 -19.25693 -19.20773
 Alpha  occ. eigenvalues --  -19.20093 -19.19310 -19.18970 -19.18920 -19.17616
 Alpha  occ. eigenvalues --  -14.42408 -14.42284 -14.41639 -14.41591 -14.39576
 Alpha  occ. eigenvalues --  -14.39075 -14.38995 -14.38868 -10.37260 -10.35692
 Alpha  occ. eigenvalues --  -10.32215 -10.31815 -10.31645 -10.30680 -10.29913
 Alpha  occ. eigenvalues --  -10.29661 -10.29641 -10.29010 -10.28887 -10.28877
 Alpha  occ. eigenvalues --  -10.28864 -10.28785 -10.28713 -10.28529 -10.28397
 Alpha  occ. eigenvalues --  -10.28336 -10.27783 -10.27663 -10.27436 -10.27286
 Alpha  occ. eigenvalues --  -10.26850 -10.26836 -10.26830 -10.26809 -10.26607
 Alpha  occ. eigenvalues --  -10.26278 -10.26272 -10.26258 -10.26227 -10.26088
 Alpha  occ. eigenvalues --  -10.26004 -10.25987 -10.25980 -10.25936 -10.25808
 Alpha  occ. eigenvalues --  -10.25712 -10.25685 -10.25595 -10.25553 -10.25378
 Alpha  occ. eigenvalues --  -10.25299 -10.25283 -10.24970 -10.24881 -10.24746
 Alpha  occ. eigenvalues --  -10.24569 -10.24550 -10.24518 -10.24506 -10.24503
 Alpha  occ. eigenvalues --  -10.24395 -10.24377 -10.24367 -10.24079 -10.24024
 Alpha  occ. eigenvalues --  -10.23891 -10.23736 -10.23610 -10.23349 -10.23148
 Alpha  occ. eigenvalues --  -10.23117 -10.23031 -10.23001 -10.22808 -10.22773
 Alpha  occ. eigenvalues --  -10.22637  -3.15921  -3.14264  -1.88772  -1.88274
 Alpha  occ. eigenvalues --   -1.88136  -1.87079  -1.86654  -1.86488  -1.12703
 Alpha  occ. eigenvalues --   -1.10703  -1.06703  -1.04354  -1.03848  -1.03780
 Alpha  occ. eigenvalues --   -1.03578  -1.02995  -0.99720  -0.99375  -0.98888
 Alpha  occ. eigenvalues --   -0.98385  -0.98012  -0.97488  -0.97253  -0.96779
 Alpha  occ. eigenvalues --   -0.87372  -0.86920  -0.83693  -0.83446  -0.83348
 Alpha  occ. eigenvalues --   -0.83264  -0.82859  -0.82541  -0.82333  -0.81916
 Alpha  occ. eigenvalues --   -0.81449  -0.81256  -0.80201  -0.79324  -0.79157
 Alpha  occ. eigenvalues --   -0.78915  -0.78849  -0.78515  -0.76996  -0.76814
 Alpha  occ. eigenvalues --   -0.76756  -0.76735  -0.75375  -0.75207  -0.75180
 Alpha  occ. eigenvalues --   -0.74904  -0.72981  -0.72341  -0.71885  -0.71526
 Alpha  occ. eigenvalues --   -0.71175  -0.70771  -0.70706  -0.70582  -0.69797
 Alpha  occ. eigenvalues --   -0.69449  -0.67584  -0.67309  -0.66970  -0.66594
 Alpha  occ. eigenvalues --   -0.63773  -0.63621  -0.63405  -0.63025  -0.62491
 Alpha  occ. eigenvalues --   -0.62402  -0.61314  -0.61227  -0.60756  -0.60258
 Alpha  occ. eigenvalues --   -0.60137  -0.60081  -0.59575  -0.59404  -0.59206
 Alpha  occ. eigenvalues --   -0.59026  -0.57808  -0.57273  -0.54753  -0.54661
 Alpha  occ. eigenvalues --   -0.54610  -0.54540  -0.53734  -0.53569  -0.53481
 Alpha  occ. eigenvalues --   -0.53480  -0.52957  -0.52844  -0.52283  -0.51650
 Alpha  occ. eigenvalues --   -0.50994  -0.50845  -0.50672  -0.50597  -0.50161
 Alpha  occ. eigenvalues --   -0.49798  -0.49620  -0.49390  -0.49094  -0.48576
 Alpha  occ. eigenvalues --   -0.48195  -0.48135  -0.47974  -0.47764  -0.47688
 Alpha  occ. eigenvalues --   -0.47608  -0.47438  -0.47389  -0.47166  -0.47080
 Alpha  occ. eigenvalues --   -0.46865  -0.46745  -0.46313  -0.46295  -0.46005
 Alpha  occ. eigenvalues --   -0.45865  -0.45607  -0.45556  -0.45489  -0.45121
 Alpha  occ. eigenvalues --   -0.44745  -0.44702  -0.44503  -0.44457  -0.44202
 Alpha  occ. eigenvalues --   -0.44151  -0.43897  -0.43889  -0.43669  -0.43665
 Alpha  occ. eigenvalues --   -0.43299  -0.43235  -0.43071  -0.43002  -0.42770
 Alpha  occ. eigenvalues --   -0.42741  -0.42237  -0.42235  -0.41983  -0.41839
 Alpha  occ. eigenvalues --   -0.41646  -0.41558  -0.41418  -0.41299  -0.41070
 Alpha  occ. eigenvalues --   -0.41025  -0.41003  -0.40999  -0.40853  -0.40708
 Alpha  occ. eigenvalues --   -0.40491  -0.40126  -0.40004  -0.39919  -0.39794
 Alpha  occ. eigenvalues --   -0.39649  -0.39471  -0.39214  -0.39137  -0.39069
 Alpha  occ. eigenvalues --   -0.38996  -0.38826  -0.38639  -0.38454  -0.38378
 Alpha  occ. eigenvalues --   -0.38219  -0.38134  -0.37897  -0.37846  -0.37653
 Alpha  occ. eigenvalues --   -0.37487  -0.37390  -0.37234  -0.37047  -0.37025
 Alpha  occ. eigenvalues --   -0.36830  -0.36618  -0.36551  -0.36447  -0.36152
 Alpha  occ. eigenvalues --   -0.36008  -0.35917  -0.35802  -0.35590  -0.35577
 Alpha  occ. eigenvalues --   -0.35277  -0.35010  -0.34932  -0.34557  -0.34141
 Alpha  occ. eigenvalues --   -0.33892  -0.33630  -0.32979  -0.32875  -0.32536
 Alpha  occ. eigenvalues --   -0.32467  -0.32222  -0.32063  -0.31936  -0.31712
 Alpha  occ. eigenvalues --   -0.31594  -0.31421  -0.29909  -0.29796  -0.29703
 Alpha  occ. eigenvalues --   -0.29341  -0.29039  -0.29009  -0.27128  -0.26955
 Alpha  occ. eigenvalues --   -0.26114  -0.25964  -0.25849  -0.25697  -0.25578
 Alpha  occ. eigenvalues --   -0.25261  -0.25044  -0.24593  -0.21437  -0.21283
 Alpha  occ. eigenvalues --   -0.19236  -0.18668
 Alpha virt. eigenvalues --   -0.11770  -0.10878  -0.05745  -0.05641  -0.03889
 Alpha virt. eigenvalues --   -0.03702  -0.01993  -0.01877  -0.01516  -0.00875
 Alpha virt. eigenvalues --   -0.00351   0.00595   0.00757   0.01308   0.01440

 Mulliken charges:
               1
     1  Mg  12.000000
     2  C    6.000000
     3  C    6.000000
     4  C    6.000000
     5  C    6.000000
     6  N    7.000000
     7  C    6.000000
     8  C    6.000000
     9  C    6.000000
    10  C    6.000000
    11  C    6.000000
    12  C    6.000000
    13  C    6.000000
    14  H    1.000000
    15  N    7.000000
    16  C    6.000000
    17  C    6.000000
    18  C    6.000000
    19  C    6.000000
    20  C    6.000000
    21  C    6.000000
    22  O    8.000000
    23  C    6.000000
    24  N    7.000000
    25  C    6.000000
    26  C    6.000000
    27  C    6.000000
    28  C    6.000000
    29  C    6.000000
    30  C    6.000000
    31  C    6.000000
    32  N    7.000000
    33  C    6.000000
    34  C    6.000000
    35  C    6.000000
    36  C    6.000000
    37  C    6.000000
    38  C    6.000000
    39  O    8.000000
    40  C    6.000000
    41  C    6.000000
    42  O    8.000000
    43  O    8.000000
    44  C    6.000000
    45  H    1.000000
    46  H    1.000000
    47  H    1.000000
    48  H    1.000000
    49  H    1.000000
    50  H    1.000000
    51  H    1.000000
    52  H    1.000000
    53  H    1.000000
    54  H    1.000000
    55  H    1.000000
    56  H    1.000000
    57  H    1.000000
    58  H    1.000000
    59  H    1.000000
    60  H    1.000000
    61  H    1.000000
    62  H    1.000000
    63  H    1.000000
    64  H    1.000000
    65  H    1.000000
    66  H    1.000000
    67  H    1.000000
    68  H    1.000000
    69  H    1.000000
    70  H    1.000000
    71  H    1.000000
    72  H    1.000000
    73  H    1.000000
    74  H    1.000000
    75  H    1.000000
    76  H    1.000000
    77  H    1.000000
    78  H    1.000000
    79  H    1.000000
    80  Mg  12.000000
    81  C    6.000000
    82  C    6.000000
    83  C    6.000000
    84  C    6.000000
    85  N    7.000000
    86  C    6.000000
    87  C    6.000000
    88  C    6.000000
    89  C    6.000000
    90  C    6.000000
    91  C    6.000000
    92  C    6.000000
    93  H    1.000000
    94  N    7.000000
    95  C    6.000000
    96  C    6.000000
    97  C    6.000000
    98  C    6.000000
    99  C    6.000000
   100  C    6.000000
   101  O    8.000000
   102  C    6.000000
   103  N    7.000000
   104  C    6.000000
   105  C    6.000000
   106  C    6.000000
   107  C    6.000000
   108  C    6.000000
   109  C    6.000000
   110  C    6.000000
   111  N    7.000000
   112  C    6.000000
   113  C    6.000000
   114  C    6.000000
   115  C    6.000000
   116  C    6.000000
   117  C    6.000000
   118  O    8.000000
   119  C    6.000000
   120  C    6.000000
   121  O    8.000000
   122  O    8.000000
   123  C    6.000000
   124  H    1.000000
   125  H    1.000000
   126  H    1.000000
   127  H    1.000000
   128  H    1.000000
   129  H    1.000000
   130  H    1.000000
   131  H    1.000000
   132  H    1.000000
   133  H    1.000000
   134  H    1.000000
   135  H    1.000000
   136  H    1.000000
   137  H    1.000000
   138  H    1.000000
   139  H    1.000000
   140  H    1.000000
   141  H    1.000000
   142  H    1.000000
   143  H    1.000000
   144  H    1.000000
   145  H    1.000000
   146  H    1.000000
   147  H    1.000000
   148  H    1.000000
   149  H    1.000000
   150  H    1.000000
   151  H    1.000000
   152  H    1.000000
   153  H    1.000000
   154  H    1.000000
   155  H    1.000000
   156  H    1.000000
   157  H    1.000000
   158  H    1.000000
 Sum of Mulliken charges = 624.00000

 Dipole moment (field-independent basis, Debye):
    X=             -0.0000    Y=              0.0000    Z=              0.0000  Tot=              0.0000
 Quadrupole moment (field-independent basis, Debye-Ang):
   XX=              0.0000   YY=              0.0000   ZZ=             -0.0000
   XY=              0.0000   XZ=              0.0000   YZ=              0.0000

 Normal termination of Gaussian 16 at Fri Oct 15 15:13:53 2021.
