 Gaussian 16, Revision A.03,
 Gaussian 16:  ES64L-G16RevA.03 25-Dec-2016

 --------------------------------------------------------
 #p PBE1PBE/Def2SVP td=(nstates=5) density=(transition=1)
 --------------------------------------------------------

 --------------------------------
 TDDFT excited states in gaussian
 --------------------------------
 Symbolic Z-matrix:
 Charge =  0 Multiplicity = 1

                         Standard orientation:
 ---------------------------------------------------------------------
 Center     Atomic      Atomic             Coordinates (Angstroms)
 Number     Number       Type             X           Y           Z
 ---------------------------------------------------------------------
      1         12           0       16.241950    0.706306   -0.245405
      2          6           0       15.656737   -2.064057    1.878071
      3          6           0       13.518005    2.183848    1.091105
      4          6           0       16.752101    3.179591   -2.328892
      5          6           0       18.600917   -1.347886   -2.001369
      6          7           0       14.648920    0.092351    1.267609
      7          6           0       14.812259   -0.966134    2.145507
      8          6           0       13.835928   -0.762840    3.253326
      9          6           0       12.823205    0.240867    2.701255
     10          6           0       13.688399    0.934184    1.619197
     11          6           0       11.599241   -0.499210    2.042540
     12          6           0       14.439543   -0.279097    4.679589
     13          6           0       13.920158   -0.903598    6.010790
     14          1           0       12.376926   -0.963046    6.201475
     15          7           0       15.220546    2.454379   -0.558499
     16          6           0       14.170777    2.861103    0.092377
     17          6           0       13.749724    4.154614   -0.473159
     18          6           0       14.794886    4.597825   -1.339153
     19          6           0       15.647249    3.381982   -1.468970
     20          6           0       12.440576    4.974891   -0.182155
     21          6           0       15.045850    5.939638   -2.026482
     22          8           0       15.950945    6.143048   -2.858098
     23          6           0       14.055905    6.993520   -1.865860
     24          7           0       17.425970    0.792751   -2.074682
     25          6           0       17.542876    2.030149   -2.702344
     26          6           0       18.720385    1.961720   -3.749741
     27          6           0       19.342546    0.566250   -3.494489
     28          6           0       18.430998   -0.038149   -2.424124
     29          6           0       18.270754    2.279624   -5.176045
     30          6           0       20.859139    0.540934   -3.178060
     31          6           0       21.703755   -0.601249   -3.789451
     32          7           0       16.994705   -1.284083   -0.145204
     33          6           0       17.894543   -1.989831   -0.937610
     34          6           0       18.155115   -3.261856   -0.313098
     35          6           0       17.260115   -3.351926    0.754052
     36          6           0       16.560421   -2.117639    0.851977
     37          6           0       19.123400   -4.206498   -0.687731
     38          6           0       16.810402   -4.176123    1.885622
     39          8           0       17.153805   -5.271092    2.302155
     40          6           0       15.753965   -3.339988    2.679474
     41          6           0       14.481164   -4.165309    2.743231
     42          8           0       13.553718   -4.324747    1.982292
     43          8           0       14.542082   -4.672125    4.009165
     44          6           0       13.306175   -5.262715    4.575930
     45          1           0       12.692774    2.711684    1.574431
     46          1           0       17.016311    4.098156   -2.856866
     47          1           0       19.464989   -1.897980   -2.378610
     48          1           0       13.272471   -1.643766    3.561879
     49          1           0       12.577877    1.027108    3.414799
     50          1           0       10.656647    0.039655    2.132558
     51          1           0       11.351682   -1.441225    2.532463
     52          1           0       11.849074   -0.563094    0.984034
     53          1           0       14.417510    0.809081    4.728567
     54          1           0       15.516689   -0.449403    4.694818
     55          1           0       14.273274   -0.185573    6.751848
     56          1           0       14.408293   -1.878153    5.999559
     57          1           0       12.585013    5.906591    0.364343
     58          1           0       11.780187    4.322579    0.389916
     59          1           0       11.930620    5.364058   -1.063441
     60          1           0       13.870127    7.196196   -0.810774
     61          1           0       13.120182    6.723931   -2.355763
     62          1           0       14.521802    7.916678   -2.209175
     63          1           0       19.474274    2.665390   -3.396435
     64          1           0       19.123926   -0.107600   -4.322653
     65          1           0       17.956023    1.356585   -5.664032
     66          1           0       19.058626    2.658950   -5.826010
     67          1           0       17.330842    2.829179   -5.136460
     68          1           0       21.092379    0.610460   -2.115692
     69          1           0       21.340461    1.463058   -3.506578
     70          1           0       21.780089   -1.333019   -2.985087
     71          1           0       22.690737   -0.163227   -3.941561
     72          1           0       21.212665   -0.998623   -4.677299
     73          1           0       19.004452   -5.251872   -0.403763
     74          1           0       20.084346   -3.819326   -0.347477
     75          1           0       19.098550   -4.224777   -1.776694
     76          1           0       16.129544   -3.115454    3.677615
     77          1           0       13.264134   -4.881973    5.596001
     78          1           0       13.274002   -6.350448    4.633021
     79          1           0       12.435817   -4.897138    4.031649
     80         12           0      -16.043610    0.455605    0.650845
     81          6           0      -15.854433   -2.473283   -1.376842
     82          6           0      -12.789270    0.798544    0.099794
     83          6           0      -16.275804    3.676419    1.647814
     84          6           0      -19.569151    0.243835    0.175550
     85          7           0      -14.538051   -0.725492   -0.364019
     86          6           0      -14.638775   -1.946066   -1.066207
     87          6           0      -13.268405   -2.451877   -1.617198
     88          6           0      -12.300582   -1.371907   -1.055963
     89          6           0      -13.240527   -0.402161   -0.308931
     90          6           0      -11.236518   -2.097906   -0.216077
     91          6           0      -13.125544   -2.627895   -3.190555
     92          6           0      -12.931073   -4.048895   -3.706755
     93          1           0      -11.687254   -4.324617   -4.576100
     94          7           0      -14.754242    1.978564    0.941229
     95          6           0      -13.395726    1.911813    0.632617
     96          6           0      -12.732710    3.073353    1.069521
     97          6           0      -13.665308    3.898676    1.670276
     98          6           0      -14.943136    3.252696    1.448385
     99          6           0      -11.202950    3.430652    0.974369
    100          6           0      -13.300961    5.203496    2.338848
    101          8           0      -12.180082    5.579981    2.512181
    102          6           0      -14.533172    6.030910    2.955880
    103          7           0      -17.671674    1.811325    0.816831
    104          6           0      -17.491265    3.080646    1.294680
    105          6           0      -18.890443    3.814926    1.192516
    106          6           0      -19.947230    2.747291    0.863614
    107          6           0      -19.017548    1.506945    0.577558
    108          6           0      -19.211651    4.727351    2.341992
    109          6           0      -20.679111    3.134174   -0.415496
    110          6           0      -22.049261    2.548492   -0.631478
    111          7           0      -17.477425   -0.969128   -0.171653
    112          6           0      -18.848246   -0.917502   -0.257675
    113          6           0      -19.348643   -2.110416   -0.837903
    114          6           0      -18.223578   -2.855346   -1.263960
    115          6           0      -17.116384   -2.027358   -0.924941
    116          6           0      -20.756822   -2.453464   -1.117376
    117          6           0      -17.682893   -4.044464   -1.936319
    118          8           0      -18.293506   -5.030701   -2.369919
    119          6           0      -16.117490   -3.876238   -2.025000
    120          6           0      -15.489874   -4.839538   -1.160235
    121          8           0      -15.489685   -4.689821    0.084577
    122          8           0      -15.019218   -5.832369   -1.940368
    123          6           0      -14.149528   -6.871340   -1.323768
    124          1           0      -11.711810    0.923743   -0.028872
    125          1           0      -16.309355    4.697504    2.033748
    126          1           0      -20.644525    0.067452    0.110265
    127          1           0      -13.026117   -3.415843   -1.169905
    128          1           0      -11.804248   -0.787520   -1.830125
    129          1           0      -10.666960   -1.327400    0.302757
    130          1           0      -10.533881   -2.719521   -0.770890
    131          1           0      -11.677292   -2.756726    0.532948
    132          1           0      -12.174786   -2.146429   -3.419454
    133          1           0      -13.945689   -2.121732   -3.699847
    134          1           0      -13.830762   -4.316641   -4.261866
    135          1           0      -12.831337   -4.726567   -2.858133
    136          1           0      -11.160199    4.404929    0.487056
    137          1           0      -10.650403    2.704074    0.378857
    138          1           0      -10.647761    3.399312    1.911822
    139          1           0      -14.084471    6.866605    3.492059
    140          1           0      -15.028315    5.293477    3.588092
    141          1           0      -15.095660    6.294399    2.060229
    142          1           0      -18.763544    4.466444    0.327203
    143          1           0      -20.693737    2.540662    1.630449
    144          1           0      -20.294262    4.757049    2.462114
    145          1           0      -18.804908    5.701745    2.070675
    146          1           0      -18.691786    4.486085    3.268421
    147          1           0      -20.101719    2.929680   -1.317572
    148          1           0      -20.788023    4.214018   -0.516164
    149          1           0      -22.446719    2.058799    0.257339
    150          1           0      -21.972831    1.812787   -1.432359
    151          1           0      -22.720499    3.287948   -1.068113
    152          1           0      -21.436572   -1.970512   -0.414665
    153          1           0      -20.816067   -3.537820   -1.020679
    154          1           0      -20.954236   -2.068491   -2.118101
    155          1           0      -15.715976   -3.863829   -3.038290
    156          1           0      -14.442867   -7.738712   -1.916934
    157          1           0      -14.296772   -6.994233   -0.251177
    158          1           0      -13.107000   -6.745924   -1.618125
 ---------------------------------------------------------------------

 SCF Done:  E(RPBE1PBE) =  -4067.37111413     A.U. after   16 cycles

 Excitation energies and oscillator strengths:

 Excited State   1:      Singlet-A      1.8688 eV  663.46 nm  f=0.3572  <S**2>=0.000
     309 -> 316        0.16656
     311 -> 313        0.69281
     311 <- 313       -0.10934
 This state for optimization and/or second-order correction.
 Total Energy, E(TD-HF/TD-DFT) =  -4067.30243873
 Copying the excited state density for this state as the 1-particle RhoCI density.

 Excited State   2:      Singlet-A      1.8849 eV  657.77 nm  f=0.3892  <S**2>=0.000
     310 -> 315       -0.17614
     312 -> 314        0.68722

 Excited State   3:      Singlet-A      1.8983 eV  653.14 nm  f=0.0000  <S**2>=0.000
     312 -> 313        0.70710

 Excited State   4:      Singlet-A      2.0823 eV  595.43 nm  f=0.0000  <S**2>=0.000
     311 -> 314        0.70710

 Excited State   5:      Singlet-A      2.2642 eV  547.60 nm  f=0.0705  <S**2>=0.000
     310 -> 314        0.63657
     312 -> 315        0.28690

 The electronic state is 1-A.
 Alpha  occ. eigenvalues --  -46.92758 -46.91958 -19.27171 -19.25076 -19.20271
 Alpha  occ. eigenvalues --  -19.19946 -19.19752 -19.19425 -19.19157 -19.18938
 Alpha  occ. eigenvalues --  -14.41985 -14.41792 -14.41320 -14.40937 -14.39444
 Alpha  occ. eigenvalues --  -14.39113 -14.38681 -14.38262 -10.36522 -10.36262
 Alpha  occ. eigenvalues --  -10.32717 -10.32575 -10.32531 -10.32009 -10.30076
 Alpha  occ. eigenvalues --  -10.29498 -10.29462 -10.29264 -10.28708 -10.28585
 Alpha  occ. eigenvalues --  -10.28518 -10.28462 -10.28405 -10.28125 -10.27990
 Alpha  occ. eigenvalues --  -10.27720 -10.27568 -10.27387 -10.27361 -10.27087
 Alpha  occ. eigenvalues --  -10.27056 -10.26700 -10.26529 -10.26190 -10.25951
 Alpha  occ. eigenvalues --  -10.25947 -10.25880 -10.25712 -10.25683 -10.25659
 Alpha  occ. eigenvalues --  -10.25648 -10.25569 -10.25412 -10.25392 -10.25371
 Alpha  occ. eigenvalues --  -10.25355 -10.25270 -10.25180 -10.25090 -10.25061
 Alpha  occ. eigenvalues --  -10.25056 -10.25048 -10.25008 -10.24888 -10.24740
 Alpha  occ. eigenvalues --  -10.24562 -10.24385 -10.24367 -10.24230 -10.24042
 Alpha  occ. eigenvalues --  -10.23859 -10.23792 -10.23613 -10.23581 -10.23460
 Alpha  occ. eigenvalues --  -10.23454 -10.23285 -10.23281 -10.23277 -10.23203
 Alpha  occ. eigenvalues --  -10.23102 -10.23050 -10.22849 -10.22716 -10.22666
 Alpha  occ. eigenvalues --  -10.22593  -3.14730  -3.14130  -1.87567  -1.87105
 Alpha  occ. eigenvalues --   -1.86946  -1.86943  -1.86484  -1.86380  -1.11433
 Alpha  occ. eigenvalues --   -1.10908  -1.06630  -1.04369  -1.04013  -1.03562
 Alpha  occ. eigenvalues --   -1.02620  -1.02211  -0.99800  -0.98696  -0.98572
 Alpha  occ. eigenvalues --   -0.97888  -0.97705  -0.97500  -0.96766  -0.96397
 Alpha  occ. eigenvalues --   -0.87165  -0.86646  -0.83988  -0.83581  -0.83195
 Alpha  occ. eigenvalues --   -0.82992  -0.82789  -0.82313  -0.81917  -0.81662
 Alpha  occ. eigenvalues --   -0.81350  -0.81182  -0.81041  -0.80852  -0.79066
 Alpha  occ. eigenvalues --   -0.78589  -0.78527  -0.77903  -0.77547  -0.76987
 Alpha  occ. eigenvalues --   -0.76592  -0.76174  -0.75858  -0.75517  -0.74991
 Alpha  occ. eigenvalues --   -0.74536  -0.72668  -0.72107  -0.71764  -0.71670
 Alpha  occ. eigenvalues --   -0.71360  -0.70928  -0.70584  -0.70184  -0.69482
 Alpha  occ. eigenvalues --   -0.69458  -0.67280  -0.67004  -0.66285  -0.66188
 Alpha  occ. eigenvalues --   -0.63562  -0.63237  -0.63128  -0.63047  -0.62238
 Alpha  occ. eigenvalues --   -0.62205  -0.61735  -0.61639  -0.60088  -0.60017
 Alpha  occ. eigenvalues --   -0.59988  -0.59854  -0.59535  -0.59450  -0.59167
 Alpha  occ. eigenvalues --   -0.58916  -0.56865  -0.56549  -0.55002  -0.54668
 Alpha  occ. eigenvalues --   -0.54242  -0.54148  -0.53922  -0.53841  -0.53045
 Alpha  occ. eigenvalues --   -0.52962  -0.52841  -0.52409  -0.52092  -0.51843
 Alpha  occ. eigenvalues --   -0.50956  -0.50763  -0.50579  -0.50452  -0.49748
 Alpha  occ. eigenvalues --   -0.49597  -0.49296  -0.49033  -0.48908  -0.48451
 Alpha  occ. eigenvalues --   -0.48291  -0.48142  -0.47823  -0.47771  -0.47643
 Alpha  occ. eigenvalues --   -0.47460  -0.47407  -0.47011  -0.46952  -0.46766
 Alpha  occ. eigenvalues --   -0.46687  -0.46271  -0.46270  -0.46149  -0.46120
 Alpha  occ. eigenvalues --   -0.45897  -0.45857  -0.45405  -0.45199  -0.45059
 Alpha  occ. eigenvalues --   -0.44977  -0.44831  -0.44624  -0.44501  -0.44376
 Alpha  occ. eigenvalues --   -0.44160  -0.43954  -0.43773  -0.43590  -0.43573
 Alpha  occ. eigenvalues --   -0.43445  -0.43086  -0.42962  -0.42880  -0.42708
 Alpha  occ. eigenvalues --   -0.42366  -0.42226  -0.42102  -0.42021  -0.41814
 Alpha  occ. eigenvalues --   -0.41681  -0.41471  -0.41376  -0.41135  -0.41023
 Alpha  occ. eigenvalues --   -0.41018  -0.40798  -0.40654  -0.40333  -0.40330
 Alpha  occ. eigenvalues --   -0.40060  -0.39918  -0.39781  -0.39663  -0.39585
 Alpha  occ. eigenvalues --   -0.39516  -0.39501  -0.39197  -0.39114  -0.38902
 Alpha  occ. eigenvalues --   -0.38813  -0.38655  -0.38410  -0.38388  -0.38333
 Alpha  occ. eigenvalues --   -0.38136  -0.37917  -0.37842  -0.37799  -0.37679
 Alpha  occ. eigenvalues --   -0.37556  -0.37390  -0.37192  -0.37177  -0.37022
 Alpha  occ. eigenvalues --   -0.36829  -0.36691  -0.36604  -0.36538  -0.36397
 Alpha  occ. eigenvalues --   -0.36180  -0.35772  -0.35545  -0.35438  -0.35210
 Alpha  occ. eigenvalues --   -0.35111  -0.35109  -0.34742  -0.34618  -0.34094
 Alpha  occ. eigenvalues --   -0.33716  -0.33400  -0.33186  -0.32684  -0.32633
 Alpha  occ. eigenvalues --   -0.32408  -0.32216  -0.31782  -0.31638  -0.31407
 Alpha  occ. eigenvalues --   -0.31076  -0.30968  -0.29606  -0.29434  -0.29143
 Alpha  occ. eigenvalues --   -0.29120  -0.28616  -0.28600  -0.27406  -0.26907
 Alpha  occ. eigenvalues --   -0.26498  -0.26169  -0.25928  -0.25788  -0.25540
 Alpha  occ. eigenvalues --   -0.25371  -0.24965  -0.24765  -0.21186  -0.20926
 Alpha  occ. eigenvalues --   -0.18890  -0.18641
 Alpha virt. eigenvalues --   -0.11251  -0.10829  -0.05575  -0.05266  -0.04276
 Alpha virt. eigenvalues --   -0.03729  -0.02165  -0.01699  -0.00899  -0.00535
 Alpha virt. eigenvalues --   -0.00005   0.00550   0.01106   0.01253   0.01378

 Mulliken charges:
               1
     1  Mg  11.999856
     2  C    6.000916
     3  C    5.998829
     4  C    5.999329
     5  C    6.000845
     6  N    6.999877
     7  C    5.998156
     8  C    6.000591
     9  C    5.999763
    10  C    6.001808
    11  C    6.000036
    12  C    6.000240
    13  C    5.999980
    14  H    0.999765
    15  N    6.999628
    16  C    6.002323
    17  C    6.001586
    18  C    6.000636
    19  C    6.001874
    20  C    5.999858
    21  C    6.000846
    22  O    8.001553
    23  C    5.999639
    24  N    7.000313
    25  C    6.002074
    26  C    5.999499
    27  C    6.000416
    28  C    5.998144
    29  C    5.999798
    30  C    6.000358
    31  C    6.000010
    32  N    7.000124
    33  C    5.997800
    34  C    5.998190
    35  C    5.999814
    36  C    5.998132
    37  C    6.000327
    38  C    5.998815
    39  O    7.998080
    40  C    5.999980
    41  C    5.999861
    42  O    7.999514
    43  O    7.999987
    44  C    6.000142
    45  H    1.000601
    46  H    1.000404
    47  H    0.999480
    48  H    0.999813
    49  H    0.999949
    50  H    1.000103
    51  H    1.000697
    52  H    0.999941
    53  H    0.999179
    54  H    1.000088
    55  H    0.999762
    56  H    1.000204
    57  H    1.001301
    58  H    1.001250
    59  H    1.001196
    60  H    1.000440
    61  H    1.000589
    62  H    1.000839
    63  H    1.000060
    64  H    1.000024
    65  H    1.000510
    66  H    1.000324
    67  H    0.999640
    68  H    0.999970
    69  H    0.999348
    70  H    1.000401
    71  H    0.999692
    72  H    0.999849
    73  H    0.998981
    74  H    0.998570
    75  H    0.998888
    76  H    0.999433
    77  H    0.999711
    78  H    0.999689
    79  H    0.999765
    80  Mg  12.000070
    81  C    5.979761
    82  C    6.001822
    83  C    6.019026
    84  C    5.993904
    85  N    6.984296
    86  C    6.028032
    87  C    5.988264
    88  C    6.013941
    89  C    5.970206
    90  C    6.002553
    91  C    5.997754
    92  C    5.997753
    93  H    1.006444
    94  N    7.002609
    95  C    5.967392
    96  C    5.977220
    97  C    5.990115
    98  C    5.967419
    99  C    6.001878
   100  C    5.991825
   101  O    7.983282
   102  C    5.996240
   103  N    7.004577
   104  C    5.973262
   105  C    6.002797
   106  C    5.993554
   107  C    6.031134
   108  C    6.000448
   109  C    5.992575
   110  C    5.999533
   111  N    7.001931
   112  C    6.031598
   113  C    6.028691
   114  C    6.004025
   115  C    6.029205
   116  C    5.998771
   117  C    6.017697
   118  O    8.029182
   119  C    6.002097
   120  C    6.002182
   121  O    8.005515
   122  O    8.001186
   123  C    5.998425
   124  H    0.986671
   125  H    0.994157
   126  H    1.009074
   127  H    1.000966
   128  H    0.997548
   129  H    1.005381
   130  H    0.988833
   131  H    0.990250
   132  H    1.008428
   133  H    0.998002
   134  H    0.995200
   135  H    0.998985
   136  H    0.985371
   137  H    0.983659
   138  H    0.982316
   139  H    0.988840
   140  H    0.993068
   141  H    0.992239
   142  H    1.000434
   143  H    1.003140
   144  H    0.992066
   145  H    1.004454
   146  H    1.002333
   147  H    1.002267
   148  H    1.012155
   149  H    1.000000
   150  H    0.994859
   151  H    1.005559
   152  H    1.016832
   153  H    1.014051
   154  H    1.020561
   155  H    1.010472
   156  H    1.001863
   157  H    1.002940
   158  H    1.006836
 Sum of Mulliken charges = 624.00000

 Dipole moment (field-independent basis, Debye):
    X=             -7.4683    Y=             -6.0128    Z=             -2.9815  Tot=             10.0408
 Quadrupole moment (field-independent basis, Debye-Ang):
   XX=            222.5806   YY=             -2.9873   ZZ=             -0.6862
   XY=            110.6477   XZ=             42.4029   YZ=             -2.3647

 Normal termination of Gaussian 16 at Thu Oct 14 18:33:12 2021.
