 Gaussian 16, Revision A.03,
 Gaussian 16:  ES64L-G16RevA.03 25-Dec-2016

 --------------------------------------------------------
 #p PBE1PBE/Def2SVP td=(nstates=5) density=(transition=1)
 --------------------------------------------------------

 --------------------------------
 TDDFT excited states in gaussian
 --------------------------------
 Symbolic Z-matrix:
 Charge =  0 Multiplicity = 1

                         Standard orientation:
 ---------------------------------------------------------------------
 Center     Atomic      Atomic             Coordinates (Angstroms)
 Number     Number       Type             X           Y           Z
 ---------------------------------------------------------------------
      1         12           0       25.634914    0.205538    0.496049
      2          6           0       24.078222   -2.098511   -1.478214
      3          6           0       24.937125    2.655797   -1.958179
      4          6           0       27.354565    2.448465    2.291965
      5          6           0       26.197563   -2.243796    2.837623
      6          7           0       24.916243    0.227124   -1.606954
      7          6           0       24.213221   -0.854935   -2.151902
      8          6           0       23.621042   -0.518844   -3.549873
      9          6           0       24.009680    0.981772   -3.622719
     10          6           0       24.734702    1.324267   -2.333778
     11          6           0       24.792516    1.578543   -4.868934
     12          6           0       22.059036   -0.758255   -3.743182
     13          6           0       21.581089   -0.353226   -5.163394
     14          1           0       21.230714   -1.551111   -6.047225
     15          7           0       26.046383    2.328098    0.212124
     16          6           0       25.462495    3.144714   -0.732303
     17          6           0       26.020625    4.472625   -0.505271
     18          6           0       26.731548    4.395762    0.735465
     19          6           0       26.726883    3.031971    1.162448
     20          6           0       25.724711    5.590663   -1.428874
     21          6           0       27.500744    5.612736    1.358279
     22          8           0       28.293221    5.512343    2.316835
     23          6           0       27.359897    6.983039    0.748425
     24          7           0       26.603135    0.116250    2.192566
     25          6           0       27.292653    1.206553    2.793885
     26          6           0       28.168548    0.731676    3.931071
     27          6           0       27.422715   -0.542937    4.321305
     28          6           0       26.637433   -0.921771    3.073694
     29          6           0       29.647532    0.463164    3.493170
     30          6           0       26.413051   -0.317757    5.468980
     31          6           0       26.910270   -0.397321    6.887405
     32          7           0       25.296721   -1.815076    0.726846
     33          6           0       25.429259   -2.654636    1.766398
     34          6           0       24.956830   -3.954456    1.390739
     35          6           0       24.396461   -3.802254    0.140281
     36          6           0       24.588135   -2.457884   -0.214513
     37          6           0       25.017133   -5.125340    2.308524
     38          6           0       23.718520   -4.493124   -0.871965
     39          8           0       23.329040   -5.642541   -0.946296
     40          6           0       23.470229   -3.388528   -2.003230
     41          6           0       24.078552   -3.884692   -3.266952
     42          8           0       25.252716   -4.039006   -3.499988
     43          8           0       23.158475   -4.018320   -4.226890
     44          6           0       23.661707   -4.467870   -5.581852
     45          1           0       24.550948    3.378686   -2.679612
     46          1           0       27.912744    3.170219    2.891663
     47          1           0       26.224440   -3.041893    3.581978
     48          1           0       24.172770   -1.082614   -4.302178
     49          1           0       23.107776    1.592323   -3.569855
     50          1           0       24.514421    2.586996   -5.176334
     51          1           0       24.830273    0.839330   -5.669280
     52          1           0       25.808335    1.716744   -4.498887
     53          1           0       21.616062   -0.192394   -2.924543
     54          1           0       21.852749   -1.814019   -3.567850
     55          1           0       22.295313    0.336386   -5.613311
     56          1           0       20.647379    0.192235   -5.029619
     57          1           0       26.646690    5.844565   -1.952282
     58          1           0       25.244322    6.357273   -0.820877
     59          1           0       24.961520    5.303407   -2.152291
     60          1           0       27.911531    7.711526    1.342661
     61          1           0       26.309184    7.230391    0.905927
     62          1           0       27.610699    7.084035   -0.307185
     63          1           0       28.197957    1.464075    4.738285
     64          1           0       28.083823   -1.366916    4.589028
     65          1           0       29.724240   -0.454853    2.911835
     66          1           0       30.298361    0.417705    4.366761
     67          1           0       29.931084    1.328488    2.895090
     68          1           0       25.538931   -0.963758    5.397660
     69          1           0       25.931108    0.651798    5.342523
     70          1           0       26.707063    0.571834    7.342083
     71          1           0       27.993027   -0.428454    6.764890
     72          1           0       26.541588   -1.255041    7.450214
     73          1           0       24.062012   -5.259238    2.814888
     74          1           0       25.861334   -5.204504    2.994165
     75          1           0       25.120217   -5.990617    1.653489
     76          1           0       22.394307   -3.267225   -2.130933
     77          1           0       24.492464   -3.812754   -5.845007
     78          1           0       22.919653   -4.360673   -6.373465
     79          1           0       23.989427   -5.503312   -5.486748
     80         12           0      -25.815015   -0.574191   -0.452159
     81          6           0      -23.800675    2.454316   -0.263675
     82          6           0      -22.956710   -2.340683    0.254364
     83          6           0      -27.724833   -3.006106    0.820945
     84          6           0      -28.509711    1.323136   -1.279866
     85          7           0      -23.647394    0.052872    0.143844
     86          6           0      -23.043507    1.359882    0.073315
     87          6           0      -21.525509    1.226783    0.224130
     88          6           0      -21.246485   -0.290400    0.011660
     89          6           0      -22.684502   -0.963983    0.122503
     90          6           0      -20.578982   -0.628389   -1.404636
     91          6           0      -20.894558    1.874445    1.421962
     92          6           0      -21.822720    2.257214    2.598862
     93          1           0      -21.397876    2.863118    3.948989
     94          7           0      -25.397336   -2.507157    0.303204
     95          6           0      -24.144176   -3.031280    0.531385
     96          6           0      -24.308524   -4.451373    0.973018
     97          6           0      -25.671704   -4.566055    1.233322
     98          6           0      -26.358840   -3.335697    0.847782
     99          6           0      -23.126623   -5.334178    1.165197
    100          6           0      -26.345757   -5.822150    1.858262
    101          8           0      -25.623551   -6.733333    2.221920
    102          6           0      -27.798718   -5.932368    2.182585
    103          7           0      -27.841261   -0.681236   -0.139288
    104          6           0      -28.378999   -1.896575    0.282832
    105          6           0      -29.904864   -1.881940    0.191131
    106          6           0      -30.179975   -0.650399   -0.745826
    107          6           0      -28.797569    0.005717   -0.765789
    108          6           0      -30.628499   -3.159573   -0.306560
    109          6           0      -31.329997    0.309178   -0.301160
    110          6           0      -32.674647    0.232903   -1.159309
    111          7           0      -26.134279    1.464571   -0.810355
    112          6           0      -27.307290    2.076243   -1.228054
    113          6           0      -27.025594    3.447885   -1.573610
    114          6           0      -25.706558    3.608385   -1.128016
    115          6           0      -25.220317    2.349457   -0.696801
    116          6           0      -28.083515    4.428650   -2.108329
    117          6           0      -24.611057    4.522488   -1.020768
    118          8           0      -24.626969    5.710626   -1.400880
    119          6           0      -23.254122    3.810052   -0.586813
    120          6           0      -22.757097    4.625039    0.539637
    121          8           0      -23.404051    4.996704    1.524432
    122          8           0      -21.424267    4.777851    0.345499
    123          6           0      -20.725714    5.732827    1.261866
    124          1           0      -22.050404   -2.898955    0.496128
    125          1           0      -28.335903   -3.815063    1.227343
    126          1           0      -29.366831    1.879106   -1.664520
    127          1           0      -21.250425    1.767666   -0.681373
    128          1           0      -20.711848   -0.745734    0.845475
    129          1           0      -19.582283   -0.972830   -1.131723
    130          1           0      -20.596371    0.260999   -2.035004
    131          1           0      -21.161097   -1.456387   -1.810748
    132          1           0      -20.315308    2.714277    1.038658
    133          1           0      -20.182811    1.102708    1.717024
    134          1           0      -22.368396    1.341025    2.826747
    135          1           0      -22.540819    3.007369    2.267046
    136          1           0      -23.052764   -5.502571    2.239179
    137          1           0      -22.252150   -4.822099    0.764870
    138          1           0      -23.257893   -6.245456    0.580669
    139          1           0      -28.207176   -5.272937    2.947416
    140          1           0      -28.059090   -6.894510    2.622732
    141          1           0      -28.229738   -5.841302    1.185673
    142          1           0      -30.098961   -1.699433    1.248703
    143          1           0      -30.360601   -1.091119   -1.726506
    144          1           0      -31.047295   -3.764133    0.498577
    145          1           0      -29.912143   -3.813116   -0.803254
    146          1           0      -31.376468   -2.846805   -1.035952
    147          1           0      -31.045108    1.360824   -0.259193
    148          1           0      -31.505203    0.040014    0.740526
    149          1           0      -33.436915    0.245334   -0.380680
    150          1           0      -32.774044   -0.656477   -1.781766
    151          1           0      -32.648161    1.069514   -1.856599
    152          1           0      -27.701882    5.217420   -2.757010
    153          1           0      -28.431505    4.876127   -1.177956
    154          1           0      -28.778832    3.909493   -2.767595
    155          1           0      -22.571903    3.789033   -1.437930
    156          1           0      -19.665045    5.761173    1.009912
    157          1           0      -20.808490    5.414356    2.301185
    158          1           0      -21.241983    6.667456    1.047249
 ---------------------------------------------------------------------

 SCF Done:  E(RPBE1PBE) =  -4067.36386434     A.U. after   16 cycles

 Excitation energies and oscillator strengths:

 Excited State   1:      Singlet-A      1.8047 eV  687.00 nm  f=0.3180  <S**2>=0.000
     310 -> 315        0.15281
     312 -> 314        0.69703
     312 <- 314       -0.11773
 This state for optimization and/or second-order correction.
 Total Energy, E(TD-HF/TD-DFT) =  -4067.29754169
 Copying the excited state density for this state as the 1-particle RhoCI density.

 Excited State   2:      Singlet-A      1.8106 eV  684.78 nm  f=0.4001  <S**2>=0.000
     309 -> 316       -0.15501
     311 -> 313        0.69888
     311 <- 313       -0.12500

 Excited State   3:      Singlet-A      1.8192 eV  681.52 nm  f=0.0000  <S**2>=0.000
     312 -> 313        0.70711

 Excited State   4:      Singlet-A      2.0219 eV  613.22 nm  f=0.0000  <S**2>=0.000
     311 -> 314        0.70711

 Excited State   5:      Singlet-A      2.2535 eV  550.20 nm  f=0.1059  <S**2>=0.000
     309 -> 313        0.64881
     311 -> 316        0.26378

 The electronic state is 1-A.
 Alpha  occ. eigenvalues --  -46.92693 -46.90913 -19.26079 -19.25505 -19.19754
 Alpha  occ. eigenvalues --  -19.19489 -19.19092 -19.18896 -19.18894 -19.17614
 Alpha  occ. eigenvalues --  -14.42156 -14.41977 -14.41379 -14.41161 -14.39271
 Alpha  occ. eigenvalues --  -14.38607 -14.38509 -14.38471 -10.36238 -10.35463
 Alpha  occ. eigenvalues --  -10.32500 -10.32490 -10.31964 -10.30972 -10.29773
 Alpha  occ. eigenvalues --  -10.29487 -10.29473 -10.29384 -10.29271 -10.29039
 Alpha  occ. eigenvalues --  -10.29024 -10.28403 -10.28382 -10.28293 -10.28185
 Alpha  occ. eigenvalues --  -10.27853 -10.27345 -10.27164 -10.27117 -10.26984
 Alpha  occ. eigenvalues --  -10.26576 -10.26537 -10.26495 -10.26450 -10.26401
 Alpha  occ. eigenvalues --  -10.26399 -10.26227 -10.26222 -10.26202 -10.25839
 Alpha  occ. eigenvalues --  -10.25624 -10.25621 -10.25618 -10.25614 -10.25608
 Alpha  occ. eigenvalues --  -10.25579 -10.25477 -10.25230 -10.25115 -10.25086
 Alpha  occ. eigenvalues --  -10.25085 -10.24970 -10.24961 -10.24953 -10.24905
 Alpha  occ. eigenvalues --  -10.24847 -10.24753 -10.24557 -10.24390 -10.24340
 Alpha  occ. eigenvalues --  -10.24285 -10.24069 -10.24025 -10.23992 -10.23912
 Alpha  occ. eigenvalues --  -10.23655 -10.23549 -10.23528 -10.23518 -10.23286
 Alpha  occ. eigenvalues --  -10.23265 -10.23208 -10.23206 -10.22567 -10.22529
 Alpha  occ. eigenvalues --  -10.22031  -3.14762  -3.13268  -1.87573  -1.87158
 Alpha  occ. eigenvalues --   -1.86965  -1.86113  -1.85661  -1.85489  -1.11630
 Alpha  occ. eigenvalues --   -1.10909  -1.05250  -1.05081  -1.03107  -1.02384
 Alpha  occ. eigenvalues --   -1.01906  -1.01631  -1.00065  -0.99693  -0.98787
 Alpha  occ. eigenvalues --   -0.98534  -0.97746  -0.97280  -0.96733  -0.94878
 Alpha  occ. eigenvalues --   -0.87624  -0.86413  -0.83660  -0.83399  -0.83234
 Alpha  occ. eigenvalues --   -0.83135  -0.82944  -0.82897  -0.82205  -0.81504
 Alpha  occ. eigenvalues --   -0.81102  -0.80913  -0.80907  -0.80521  -0.78650
 Alpha  occ. eigenvalues --   -0.78608  -0.78278  -0.78087  -0.76815  -0.76775
 Alpha  occ. eigenvalues --   -0.76603  -0.75832  -0.75514  -0.75356  -0.74921
 Alpha  occ. eigenvalues --   -0.74540  -0.72753  -0.72294  -0.72090  -0.71872
 Alpha  occ. eigenvalues --   -0.71530  -0.70859  -0.70483  -0.70363  -0.69600
 Alpha  occ. eigenvalues --   -0.69548  -0.67650  -0.67553  -0.66271  -0.66096
 Alpha  occ. eigenvalues --   -0.64038  -0.63882  -0.63341  -0.63330  -0.62679
 Alpha  occ. eigenvalues --   -0.62171  -0.61332  -0.60574  -0.60572  -0.60250
 Alpha  occ. eigenvalues --   -0.59810  -0.59413  -0.59273  -0.59204  -0.58709
 Alpha  occ. eigenvalues --   -0.58143  -0.56771  -0.56636  -0.54822  -0.54592
 Alpha  occ. eigenvalues --   -0.54117  -0.53771  -0.53723  -0.53694  -0.53509
 Alpha  occ. eigenvalues --   -0.52908  -0.52530  -0.52420  -0.52050  -0.51817
 Alpha  occ. eigenvalues --   -0.51371  -0.51158  -0.50738  -0.50468  -0.49750
 Alpha  occ. eigenvalues --   -0.49673  -0.49245  -0.49192  -0.48834  -0.48799
 Alpha  occ. eigenvalues --   -0.48323  -0.48031  -0.47996  -0.47780  -0.47463
 Alpha  occ. eigenvalues --   -0.47409  -0.47290  -0.47149  -0.46983  -0.46816
 Alpha  occ. eigenvalues --   -0.46493  -0.46320  -0.46294  -0.45931  -0.45909
 Alpha  occ. eigenvalues --   -0.45816  -0.45515  -0.45337  -0.45022  -0.44899
 Alpha  occ. eigenvalues --   -0.44605  -0.44597  -0.44459  -0.44347  -0.44283
 Alpha  occ. eigenvalues --   -0.43996  -0.43835  -0.43652  -0.43589  -0.43419
 Alpha  occ. eigenvalues --   -0.43366  -0.43006  -0.42978  -0.42819  -0.42744
 Alpha  occ. eigenvalues --   -0.42477  -0.42380  -0.42286  -0.42157  -0.41879
 Alpha  occ. eigenvalues --   -0.41852  -0.41615  -0.41573  -0.41380  -0.41339
 Alpha  occ. eigenvalues --   -0.41250  -0.41133  -0.41011  -0.40859  -0.40571
 Alpha  occ. eigenvalues --   -0.40501  -0.40234  -0.40192  -0.39958  -0.39949
 Alpha  occ. eigenvalues --   -0.39719  -0.39441  -0.39318  -0.39006  -0.38828
 Alpha  occ. eigenvalues --   -0.38741  -0.38581  -0.38571  -0.38358  -0.38357
 Alpha  occ. eigenvalues --   -0.38240  -0.38224  -0.37716  -0.37675  -0.37580
 Alpha  occ. eigenvalues --   -0.37378  -0.37082  -0.37050  -0.36891  -0.36803
 Alpha  occ. eigenvalues --   -0.36721  -0.36677  -0.36553  -0.36367  -0.35998
 Alpha  occ. eigenvalues --   -0.35969  -0.35795  -0.35761  -0.35597  -0.35339
 Alpha  occ. eigenvalues --   -0.34932  -0.34911  -0.34750  -0.34340  -0.34047
 Alpha  occ. eigenvalues --   -0.33397  -0.33373  -0.32990  -0.32484  -0.32424
 Alpha  occ. eigenvalues --   -0.32166  -0.31990  -0.31688  -0.31601  -0.31509
 Alpha  occ. eigenvalues --   -0.31400  -0.30879  -0.29504  -0.29285  -0.29122
 Alpha  occ. eigenvalues --   -0.29059  -0.28482  -0.28314  -0.27106  -0.27075
 Alpha  occ. eigenvalues --   -0.26211  -0.25999  -0.25844  -0.25422  -0.25412
 Alpha  occ. eigenvalues --   -0.25287  -0.24822  -0.24307  -0.21476  -0.21277
 Alpha  occ. eigenvalues --   -0.18796  -0.18467
 Alpha virt. eigenvalues --   -0.11526  -0.11108  -0.05312  -0.05119  -0.03846
 Alpha virt. eigenvalues --   -0.03136  -0.02078  -0.02022  -0.01411   0.00148
 Alpha virt. eigenvalues --    0.00181   0.00983   0.01010   0.01357   0.01712

 Mulliken charges:
               1
     1  Mg  11.999951
     2  C    5.998953
     3  C    5.999857
     4  C    6.001247
     5  C    6.000575
     6  N    6.999449
     7  C    6.001691
     8  C    5.999385
     9  C    6.000261
    10  C    5.998950
    11  C    6.000191
    12  C    5.999874
    13  C    6.000091
    14  H    0.999852
    15  N    7.000221
    16  C    5.998465
    17  C    5.998969
    18  C    5.999717
    19  C    5.998077
    20  C    6.000208
    21  C    5.999438
    22  O    7.998920
    23  C    6.000251
    24  N    7.000786
    25  C    5.998303
    26  C    6.000357
    27  C    5.999819
    28  C    6.000846
    29  C    6.000053
    30  C    5.999654
    31  C    5.999973
    32  N    6.999844
    33  C    6.000964
    34  C    6.001465
    35  C    5.999980
    36  C    6.001361
    37  C    5.999800
    38  C    6.000702
    39  O    8.001165
    40  C    6.000091
    41  C    6.000097
    42  O    8.000156
    43  O    8.000077
    44  C    5.999961
    45  H    0.999273
    46  H    0.999811
    47  H    1.000612
    48  H    1.000088
    49  H    0.999952
    50  H    0.999973
    51  H    0.999373
    52  H    1.000063
    53  H    1.000230
    54  H    0.999699
    55  H    1.000282
    56  H    1.000099
    57  H    0.999195
    58  H    0.999240
    59  H    0.999343
    60  H    0.999388
    61  H    0.999749
    62  H    0.999751
    63  H    1.000054
    64  H    1.000050
    65  H    0.999478
    66  H    0.999751
    67  H    1.000306
    68  H    0.999814
    69  H    1.000652
    70  H    1.000299
    71  H    1.000190
    72  H    0.999995
    73  H    1.000985
    74  H    1.000763
    75  H    1.000699
    76  H    1.000351
    77  H    1.000202
    78  H    1.000220
    79  H    1.000023
    80  Mg  11.999725
    81  C    5.972598
    82  C    5.991138
    83  C    6.031060
    84  C    6.007920
    85  N    6.976415
    86  C    6.025662
    87  C    5.996444
    88  C    6.002143
    89  C    5.988077
    90  C    6.002016
    91  C    5.998641
    92  C    5.994118
    93  H    1.001985
    94  N    7.008178
    95  C    5.968321
    96  C    5.973095
    97  C    5.998036
    98  C    5.954891
    99  C    6.004496
   100  C    5.988138
   101  O    7.984156
   102  C    6.001774
   103  N    7.008529
   104  C    5.960725
   105  C    6.010181
   106  C    5.988590
   107  C    6.031844
   108  C    5.999925
   109  C    5.993542
   110  C    6.001983
   111  N    7.000374
   112  C    6.030515
   113  C    6.023729
   114  C    6.001451
   115  C    6.035616
   116  C    6.001256
   117  C    6.016186
   118  O    8.032264
   119  C    6.007012
   120  C    6.003885
   121  O    8.001100
   122  O    8.002259
   123  C    6.000102
   124  H    0.986729
   125  H    0.994881
   126  H    1.015704
   127  H    0.995138
   128  H    1.000785
   129  H    0.995006
   130  H    0.986108
   131  H    1.002781
   132  H    0.997207
   133  H    1.007774
   134  H    1.009899
   135  H    0.993171
   136  H    0.982579
   137  H    0.985746
   138  H    0.982046
   139  H    0.989733
   140  H    0.989091
   141  H    0.992483
   142  H    0.999515
   143  H    1.006649
   144  H    1.002828
   145  H    1.004883
   146  H    0.991235
   147  H    0.994590
   148  H    1.008884
   149  H    1.004825
   150  H    1.005610
   151  H    0.997486
   152  H    1.014872
   153  H    1.015479
   154  H    1.013003
   155  H    1.005749
   156  H    1.004554
   157  H    1.004042
   158  H    0.998838
 Sum of Mulliken charges = 624.00000

 Dipole moment (field-independent basis, Debye):
    X=             -3.0798    Y=              8.7426    Z=             -2.6466  Tot=              9.6396
 Quadrupole moment (field-independent basis, Debye-Ang):
   XX=            151.6746   YY=             -7.6761   ZZ=              1.2567
   XY=           -244.2285   XZ=             75.9740   YZ=              0.8502

 Normal termination of Gaussian 16 at Fri Oct 15 03:50:35 2021.
