 Gaussian 16, Revision A.03,
 Gaussian 16:  ES64L-G16RevA.03 25-Dec-2016

 --------------------------------------------------------
 #p PBE1PBE/Def2SVP td=(nstates=5) density=(transition=1)
 --------------------------------------------------------

 --------------------------------
 TDDFT excited states in gaussian
 --------------------------------
 Symbolic Z-matrix:
 Charge =  0 Multiplicity = 1

                         Standard orientation:
 ---------------------------------------------------------------------
 Center     Atomic      Atomic             Coordinates (Angstroms)
 Number     Number       Type             X           Y           Z
 ---------------------------------------------------------------------
      1         12           0      -10.050896   -0.725038    0.399626
      2          6           0       -9.863661    2.713893   -0.057722
      3          6           0       -8.069916   -0.348430    3.175780
      4          6           0      -10.007252   -4.161517    0.721497
      5          6           0      -11.571168   -1.103590   -2.714222
      6          7           0       -9.172582    1.007863    1.472396
      7          6           0       -9.305696    2.314609    1.187920
      8          6           0       -8.738683    3.273920    2.260229
      9          6           0       -7.945774    2.255430    3.186425
     10          6           0       -8.373689    0.839876    2.566445
     11          6           0       -6.411846    2.583365    3.112321
     12          6           0      -10.000428    3.987184    2.971216
     13          6           0       -9.989777    5.543821    3.008231
     14          1           0       -8.563983    6.178843    2.824925
     15          7           0       -9.127800   -2.106451    1.686576
     16          6           0       -8.409574   -1.721177    2.837408
     17          6           0       -8.161014   -2.896767    3.644335
     18          6           0       -8.657993   -4.002377    2.942653
     19          6           0       -9.383884   -3.448656    1.740137
     20          6           0       -7.206633   -2.849811    4.846054
     21          6           0       -8.547781   -5.503265    3.320919
     22          8           0       -9.017380   -6.446161    2.656819
     23          6           0       -7.874353   -5.867654    4.655216
     24          7           0      -10.643933   -2.363649   -0.895843
     25          6           0      -10.552787   -3.718066   -0.452140
     26          6           0      -10.942572   -4.683013   -1.591334
     27          6           0      -11.707014   -3.678899   -2.574372
     28          6           0      -11.323136   -2.287650   -2.005626
     29          6           0       -9.697164   -5.379631   -2.114226
     30          6           0      -13.278534   -3.890741   -2.515242
     31          6           0      -14.142567   -3.893337   -1.208326
     32          7           0      -10.543773    0.485602   -1.123696
     33          6           0      -11.146558    0.216132   -2.356240
     34          6           0      -11.328849    1.442159   -3.063180
     35          6           0      -10.893319    2.438471   -2.208229
     36          6           0      -10.320497    1.820376   -1.069292
     37          6           0      -11.836521    1.621844   -4.479283
     38          6           0      -10.754188    3.834294   -2.074253
     39          8           0      -10.976105    4.662041   -2.899525
     40          6           0       -9.968813    4.054784   -0.715570
     41          6           0       -8.624637    4.609151   -1.099044
     42          8           0       -7.593466    3.970513   -1.068681
     43          8           0       -8.811084    5.873818   -1.495117
     44          6           0       -7.723286    6.377436   -2.297419
     45          1           0       -7.508544   -0.232580    4.104981
     46          1           0       -9.777012   -5.228325    0.715540
     47          1           0      -12.036561   -1.206135   -3.697276
     48          1           0       -8.099870    4.070048    1.878350
     49          1           0       -8.258037    2.247357    4.230962
     50          1           0       -5.757313    1.716180    3.021539
     51          1           0       -6.305064    3.081197    4.075680
     52          1           0       -6.291358    3.342771    2.340105
     53          1           0      -10.120497    3.522879    3.949820
     54          1           0      -10.885779    3.674004    2.417344
     55          1           0      -10.391772    5.727488    4.004018
     56          1           0      -10.643147    6.026363    2.281949
     57          1           0       -6.430118   -3.593418    4.664913
     58          1           0       -7.736999   -3.179392    5.740479
     59          1           0       -6.808423   -1.842525    4.964145
     60          1           0       -6.804551   -5.700937    4.522764
     61          1           0       -7.991101   -6.946617    4.755362
     62          1           0       -8.431903   -5.421786    5.478527
     63          1           0      -11.693413   -5.338912   -1.149764
     64          1           0      -11.444072   -3.902196   -3.607714
     65          1           0       -8.918647   -5.489081   -1.359043
     66          1           0       -9.275176   -4.830099   -2.955369
     67          1           0       -9.923633   -6.402828   -2.413317
     68          1           0      -13.508560   -4.800470   -3.069931
     69          1           0      -13.652571   -3.008848   -3.035364
     70          1           0      -14.161400   -4.909684   -0.814642
     71          1           0      -15.140449   -3.585889   -1.523253
     72          1           0      -13.879108   -3.148992   -0.456221
     73          1           0      -12.846041    1.231252   -4.608637
     74          1           0      -11.142200    1.033483   -5.078813
     75          1           0      -11.994574    2.653184   -4.797758
     76          1           0      -10.385331    4.760199    0.003686
     77          1           0       -8.026172    7.115536   -3.039726
     78          1           0       -6.983511    5.711804   -2.741906
     79          1           0       -6.989494    6.945240   -1.724953
     80         12           0       10.096125   -0.566214   -0.326696
     81          6           0        8.110890    2.320492   -0.183403
     82          6           0       12.684969    1.268691    1.009425
     83          6           0       11.953859   -3.288390   -0.500654
     84          6           0        7.391907   -2.233009   -1.827262
     85          7           0       10.278324    1.520863    0.393263
     86          6           0        9.359975    2.570124    0.352033
     87          6           0        9.792731    3.813207    1.224459
     88          6           0       11.255367    3.462122    1.417178
     89          6           0       11.440279    1.970611    0.915234
     90          6           0       12.183389    4.382346    0.498907
     91          6           0        8.986525    3.628065    2.585993
     92          6           0        8.351948    4.935252    3.236127
     93          1           0        9.234458    6.123426    2.950674
     94          7           0       12.036670   -0.893254    0.038378
     95          6           0       12.933440   -0.060822    0.559879
     96          6           0       14.216035   -0.682014    0.759247
     97          6           0       14.001303   -2.050968    0.504225
     98          6           0       12.608306   -2.130051   -0.076858
     99          6           0       15.453260   -0.006438    1.225696
    100          6           0       14.870372   -3.254990    0.803754
    101          8           0       14.448406   -4.416061    0.756222
    102          6           0       16.365272   -3.068195    1.077567
    103          7           0        9.711539   -2.495356   -1.122093
    104          6           0       10.691438   -3.448238   -0.972869
    105          6           0       10.116805   -4.800541   -1.389335
    106          6           0        8.573802   -4.498206   -1.716514
    107          6           0        8.499544   -3.009862   -1.498210
    108          6           0       10.996175   -5.424246   -2.530091
    109          6           0        7.536639   -5.300379   -0.946307
    110          6           0        6.483406   -6.005087   -1.857494
    111          7           0        8.164149   -0.060790   -0.911411
    112          6           0        7.158081   -0.856767   -1.543772
    113          6           0        5.997134   -0.079105   -1.792622
    114          6           0        6.346204    1.174791   -1.263357
    115          6           0        7.676788    1.125761   -0.798401
    116          6           0        4.684749   -0.451702   -2.403569
    117          6           0        5.884732    2.503885   -1.019392
    118          8           0        4.851120    3.074717   -1.277347
    119          6           0        6.986373    3.246270   -0.211293
    120          6           0        7.222543    4.576566   -0.828944
    121          8           0        7.766100    4.818724   -1.902880
    122          8           0        6.777518    5.490030    0.039348
    123          6           0        6.978605    6.880499   -0.310679
    124          1           0       13.537827    1.687780    1.547189
    125          1           0       12.624223   -4.150598   -0.541101
    126          1           0        6.506660   -2.726732   -2.233661
    127          1           0        9.432939    4.680774    0.672169
    128          1           0       11.521799    3.525129    2.471704
    129          1           0       11.606008    5.072909   -0.116109
    130          1           0       12.770660    3.734015   -0.151100
    131          1           0       12.827007    4.899409    1.210682
    132          1           0        9.588362    3.202745    3.388564
    133          1           0        8.212758    2.888149    2.379606
    134          1           0        8.415917    4.891749    4.323441
    135          1           0        7.276567    4.986428    3.063776
    136          1           0       15.660800   -0.395617    2.223406
    137          1           0       15.310685    1.069711    1.313658
    138          1           0       16.314628   -0.189683    0.584069
    139          1           0       16.713132   -4.081219    0.876700
    140          1           0       16.591028   -2.718128    2.085528
    141          1           0       16.930717   -2.459752    0.372010
    142          1           0       10.128236   -5.574816   -0.622272
    143          1           0        8.408986   -4.676848   -2.779148
    144          1           0       11.146228   -6.466299   -2.247536
    145          1           0       11.935431   -4.898879   -2.703261
    146          1           0       10.412150   -5.582241   -3.437530
    147          1           0        6.996296   -4.728141   -0.192856
    148          1           0        8.103722   -6.140389   -0.542697
    149          1           0        6.747133   -5.893248   -2.909304
    150          1           0        5.521372   -5.493773   -1.830317
    151          1           0        6.402712   -7.066576   -1.622426
    152          1           0        4.230194   -1.023178   -1.593839
    153          1           0        4.912697   -0.985310   -3.326022
    154          1           0        4.046226    0.412644   -2.580540
    155          1           0        6.497299    3.448142    0.742613
    156          1           0        6.563892    7.079102   -1.299341
    157          1           0        8.010839    7.218527   -0.407985
    158          1           0        6.445318    7.460927    0.442405
 ---------------------------------------------------------------------

 SCF Done:  E(RPBE1PBE) =  -4067.40479724     A.U. after   17 cycles

 Excitation energies and oscillator strengths:

 Excited State   1:      Singlet-A      1.8515 eV  669.66 nm  f=0.0000  <S**2>=0.000
     312 -> 313        0.70708
 This state for optimization and/or second-order correction.
 Total Energy, E(TD-HF/TD-DFT) =  -4067.33675732
 Copying the excited state density for this state as the 1-particle RhoCI density.

 Excited State   2:      Singlet-A      1.8556 eV  668.18 nm  f=0.4163  <S**2>=0.000
     310 -> 316       -0.16874
     312 -> 314        0.68987
     312 <- 314       -0.10716

 Excited State   3:      Singlet-A      1.8613 eV  666.12 nm  f=0.3284  <S**2>=0.000
     309 -> 315       -0.15429
     311 -> 313        0.69061
     311 <- 313       -0.10753

 Excited State   4:      Singlet-A      1.9300 eV  642.40 nm  f=0.0000  <S**2>=0.000
     311 -> 314        0.70710

 Excited State   5:      Singlet-A      2.2278 eV  556.54 nm  f=0.1140  <S**2>=0.000
     310 -> 314        0.65660
     312 -> 316        0.24580

 The electronic state is 1-A.
 Alpha  occ. eigenvalues --  -46.91367 -46.91137 -19.26530 -19.25957 -19.20018
 Alpha  occ. eigenvalues --  -19.19881 -19.19229 -19.19106 -19.18915 -19.17859
 Alpha  occ. eigenvalues --  -14.41747 -14.41601 -14.41105 -14.40833 -14.39678
 Alpha  occ. eigenvalues --  -14.39214 -14.38537 -14.38229 -10.36055 -10.35393
 Alpha  occ. eigenvalues --  -10.33112 -10.32359 -10.31622 -10.30485 -10.29412
 Alpha  occ. eigenvalues --  -10.29077 -10.28626 -10.28410 -10.28368 -10.28312
 Alpha  occ. eigenvalues --  -10.28188 -10.28121 -10.28109 -10.28052 -10.27918
 Alpha  occ. eigenvalues --  -10.27636 -10.27567 -10.27519 -10.27463 -10.27259
 Alpha  occ. eigenvalues --  -10.26991 -10.26556 -10.26332 -10.26272 -10.26266
 Alpha  occ. eigenvalues --  -10.26213 -10.26143 -10.26063 -10.25575 -10.25488
 Alpha  occ. eigenvalues --  -10.25486 -10.25426 -10.25373 -10.25362 -10.25333
 Alpha  occ. eigenvalues --  -10.25222 -10.25143 -10.25103 -10.25027 -10.25005
 Alpha  occ. eigenvalues --  -10.24951 -10.24830 -10.24818 -10.24629 -10.24606
 Alpha  occ. eigenvalues --  -10.24402 -10.24379 -10.24181 -10.24173 -10.24070
 Alpha  occ. eigenvalues --  -10.23898 -10.23887 -10.23706 -10.23444 -10.23402
 Alpha  occ. eigenvalues --  -10.23383 -10.23363 -10.23188 -10.23151 -10.23127
 Alpha  occ. eigenvalues --  -10.22932 -10.22893 -10.22820 -10.22697 -10.22027
 Alpha  occ. eigenvalues --  -10.21604  -3.13548  -3.13422  -1.86389  -1.86275
 Alpha  occ. eigenvalues --   -1.85899  -1.85794  -1.85777  -1.85677  -1.12677
 Alpha  occ. eigenvalues --   -1.11958  -1.06461  -1.04821  -1.04321  -1.03619
 Alpha  occ. eigenvalues --   -1.03123  -1.01963  -0.99425  -0.98717  -0.98572
 Alpha  occ. eigenvalues --   -0.97784  -0.97490  -0.97183  -0.96980  -0.95885
 Alpha  occ. eigenvalues --   -0.87140  -0.86894  -0.83809  -0.82834  -0.82673
 Alpha  occ. eigenvalues --   -0.82653  -0.82223  -0.82206  -0.81932  -0.81511
 Alpha  occ. eigenvalues --   -0.81217  -0.80916  -0.80709  -0.80266  -0.78262
 Alpha  occ. eigenvalues --   -0.78062  -0.77819  -0.77515  -0.76529  -0.76429
 Alpha  occ. eigenvalues --   -0.75961  -0.75526  -0.75355  -0.75097  -0.74655
 Alpha  occ. eigenvalues --   -0.74098  -0.73014  -0.71958  -0.71791  -0.71274
 Alpha  occ. eigenvalues --   -0.71099  -0.70892  -0.69970  -0.69924  -0.69284
 Alpha  occ. eigenvalues --   -0.69239  -0.67576  -0.67239  -0.65793  -0.65528
 Alpha  occ. eigenvalues --   -0.63442  -0.63220  -0.63136  -0.62952  -0.62199
 Alpha  occ. eigenvalues --   -0.62039  -0.61777  -0.60760  -0.60127  -0.59786
 Alpha  occ. eigenvalues --   -0.59698  -0.59536  -0.59071  -0.58955  -0.58903
 Alpha  occ. eigenvalues --   -0.58290  -0.57081  -0.56789  -0.55183  -0.54330
 Alpha  occ. eigenvalues --   -0.54164  -0.53814  -0.53686  -0.53431  -0.53197
 Alpha  occ. eigenvalues --   -0.52623  -0.52475  -0.52330  -0.51867  -0.51716
 Alpha  occ. eigenvalues --   -0.51145  -0.50554  -0.50196  -0.50191  -0.49844
 Alpha  occ. eigenvalues --   -0.49374  -0.49013  -0.48909  -0.48422  -0.48401
 Alpha  occ. eigenvalues --   -0.48019  -0.47678  -0.47642  -0.47423  -0.47190
 Alpha  occ. eigenvalues --   -0.47060  -0.46934  -0.46705  -0.46698  -0.46420
 Alpha  occ. eigenvalues --   -0.46392  -0.46271  -0.46086  -0.45934  -0.45496
 Alpha  occ. eigenvalues --   -0.45446  -0.45243  -0.45093  -0.44961  -0.44855
 Alpha  occ. eigenvalues --   -0.44540  -0.44317  -0.44284  -0.44225  -0.43928
 Alpha  occ. eigenvalues --   -0.43806  -0.43719  -0.43425  -0.43273  -0.43179
 Alpha  occ. eigenvalues --   -0.43034  -0.42869  -0.42842  -0.42567  -0.42499
 Alpha  occ. eigenvalues --   -0.42333  -0.42328  -0.42161  -0.42062  -0.41865
 Alpha  occ. eigenvalues --   -0.41574  -0.41503  -0.41314  -0.41233  -0.41037
 Alpha  occ. eigenvalues --   -0.40915  -0.40825  -0.40773  -0.40317  -0.40141
 Alpha  occ. eigenvalues --   -0.40031  -0.39873  -0.39633  -0.39549  -0.39501
 Alpha  occ. eigenvalues --   -0.39401  -0.39278  -0.39264  -0.39132  -0.39047
 Alpha  occ. eigenvalues --   -0.38810  -0.38516  -0.38346  -0.38264  -0.38180
 Alpha  occ. eigenvalues --   -0.38023  -0.37882  -0.37753  -0.37631  -0.37533
 Alpha  occ. eigenvalues --   -0.37413  -0.37380  -0.37234  -0.37144  -0.36777
 Alpha  occ. eigenvalues --   -0.36771  -0.36531  -0.36477  -0.36106  -0.35958
 Alpha  occ. eigenvalues --   -0.35633  -0.35605  -0.35522  -0.35345  -0.35067
 Alpha  occ. eigenvalues --   -0.34980  -0.34640  -0.34398  -0.33967  -0.33707
 Alpha  occ. eigenvalues --   -0.33261  -0.32637  -0.32563  -0.32392  -0.32353
 Alpha  occ. eigenvalues --   -0.31982  -0.31935  -0.31783  -0.31474  -0.31420
 Alpha  occ. eigenvalues --   -0.31323  -0.31083  -0.29473  -0.29449  -0.29052
 Alpha  occ. eigenvalues --   -0.29001  -0.28146  -0.28144  -0.27178  -0.27022
 Alpha  occ. eigenvalues --   -0.26443  -0.26364  -0.26023  -0.25476  -0.25358
 Alpha  occ. eigenvalues --   -0.25272  -0.25071  -0.24585  -0.20992  -0.20569
 Alpha  occ. eigenvalues --   -0.18656  -0.18498
 Alpha virt. eigenvalues --   -0.11038  -0.10892  -0.05297  -0.04813  -0.03516
 Alpha virt. eigenvalues --   -0.03516  -0.01804  -0.01593  -0.00221   0.00566
 Alpha virt. eigenvalues --    0.00671   0.01459   0.01757   0.01778   0.01984

 Mulliken charges:
               1
     1  Mg  12.000000
     2  C    6.000000
     3  C    6.000000
     4  C    6.000000
     5  C    6.000000
     6  N    7.000000
     7  C    6.000000
     8  C    6.000000
     9  C    6.000000
    10  C    6.000000
    11  C    6.000000
    12  C    6.000000
    13  C    6.000000
    14  H    1.000000
    15  N    7.000000
    16  C    6.000000
    17  C    6.000000
    18  C    6.000000
    19  C    6.000000
    20  C    6.000000
    21  C    6.000000
    22  O    8.000000
    23  C    6.000000
    24  N    7.000000
    25  C    6.000000
    26  C    6.000000
    27  C    6.000000
    28  C    6.000000
    29  C    6.000000
    30  C    6.000000
    31  C    6.000000
    32  N    7.000000
    33  C    6.000000
    34  C    6.000000
    35  C    6.000000
    36  C    6.000000
    37  C    6.000000
    38  C    6.000000
    39  O    8.000000
    40  C    6.000000
    41  C    6.000000
    42  O    8.000000
    43  O    8.000000
    44  C    6.000000
    45  H    1.000000
    46  H    1.000000
    47  H    1.000000
    48  H    1.000000
    49  H    1.000000
    50  H    1.000000
    51  H    1.000000
    52  H    1.000000
    53  H    1.000000
    54  H    1.000000
    55  H    1.000000
    56  H    1.000000
    57  H    1.000000
    58  H    1.000000
    59  H    1.000000
    60  H    1.000000
    61  H    1.000000
    62  H    1.000000
    63  H    1.000000
    64  H    1.000000
    65  H    1.000000
    66  H    1.000000
    67  H    1.000000
    68  H    1.000000
    69  H    1.000000
    70  H    1.000000
    71  H    1.000000
    72  H    1.000000
    73  H    1.000000
    74  H    1.000000
    75  H    1.000000
    76  H    1.000000
    77  H    1.000000
    78  H    1.000000
    79  H    1.000000
    80  Mg  12.000000
    81  C    6.000000
    82  C    6.000000
    83  C    6.000000
    84  C    6.000000
    85  N    7.000000
    86  C    6.000000
    87  C    6.000000
    88  C    6.000000
    89  C    6.000000
    90  C    6.000000
    91  C    6.000000
    92  C    6.000000
    93  H    1.000000
    94  N    7.000000
    95  C    6.000000
    96  C    6.000000
    97  C    6.000000
    98  C    6.000000
    99  C    6.000000
   100  C    6.000000
   101  O    8.000000
   102  C    6.000000
   103  N    7.000000
   104  C    6.000000
   105  C    6.000000
   106  C    6.000000
   107  C    6.000000
   108  C    6.000000
   109  C    6.000000
   110  C    6.000000
   111  N    7.000000
   112  C    6.000000
   113  C    6.000000
   114  C    6.000000
   115  C    6.000000
   116  C    6.000000
   117  C    6.000000
   118  O    8.000000
   119  C    6.000000
   120  C    6.000000
   121  O    8.000000
   122  O    8.000000
   123  C    6.000000
   124  H    1.000000
   125  H    1.000000
   126  H    1.000000
   127  H    1.000000
   128  H    1.000000
   129  H    1.000000
   130  H    1.000000
   131  H    1.000000
   132  H    1.000000
   133  H    1.000000
   134  H    1.000000
   135  H    1.000000
   136  H    1.000000
   137  H    1.000000
   138  H    1.000000
   139  H    1.000000
   140  H    1.000000
   141  H    1.000000
   142  H    1.000000
   143  H    1.000000
   144  H    1.000000
   145  H    1.000000
   146  H    1.000000
   147  H    1.000000
   148  H    1.000000
   149  H    1.000000
   150  H    1.000000
   151  H    1.000000
   152  H    1.000000
   153  H    1.000000
   154  H    1.000000
   155  H    1.000000
   156  H    1.000000
   157  H    1.000000
   158  H    1.000000
 Sum of Mulliken charges = 624.00000

 Dipole moment (field-independent basis, Debye):
    X=              0.0000    Y=             -0.0000    Z=              0.0000  Tot=              0.0000
 Quadrupole moment (field-independent basis, Debye-Ang):
   XX=             -0.0000   YY=              0.0000   ZZ=              0.0000
   XY=              0.0000   XZ=             -0.0000   YZ=             -0.0000

 Normal termination of Gaussian 16 at Thu Oct 14 21:06:50 2021.
