 Gaussian 16, Revision A.03,
 Gaussian 16:  ES64L-G16RevA.03 25-Dec-2016

 --------------------------------------------------------
 #p PBE1PBE/Def2SVP td=(nstates=5) density=(transition=1)
 --------------------------------------------------------

 --------------------------------
 TDDFT excited states in gaussian
 --------------------------------
 Symbolic Z-matrix:
 Charge =  0 Multiplicity = 1

                         Standard orientation:
 ---------------------------------------------------------------------
 Center     Atomic      Atomic             Coordinates (Angstroms)
 Number     Number       Type             X           Y           Z
 ---------------------------------------------------------------------
      1         12           0      -17.769712   -0.855618    0.173791
      2          6           0      -17.764451    2.660185   -0.384040
      3          6           0      -16.695688   -0.261555    3.385666
      4          6           0      -17.774410   -4.145129    0.486808
      5          6           0      -18.398494   -1.348593   -3.330626
      6          7           0      -17.199964    1.040965    1.395761
      7          6           0      -17.401636    2.328047    0.932015
      8          6           0      -17.056679    3.279926    2.128258
      9          6           0      -16.658642    2.319337    3.371571
     10          6           0      -16.845998    0.966086    2.678103
     11          6           0      -15.281702    2.579155    4.017337
     12          6           0      -18.103758    4.419766    2.467641
     13          6           0      -17.577959    5.824518    2.408851
     14          1           0      -16.138330    6.188565    2.659329
     15          7           0      -17.402349   -2.088184    1.834607
     16          6           0      -16.966701   -1.640744    3.042002
     17          6           0      -16.994690   -2.783299    3.918551
     18          6           0      -17.197329   -3.914398    3.098689
     19          6           0      -17.457250   -3.449070    1.697529
     20          6           0      -16.649906   -2.618924    5.408372
     21          6           0      -17.047714   -5.353403    3.489913
     22          8           0      -17.136955   -6.275754    2.645191
     23          6           0      -16.729604   -5.695107    4.898276
     24          7           0      -17.996481   -2.498002   -1.305840
     25          6           0      -18.032864   -3.716459   -0.891505
     26          6           0      -18.381466   -4.856179   -1.989997
     27          6           0      -18.557200   -3.936867   -3.208248
     28          6           0      -18.321008   -2.561795   -2.633122
     29          6           0      -17.190811   -5.879243   -2.083913
     30          6           0      -19.926478   -4.023276   -3.969754
     31          6           0      -21.155468   -3.412889   -3.255095
     32          7           0      -17.897266    0.345653   -1.475959
     33          6           0      -18.129552   -0.023484   -2.821841
     34          6           0      -18.282043    1.209911   -3.605556
     35          6           0      -18.154982    2.280830   -2.688578
     36          6           0      -17.962853    1.702226   -1.388571
     37          6           0      -18.572081    1.279287   -5.134827
     38          6           0      -18.193072    3.644896   -2.622185
     39          8           0      -18.308510    4.501429   -3.474954
     40          6           0      -18.004765    4.009975   -1.123207
     41          6           0      -16.908785    4.944927   -1.014496
     42          8           0      -15.720331    4.627951   -0.890898
     43          8           0      -17.360933    6.237401   -1.305910
     44          6           0      -16.283378    7.252274   -1.410758
     45          1           0      -16.127664   -0.228937    4.318138
     46          1           0      -17.611220   -5.221732    0.569950
     47          1           0      -18.593616   -1.441778   -4.400954
     48          1           0      -16.236456    3.821246    1.658537
     49          1           0      -17.353462    2.500918    4.190338
     50          1           0      -15.386405    2.761615    5.087610
     51          1           0      -14.680683    3.380174    3.587270
     52          1           0      -14.738453    1.648723    3.852161
     53          1           0      -18.538178    4.245910    3.452293
     54          1           0      -18.864939    4.348551    1.690665
     55          1           0      -17.965539    6.332445    3.292682
     56          1           0      -17.905674    6.262739    1.466824
     57          1           0      -16.709061   -1.579311    5.731381
     58          1           0      -15.646773   -2.999360    5.596645
     59          1           0      -17.397255   -3.219335    5.926102
     60          1           0      -17.523968   -5.271309    5.512702
     61          1           0      -15.796434   -5.230776    5.219468
     62          1           0      -16.595950   -6.770121    5.012127
     63          1           0      -19.314635   -5.366469   -1.750186
     64          1           0      -17.700486   -4.047393   -3.873418
     65          1           0      -16.274338   -5.344993   -1.833556
     66          1           0      -17.106276   -6.205597   -3.121070
     67          1           0      -17.233333   -6.773067   -1.460988
     68          1           0      -20.084474   -5.039201   -4.330358
     69          1           0      -19.802382   -3.503724   -4.919379
     70          1           0      -21.165282   -3.461972   -2.166759
     71          1           0      -22.053063   -3.845625   -3.698316
     72          1           0      -21.169346   -2.368725   -3.567166
     73          1           0      -19.400337    1.942536   -5.384425
     74          1           0      -18.742088    0.302452   -5.586182
     75          1           0      -17.791930    1.870197   -5.615371
     76          1           0      -18.954262    4.494259   -0.897497
     77          1           0      -15.678358    7.078210   -2.300197
     78          1           0      -15.574674    7.245291   -0.583429
     79          1           0      -16.766256    8.223044   -1.297485
     80         12           0       17.868877   -0.581550    0.138719
     81          6           0       16.026901    2.332970    0.566701
     82          6           0       20.709068    1.343197    0.181286
     83          6           0       19.697320   -3.427684   -0.547732
     84          6           0       14.951466   -2.393368   -0.458445
     85          7           0       18.294080    1.574520    0.448207
     86          6           0       17.422673    2.562903    0.712742
     87          6           0       18.069906    3.917556    1.083734
     88          6           0       19.589645    3.635812    0.716472
     89          6           0       19.564087    2.069478    0.374089
     90          6           0       20.012390    4.574255   -0.469521
     91          6           0       17.791629    4.159871    2.655387
     92          6           0       17.120576    5.510448    3.042983
     93          1           0       17.273464    6.636170    1.957111
     94          7           0       19.891904   -1.022814   -0.220859
     95          6           0       20.923256   -0.073631   -0.065730
     96          6           0       22.196198   -0.761530   -0.102310
     97          6           0       21.937299   -2.113694   -0.359881
     98          6           0       20.436789   -2.273801   -0.310822
     99          6           0       23.517960    0.014725   -0.189206
    100          6           0       22.961427   -3.254228   -0.601210
    101          8           0       22.669850   -4.444795   -0.820618
    102          6           0       24.458981   -2.920182   -0.489953
    103          7           0       17.341866   -2.589287   -0.498643
    104          6           0       18.343647   -3.595343   -0.653281
    105          6           0       17.718801   -4.894223   -1.204004
    106          6           0       16.172271   -4.627172   -0.894313
    107          6           0       16.150199   -3.114554   -0.550935
    108          6           0       18.131707   -5.080131   -2.654755
    109          6           0       15.669680   -5.486467    0.341432
    110          6           0       16.350460   -5.526991    1.751923
    111          7           0       15.912736   -0.159150   -0.016771
    112          6           0       14.811687   -0.979453   -0.281198
    113          6           0       13.622259   -0.192819   -0.230134
    114          6           0       14.026718    1.078620    0.134722
    115          6           0       15.443196    1.099303    0.157189
    116          6           0       12.211639   -0.633772   -0.563419
    117          6           0       13.557967    2.373237    0.434501
    118          8           0       12.438921    2.769495    0.355745
    119          6           0       14.856002    3.265086    0.611026
    120          6           0       14.853462    4.233098   -0.539683
    121          8           0       15.590037    4.147565   -1.500014
    122          8           0       13.890879    5.132581   -0.304349
    123          6           0       13.474547    5.834158   -1.493922
    124          1           0       21.622571    1.933832    0.274221
    125          1           0       20.270113   -4.243441   -0.992225
    126          1           0       14.028727   -2.944382   -0.654500
    127          1           0       17.669542    4.782477    0.555196
    128          1           0       20.291805    3.765089    1.540419
    129          1           0       20.601895    4.094699   -1.251296
    130          1           0       20.593333    5.301279    0.097260
    131          1           0       19.106874    5.076747   -0.808749
    132          1           0       18.727069    3.964990    3.179442
    133          1           0       17.131494    3.355414    2.980614
    134          1           0       17.660501    5.751959    3.957903
    135          1           0       16.058997    5.446099    3.279911
    136          1           0       24.030090   -0.328662   -1.088399
    137          1           0       24.157306   -0.267506    0.648344
    138          1           0       23.318919    1.085908   -0.198731
    139          1           0       24.717953   -2.340079   -1.376648
    140          1           0       24.978775   -3.871554   -0.601872
    141          1           0       24.679818   -2.567423    0.517168
    142          1           0       18.056923   -5.672523   -0.519262
    143          1           0       15.563465   -4.973864   -1.728552
    144          1           0       19.098641   -4.632770   -2.885569
    145          1           0       17.390453   -4.642919   -3.323312
    146          1           0       18.265214   -6.136706   -2.886064
    147          1           0       15.548058   -6.514235   -0.000769
    148          1           0       14.705177   -5.030793    0.565620
    149          1           0       17.114441   -6.304467    1.739030
    150          1           0       15.552265   -5.785681    2.448655
    151          1           0       16.716934   -4.574675    2.136520
    152          1           0       11.871559   -1.448112    0.076598
    153          1           0       12.288591   -0.989854   -1.590536
    154          1           0       11.427764    0.098298   -0.364213
    155          1           0       14.934890    3.875535    1.510778
    156          1           0       12.428504    6.139516   -1.483887
    157          1           0       13.727858    5.472447   -2.490366
    158          1           0       13.971892    6.795223   -1.626477
 ---------------------------------------------------------------------

 SCF Done:  E(RPBE1PBE) =  -4067.37884516     A.U. after   16 cycles

 Excitation energies and oscillator strengths:

 Excited State   1:      Singlet-A      1.8556 eV  668.17 nm  f=0.3789  <S**2>=0.000
     310 -> 316       -0.16968
     312 -> 314        0.69317
     312 <- 314       -0.10775
 This state for optimization and/or second-order correction.
 Total Energy, E(TD-HF/TD-DFT) =  -4067.31065427
 Copying the excited state density for this state as the 1-particle RhoCI density.

 Excited State   2:      Singlet-A      1.8677 eV  663.84 nm  f=0.3619  <S**2>=0.000
     309 -> 315        0.18704
     311 -> 313        0.68775

 Excited State   3:      Singlet-A      1.9497 eV  635.92 nm  f=0.0000  <S**2>=0.000
     312 -> 313        0.70711

 Excited State   4:      Singlet-A      2.0335 eV  609.69 nm  f=0.0000  <S**2>=0.000
     311 -> 314        0.70710

 Excited State   5:      Singlet-A      2.2068 eV  561.82 nm  f=0.1021  <S**2>=0.000
     309 -> 313        0.65388
     311 -> 315       -0.25869

 The electronic state is 1-A.
 Alpha  occ. eigenvalues --  -46.93188 -46.91456 -19.26673 -19.24992 -19.20158
 Alpha  occ. eigenvalues --  -19.19585 -19.19329 -19.18982 -19.18683 -19.18121
 Alpha  occ. eigenvalues --  -14.42048 -14.41694 -14.41418 -14.40919 -14.39519
 Alpha  occ. eigenvalues --  -14.39300 -14.39284 -14.38629 -10.36191 -10.35668
 Alpha  occ. eigenvalues --  -10.32425 -10.31873 -10.31723 -10.30672 -10.29419
 Alpha  occ. eigenvalues --  -10.29172 -10.29156 -10.29005 -10.28790 -10.28477
 Alpha  occ. eigenvalues --  -10.28217 -10.28215 -10.28192 -10.28155 -10.28068
 Alpha  occ. eigenvalues --  -10.28058 -10.27720 -10.27656 -10.27606 -10.27548
 Alpha  occ. eigenvalues --  -10.27358 -10.26743 -10.26605 -10.26561 -10.26359
 Alpha  occ. eigenvalues --  -10.26319 -10.26252 -10.26154 -10.26112 -10.25983
 Alpha  occ. eigenvalues --  -10.25962 -10.25648 -10.25597 -10.25568 -10.25516
 Alpha  occ. eigenvalues --  -10.25493 -10.25461 -10.25316 -10.25296 -10.25292
 Alpha  occ. eigenvalues --  -10.25239 -10.25120 -10.25000 -10.24924 -10.24903
 Alpha  occ. eigenvalues --  -10.24872 -10.24709 -10.24697 -10.24546 -10.24267
 Alpha  occ. eigenvalues --  -10.24245 -10.24207 -10.24136 -10.23747 -10.23663
 Alpha  occ. eigenvalues --  -10.23491 -10.23397 -10.23374 -10.23327 -10.23319
 Alpha  occ. eigenvalues --  -10.23181 -10.22994 -10.22903 -10.22765 -10.22120
 Alpha  occ. eigenvalues --  -10.22002  -3.15112  -3.13637  -1.87966  -1.87520
 Alpha  occ. eigenvalues --   -1.87291  -1.86479  -1.85988  -1.85883  -1.12819
 Alpha  occ. eigenvalues --   -1.09152  -1.06562  -1.04305  -1.03760  -1.03188
 Alpha  occ. eigenvalues --   -1.02854  -1.01188  -1.00729  -0.98665  -0.98175
 Alpha  occ. eigenvalues --   -0.97873  -0.97583  -0.97271  -0.96588  -0.95971
 Alpha  occ. eigenvalues --   -0.86995  -0.86858  -0.84053  -0.82918  -0.82372
 Alpha  occ. eigenvalues --   -0.82327  -0.82033  -0.82012  -0.81388  -0.81304
 Alpha  occ. eigenvalues --   -0.81100  -0.80793  -0.80351  -0.79923  -0.78546
 Alpha  occ. eigenvalues --   -0.78167  -0.77687  -0.77609  -0.76831  -0.76517
 Alpha  occ. eigenvalues --   -0.76205  -0.75464  -0.75171  -0.75025  -0.74385
 Alpha  occ. eigenvalues --   -0.74179  -0.72429  -0.72038  -0.71876  -0.71360
 Alpha  occ. eigenvalues --   -0.70992  -0.70773  -0.70090  -0.70078  -0.69329
 Alpha  occ. eigenvalues --   -0.69309  -0.67328  -0.67065  -0.65982  -0.65621
 Alpha  occ. eigenvalues --   -0.64780  -0.63531  -0.63214  -0.63048  -0.62297
 Alpha  occ. eigenvalues --   -0.62256  -0.61213  -0.60847  -0.60241  -0.59784
 Alpha  occ. eigenvalues --   -0.59419  -0.59110  -0.59050  -0.59001  -0.58773
 Alpha  occ. eigenvalues --   -0.58370  -0.56892  -0.56083  -0.54587  -0.54425
 Alpha  occ. eigenvalues --   -0.54112  -0.53904  -0.53521  -0.53254  -0.52730
 Alpha  occ. eigenvalues --   -0.52702  -0.52572  -0.52445  -0.52119  -0.51807
 Alpha  occ. eigenvalues --   -0.50824  -0.50669  -0.50552  -0.50282  -0.49859
 Alpha  occ. eigenvalues --   -0.49487  -0.49427  -0.49010  -0.48478  -0.48158
 Alpha  occ. eigenvalues --   -0.47781  -0.47739  -0.47637  -0.47547  -0.47300
 Alpha  occ. eigenvalues --   -0.47194  -0.46995  -0.46786  -0.46588  -0.46498
 Alpha  occ. eigenvalues --   -0.46357  -0.46186  -0.46101  -0.45814  -0.45544
 Alpha  occ. eigenvalues --   -0.45498  -0.45065  -0.44820  -0.44452  -0.44412
 Alpha  occ. eigenvalues --   -0.44384  -0.44099  -0.44033  -0.43832  -0.43801
 Alpha  occ. eigenvalues --   -0.43755  -0.43514  -0.43509  -0.43338  -0.43259
 Alpha  occ. eigenvalues --   -0.43204  -0.42948  -0.42646  -0.42580  -0.42484
 Alpha  occ. eigenvalues --   -0.42427  -0.42176  -0.42154  -0.42003  -0.41668
 Alpha  occ. eigenvalues --   -0.41425  -0.41326  -0.41316  -0.41221  -0.41008
 Alpha  occ. eigenvalues --   -0.40913  -0.40884  -0.40596  -0.40398  -0.40274
 Alpha  occ. eigenvalues --   -0.40240  -0.39786  -0.39724  -0.39644  -0.39483
 Alpha  occ. eigenvalues --   -0.39465  -0.39217  -0.39106  -0.38925  -0.38646
 Alpha  occ. eigenvalues --   -0.38466  -0.38446  -0.38360  -0.38129  -0.38053
 Alpha  occ. eigenvalues --   -0.37981  -0.37859  -0.37734  -0.37635  -0.37464
 Alpha  occ. eigenvalues --   -0.37381  -0.37230  -0.37196  -0.36852  -0.36748
 Alpha  occ. eigenvalues --   -0.36675  -0.36610  -0.36501  -0.36195  -0.36183
 Alpha  occ. eigenvalues --   -0.36056  -0.35954  -0.35681  -0.35624  -0.35493
 Alpha  occ. eigenvalues --   -0.35155  -0.35019  -0.34653  -0.34474  -0.34069
 Alpha  occ. eigenvalues --   -0.34052  -0.32654  -0.32449  -0.32061  -0.31925
 Alpha  occ. eigenvalues --   -0.31911  -0.31696  -0.31519  -0.31487  -0.31182
 Alpha  occ. eigenvalues --   -0.31063  -0.30559  -0.29584  -0.29163  -0.29124
 Alpha  occ. eigenvalues --   -0.28662  -0.28447  -0.28238  -0.27112  -0.26848
 Alpha  occ. eigenvalues --   -0.26118  -0.25745  -0.25614  -0.25562  -0.25495
 Alpha  occ. eigenvalues --   -0.25446  -0.25174  -0.25144  -0.20702  -0.20659
 Alpha  occ. eigenvalues --   -0.18831  -0.18586
 Alpha virt. eigenvalues --   -0.11052  -0.10981  -0.05257  -0.04898  -0.04027
 Alpha virt. eigenvalues --   -0.03608  -0.02063  -0.01890  -0.00306  -0.00162
 Alpha virt. eigenvalues --    0.00376   0.00570   0.01487   0.01638   0.01910

 Mulliken charges:
               1
     1  Mg  12.000042
     2  C    6.000023
     3  C    5.999964
     4  C    6.000123
     5  C    6.000056
     6  N    7.000069
     7  C    5.999701
     8  C    6.000042
     9  C    5.999806
    10  C    6.000411
    11  C    5.999979
    12  C    6.000007
    13  C    5.999984
    14  H    1.000121
    15  N    6.999851
    16  C    6.000313
    17  C    6.000168
    18  C    6.000084
    19  C    5.999979
    20  C    6.000020
    21  C    6.000169
    22  O    8.000172
    23  C    5.999976
    24  N    7.000061
    25  C    6.000188
    26  C    5.999948
    27  C    6.000106
    28  C    5.999486
    29  C    5.999970
    30  C    6.000038
    31  C    6.000022
    32  N    7.000114
    33  C    5.999726
    34  C    5.999625
    35  C    6.000095
    36  C    5.999817
    37  C    6.000007
    38  C    5.999972
    39  O    7.999657
    40  C    6.000118
    41  C    5.999919
    42  O    8.000101
    43  O    7.999936
    44  C    6.000024
    45  H    1.000089
    46  H    1.000140
    47  H    0.999948
    48  H    1.000102
    49  H    0.999990
    50  H    1.000017
    51  H    1.000192
    52  H    1.000097
    53  H    0.999881
    54  H    0.999963
    55  H    0.999922
    56  H    1.000017
    57  H    1.000109
    58  H    1.000278
    59  H    1.000057
    60  H    0.999989
    61  H    1.000150
    62  H    1.000091
    63  H    0.999943
    64  H    1.000066
    65  H    1.000091
    66  H    1.000092
    67  H    0.999931
    68  H    0.999880
    69  H    1.000014
    70  H    0.999899
    71  H    0.999853
    72  H    1.000070
    73  H    0.999734
    74  H    0.999832
    75  H    0.999877
    76  H    0.999761
    77  H    1.000049
    78  H    1.000007
    79  H    0.999881
    80  Mg  11.997355
    81  C    6.017439
    82  C    5.988726
    83  C    5.979311
    84  C    5.996218
    85  N    7.006221
    86  C    5.972280
    87  C    6.009205
    88  C    5.991648
    89  C    6.028645
    90  C    5.996885
    91  C    6.003570
    92  C    6.002251
    93  H    0.996332
    94  N    6.995355
    95  C    6.043489
    96  C    6.016152
    97  C    6.015402
    98  C    6.037901
    99  C    5.998271
   100  C    6.012821
   101  O    8.029650
   102  C    5.994644
   103  N    6.990492
   104  C    6.032613
   105  C    5.991988
   106  C    6.010384
   107  C    5.976694
   108  C    5.996350
   109  C    6.006324
   110  C    5.996045
   111  N    7.003610
   112  C    5.971457
   113  C    5.969066
   114  C    6.000990
   115  C    5.970163
   116  C    5.999480
   117  C    5.981812
   118  O    7.972645
   119  C    5.998925
   120  C    5.997954
   121  O    7.989578
   122  O    8.000819
   123  C    6.004872
   124  H    1.010806
   125  H    1.004182
   126  H    0.988297
   127  H    1.000445
   128  H    1.000184
   129  H    0.996476
   130  H    1.004689
   131  H    1.012414
   132  H    0.988965
   133  H    1.004097
   134  H    0.996015
   135  H    1.003614
   136  H    1.015028
   137  H    1.016716
   138  H    1.016080
   139  H    1.008028
   140  H    1.014067
   141  H    1.007168
   142  H    0.998732
   143  H    0.996894
   144  H    0.991842
   145  H    1.011084
   146  H    1.004468
   147  H    0.991196
   148  H    1.005914
   149  H    0.992091
   150  H    1.001143
   151  H    0.998358
   152  H    0.981614
   153  H    0.984132
   154  H    0.987325
   155  H    0.988971
   156  H    0.997289
   157  H    0.996988
   158  H    0.992654
 Sum of Mulliken charges = 624.00000

 Dipole moment (field-independent basis, Debye):
    X=             10.1711    Y=             -2.0433    Z=             -0.2785  Tot=             10.3781
 Quadrupole moment (field-independent basis, Debye-Ang):
   XX=            364.2159   YY=             -0.3954   ZZ=             -0.4698
   XY=            -40.4458   XZ=            -10.2994   YZ=              0.8808

 Normal termination of Gaussian 16 at Thu Oct 14 12:03:17 2021.
