 Gaussian 16, Revision A.03,
 Gaussian 16:  ES64L-G16RevA.03 25-Dec-2016

 --------------------------------------------------------
 #p PBE1PBE/Def2SVP td=(nstates=5) density=(transition=1)
 --------------------------------------------------------

 --------------------------------
 TDDFT excited states in gaussian
 --------------------------------
 Symbolic Z-matrix:
 Charge =  0 Multiplicity = 1

                         Standard orientation:
 ---------------------------------------------------------------------
 Center     Atomic      Atomic             Coordinates (Angstroms)
 Number     Number       Type             X           Y           Z
 ---------------------------------------------------------------------
      1         12           0       -9.604057    0.018198    0.752797
      2          6           0       -8.956884   -2.007583   -1.968748
      3          6           0       -6.798551   -1.281659    2.266017
      4          6           0       -9.889355    2.431686    3.180324
      5          6           0      -12.330002    1.349876   -0.874178
      6          7           0       -7.961323   -1.308412    0.138669
      7          6           0       -7.973436   -2.072612   -1.011521
      8          6           0       -6.773638   -3.013530   -1.082013
      9          6           0       -6.298174   -3.009926    0.418669
     10          6           0       -7.019175   -1.780322    0.951416
     11          6           0       -6.507527   -4.351150    1.257429
     12          6           0       -5.673484   -2.659067   -2.132708
     13          6           0       -5.157853   -3.816901   -2.961025
     14          1           0       -3.721997   -4.176739   -2.612259
     15          7           0       -8.482182    0.480993    2.439576
     16          6           0       -7.407462   -0.169819    2.899045
     17          6           0       -6.973623    0.383676    4.170127
     18          6           0       -7.778557    1.452245    4.528183
     19          6           0       -8.749220    1.547412    3.354687
     20          6           0       -5.674392   -0.147245    4.943555
     21          6           0       -7.717794    2.277840    5.857540
     22          8           0       -6.795932    2.026715    6.684412
     23          6           0       -8.673758    3.371183    6.146256
     24          7           0      -10.817218    1.878845    1.007412
     25          6           0      -10.861151    2.562110    2.127946
     26          6           0      -12.097648    3.429306    2.239660
     27          6           0      -12.912903    3.216044    0.919260
     28          6           0      -12.039032    2.019752    0.305827
     29          6           0      -12.893283    3.486730    3.582743
     30          6           0      -13.092072    4.381237   -0.096659
     31          6           0      -14.222845    4.143563   -1.076073
     32          7           0      -10.487406   -0.260144   -1.094456
     33          6           0      -11.676794    0.304529   -1.610364
     34          6           0      -11.966961   -0.345217   -2.859400
     35          6           0      -10.944104   -1.305137   -3.054425
     36          6           0      -10.084724   -1.150566   -1.970198
     37          6           0      -13.250354   -0.223638   -3.667453
     38          6           0      -10.537437   -2.298140   -3.919110
     39          8           0      -10.885300   -2.689059   -4.999962
     40          6           0       -9.098232   -2.733301   -3.325720
     41          6           0       -8.097095   -2.019124   -4.232486
     42          8           0       -7.771594   -0.850537   -4.148617
     43          8           0       -7.663686   -2.952328   -5.160416
     44          6           0       -6.774214   -2.449483   -6.202350
     45          1           0       -6.048611   -1.787130    2.877752
     46          1           0       -9.929168    3.160968    3.991741
     47          1           0      -13.236851    1.573994   -1.439709
     48          1           0       -7.156366   -4.013926   -1.281981
     49          1           0       -5.263606   -2.664847    0.414683
     50          1           0       -6.526780   -3.968646    2.277870
     51          1           0       -5.643504   -5.016099    1.262318
     52          1           0       -7.387815   -4.948184    1.019608
     53          1           0       -4.870121   -2.250073   -1.519645
     54          1           0       -5.853412   -1.787679   -2.761981
     55          1           0       -5.241093   -3.526756   -4.008645
     56          1           0       -5.739439   -4.727215   -2.814134
     57          1           0       -5.117679   -0.933445    4.431851
     58          1           0       -5.943191   -0.516411    5.933848
     59          1           0       -4.891423    0.604831    5.030279
     60          1           0       -9.688288    2.974017    6.155857
     61          1           0       -8.493640    4.240159    5.513238
     62          1           0       -8.526778    3.572152    7.206712
     63          1           0      -11.933744    4.499724    2.113695
     64          1           0      -13.835453    2.658811    1.083732
     65          1           0      -12.251194    3.017111    4.329189
     66          1           0      -13.903060    3.080269    3.515156
     67          1           0      -13.065619    4.495594    3.957981
     68          1           0      -12.119776    4.518660   -0.569600
     69          1           0      -13.240482    5.260605    0.529983
     70          1           0      -14.639232    5.116784   -1.337202
     71          1           0      -15.044421    3.531939   -0.701328
     72          1           0      -13.808007    3.768044   -2.011520
     73          1           0      -13.337793   -0.955998   -4.470064
     74          1           0      -13.299593    0.793099   -4.055067
     75          1           0      -14.129259   -0.347823   -3.034734
     76          1           0       -9.014344   -3.817183   -3.240796
     77          1           0       -7.314854   -1.741250   -6.830433
     78          1           0       -6.336178   -3.258017   -6.786585
     79          1           0       -5.969313   -1.874861   -5.744911
     80         12           0        9.524652    0.786685   -0.067382
     81          6           0        8.598688   -2.410407    1.012357
     82          6           0        6.241120    1.532140   -0.653320
     83          6           0       10.504577    3.655222   -1.391179
     84          6           0       12.928759   -0.193360    0.410104
     85          7           0        7.641241   -0.365875    0.122744
     86          6           0        7.450026   -1.626254    0.643873
     87          6           0        5.974747   -1.880622    0.892480
     88          6           0        5.273259   -0.717273    0.085999
     89          6           0        6.491477    0.254816   -0.074428
     90          6           0        4.705295   -1.160642   -1.256224
     91          6           0        5.708100   -2.031040    2.434605
     92          6           0        4.198171   -2.080910    2.798402
     93          1           0        3.267471   -2.670415    1.759064
     94          7           0        8.543574    2.326338   -0.862022
     95          6           0        7.184051    2.431187   -1.127599
     96          6           0        6.857644    3.694820   -1.811615
     97          6           0        8.129423    4.323222   -1.982997
     98          6           0        9.122861    3.420166   -1.407909
     99          6           0        5.471035    4.110639   -2.132763
    100          6           0        8.380372    5.652782   -2.646520
    101          8           0        9.535211    6.157668   -2.715370
    102          6           0        7.247659    6.481189   -3.189455
    103          7           0       11.468721    1.636942   -0.385605
    104          6           0       11.546907    2.841430   -0.951842
    105          6           0       13.066550    3.223699   -1.232345
    106          6           0       13.876249    1.925733   -0.671437
    107          6           0       12.704085    1.063419   -0.201150
    108          6           0       13.239589    3.490469   -2.783727
    109          6           0       14.840386    2.231072    0.553454
    110          6           0       16.271473    2.716883    0.184370
    111          7           0       10.591249   -0.906127    0.495904
    112          6           0       11.963560   -1.151580    0.765624
    113          6           0       12.128114   -2.560491    1.334091
    114          6           0       10.855028   -3.119526    1.381386
    115          6           0        9.945666   -2.034103    0.933293
    116          6           0       13.387501   -3.218654    1.803850
    117          6           0       10.061789   -4.264884    1.761664
    118          8           0       10.368237   -5.369660    2.220962
    119          6           0        8.525560   -3.789951    1.710859
    120          6           0        7.631099   -4.777722    0.997366
    121          8           0        7.452754   -4.787676   -0.190645
    122          8           0        6.857771   -5.521637    1.917015
    123          6           0        5.647131   -6.179052    1.402350
    124          1           0        5.165164    1.598097   -0.829809
    125          1           0       10.822539    4.597074   -1.843484
    126          1           0       13.942221   -0.594077    0.480615
    127          1           0        5.730807   -2.844863    0.448389
    128          1           0        4.500959   -0.168873    0.626329
    129          1           0        3.647958   -0.897757   -1.227890
    130          1           0        4.937267   -2.216117   -1.396700
    131          1           0        5.039919   -0.535222   -2.083514
    132          1           0        6.384811   -1.279925    2.840832
    133          1           0        6.167553   -2.979075    2.712285
    134          1           0        3.960059   -1.035871    2.996838
    135          1           0        4.090899   -2.673662    3.706716
    136          1           0        5.480156    4.127418   -3.222460
    137          1           0        5.189544    5.059545   -1.676989
    138          1           0        4.640507    3.450630   -1.879083
    139          1           0        6.601077    6.778386   -2.364940
    140          1           0        6.837575    5.749582   -3.886762
    141          1           0        7.524298    7.352210   -3.782857
    142          1           0       13.164211    4.091277   -0.578595
    143          1           0       14.308521    1.245340   -1.406362
    144          1           0       12.333042    3.347013   -3.371434
    145          1           0       13.989438    2.813427   -3.193803
    146          1           0       13.477099    4.550368   -2.869936
    147          1           0       14.817121    1.442669    1.305229
    148          1           0       14.387532    3.071620    1.078288
    149          1           0       16.420233    3.666073    0.697946
    150          1           0       16.352058    2.759837   -0.901876
    151          1           0       17.040927    2.031764    0.541048
    152          1           0       13.327118   -3.243751    2.892104
    153          1           0       14.257595   -2.659953    1.456927
    154          1           0       13.556835   -4.256392    1.517333
    155          1           0        8.220540   -3.653320    2.747949
    156          1           0        6.011444   -7.072487    0.895948
    157          1           0        5.046707   -5.481474    0.818067
    158          1           0        5.040165   -6.419128    2.274898
 ---------------------------------------------------------------------

 SCF Done:  E(RPBE1PBE) =  -4067.38668383     A.U. after   17 cycles

 Excitation energies and oscillator strengths:

 Excited State   1:      Singlet-A      1.6788 eV  738.54 nm  f=0.0000  <S**2>=0.000
     312 -> 313        0.70707
 This state for optimization and/or second-order correction.
 Total Energy, E(TD-HF/TD-DFT) =  -4067.32499032
 Copying the excited state density for this state as the 1-particle RhoCI density.

 Excited State   2:      Singlet-A      1.8622 eV  665.79 nm  f=0.3775  <S**2>=0.000
     310 -> 316        0.19129
     312 -> 314        0.68807
     312 <- 314       -0.10009

 Excited State   3:      Singlet-A      1.8850 eV  657.75 nm  f=0.3548  <S**2>=0.000
     309 -> 315       -0.14495
     311 -> 313        0.69232

 Excited State   4:      Singlet-A      2.1694 eV  571.52 nm  f=0.0000  <S**2>=0.000
     311 -> 314        0.70708

 Excited State   5:      Singlet-A      2.2299 eV  556.01 nm  f=0.1189  <S**2>=0.000
     309 -> 313        0.65839
     311 -> 315        0.22030
     311 -> 318        0.11527

 The electronic state is 1-A.
 Alpha  occ. eigenvalues --  -46.92961 -46.91475 -19.25486 -19.24637 -19.20463
 Alpha  occ. eigenvalues --  -19.20444 -19.20245 -19.19399 -19.18629 -19.18561
 Alpha  occ. eigenvalues --  -14.41884 -14.41759 -14.41581 -14.41116 -14.40148
 Alpha  occ. eigenvalues --  -14.39629 -14.39495 -14.38580 -10.36468 -10.36408
 Alpha  occ. eigenvalues --  -10.33999 -10.32671 -10.32304 -10.31099 -10.30387
 Alpha  occ. eigenvalues --  -10.29842 -10.29186 -10.28984 -10.28750 -10.28699
 Alpha  occ. eigenvalues --  -10.28637 -10.28565 -10.28432 -10.28292 -10.28062
 Alpha  occ. eigenvalues --  -10.28052 -10.28020 -10.27890 -10.27730 -10.27267
 Alpha  occ. eigenvalues --  -10.27150 -10.27039 -10.27002 -10.26833 -10.26740
 Alpha  occ. eigenvalues --  -10.26536 -10.26317 -10.26195 -10.26165 -10.26161
 Alpha  occ. eigenvalues --  -10.26150 -10.26089 -10.26038 -10.25929 -10.25694
 Alpha  occ. eigenvalues --  -10.25593 -10.25582 -10.25496 -10.25489 -10.25424
 Alpha  occ. eigenvalues --  -10.25299 -10.25206 -10.24916 -10.24775 -10.24718
 Alpha  occ. eigenvalues --  -10.24713 -10.24703 -10.24698 -10.24675 -10.24612
 Alpha  occ. eigenvalues --  -10.24449 -10.24422 -10.24329 -10.24113 -10.24035
 Alpha  occ. eigenvalues --  -10.23838 -10.23747 -10.23658 -10.23609 -10.23469
 Alpha  occ. eigenvalues --  -10.23257 -10.23223 -10.23056 -10.22865 -10.22827
 Alpha  occ. eigenvalues --  -10.21602  -3.14982  -3.13733  -1.87806  -1.87360
 Alpha  occ. eigenvalues --   -1.87209  -1.86581  -1.86094  -1.85988  -1.10535
 Alpha  occ. eigenvalues --   -1.10191  -1.05190  -1.03837  -1.03653  -1.03059
 Alpha  occ. eigenvalues --   -1.02600  -1.02422  -0.99337  -0.98907  -0.98540
 Alpha  occ. eigenvalues --   -0.98079  -0.98064  -0.97427  -0.97379  -0.96056
 Alpha  occ. eigenvalues --   -0.86398  -0.85938  -0.83618  -0.83136  -0.82953
 Alpha  occ. eigenvalues --   -0.82822  -0.82341  -0.82078  -0.81847  -0.81542
 Alpha  occ. eigenvalues --   -0.81027  -0.80745  -0.80642  -0.80526  -0.78811
 Alpha  occ. eigenvalues --   -0.78493  -0.78089  -0.77406  -0.77222  -0.76524
 Alpha  occ. eigenvalues --   -0.76304  -0.76152  -0.75356  -0.75038  -0.74766
 Alpha  occ. eigenvalues --   -0.74321  -0.73183  -0.72139  -0.71747  -0.71509
 Alpha  occ. eigenvalues --   -0.71268  -0.71116  -0.70074  -0.69916  -0.69647
 Alpha  occ. eigenvalues --   -0.68890  -0.67104  -0.66510  -0.66281  -0.65893
 Alpha  occ. eigenvalues --   -0.64231  -0.63704  -0.63653  -0.62963  -0.62760
 Alpha  occ. eigenvalues --   -0.62661  -0.61789  -0.61465  -0.60210  -0.60060
 Alpha  occ. eigenvalues --   -0.59915  -0.59635  -0.59386  -0.58876  -0.58454
 Alpha  occ. eigenvalues --   -0.58275  -0.56562  -0.55846  -0.55165  -0.54521
 Alpha  occ. eigenvalues --   -0.54314  -0.54051  -0.53742  -0.53246  -0.53154
 Alpha  occ. eigenvalues --   -0.52693  -0.52232  -0.52185  -0.52174  -0.51337
 Alpha  occ. eigenvalues --   -0.51000  -0.50729  -0.50308  -0.50294  -0.49860
 Alpha  occ. eigenvalues --   -0.49139  -0.48875  -0.48733  -0.48513  -0.48463
 Alpha  occ. eigenvalues --   -0.48263  -0.48192  -0.47945  -0.47935  -0.47840
 Alpha  occ. eigenvalues --   -0.47373  -0.47125  -0.46768  -0.46766  -0.46489
 Alpha  occ. eigenvalues --   -0.46343  -0.46331  -0.45959  -0.45865  -0.45727
 Alpha  occ. eigenvalues --   -0.45644  -0.45387  -0.45320  -0.45026  -0.44926
 Alpha  occ. eigenvalues --   -0.44713  -0.44563  -0.44442  -0.44148  -0.44080
 Alpha  occ. eigenvalues --   -0.44028  -0.43909  -0.43874  -0.43621  -0.43539
 Alpha  occ. eigenvalues --   -0.43500  -0.43430  -0.43149  -0.43008  -0.42769
 Alpha  occ. eigenvalues --   -0.42680  -0.42403  -0.42197  -0.41994  -0.41776
 Alpha  occ. eigenvalues --   -0.41513  -0.41430  -0.41213  -0.40983  -0.40910
 Alpha  occ. eigenvalues --   -0.40777  -0.40753  -0.40449  -0.40306  -0.40235
 Alpha  occ. eigenvalues --   -0.40189  -0.40096  -0.39962  -0.39853  -0.39746
 Alpha  occ. eigenvalues --   -0.39638  -0.39624  -0.39418  -0.39043  -0.38976
 Alpha  occ. eigenvalues --   -0.38963  -0.38799  -0.38680  -0.38400  -0.38292
 Alpha  occ. eigenvalues --   -0.38025  -0.37968  -0.37811  -0.37715  -0.37669
 Alpha  occ. eigenvalues --   -0.37549  -0.37465  -0.37339  -0.37247  -0.37154
 Alpha  occ. eigenvalues --   -0.37024  -0.37015  -0.36639  -0.36263  -0.36060
 Alpha  occ. eigenvalues --   -0.36013  -0.35736  -0.35511  -0.35261  -0.35256
 Alpha  occ. eigenvalues --   -0.35068  -0.35055  -0.34337  -0.34144  -0.34125
 Alpha  occ. eigenvalues --   -0.34037  -0.33468  -0.33226  -0.33203  -0.32981
 Alpha  occ. eigenvalues --   -0.32618  -0.31737  -0.31712  -0.31583  -0.31194
 Alpha  occ. eigenvalues --   -0.30920  -0.30655  -0.29827  -0.29430  -0.29371
 Alpha  occ. eigenvalues --   -0.29356  -0.28866  -0.28676  -0.27390  -0.26938
 Alpha  occ. eigenvalues --   -0.26817  -0.26562  -0.26368  -0.25744  -0.25579
 Alpha  occ. eigenvalues --   -0.25465  -0.25165  -0.25090  -0.21035  -0.20868
 Alpha  occ. eigenvalues --   -0.19110  -0.18140
 Alpha virt. eigenvalues --   -0.11261  -0.10457  -0.05636  -0.05520  -0.04386
 Alpha virt. eigenvalues --   -0.04084  -0.02676  -0.02170  -0.01085  -0.00189
 Alpha virt. eigenvalues --    0.00623   0.00705   0.01085   0.01092   0.01738

 Mulliken charges:
               1
     1  Mg  12.000000
     2  C    6.000000
     3  C    6.000000
     4  C    6.000000
     5  C    6.000000
     6  N    7.000000
     7  C    6.000000
     8  C    6.000000
     9  C    6.000000
    10  C    6.000000
    11  C    6.000000
    12  C    6.000000
    13  C    6.000000
    14  H    1.000000
    15  N    7.000000
    16  C    6.000000
    17  C    6.000000
    18  C    6.000000
    19  C    6.000000
    20  C    6.000000
    21  C    6.000000
    22  O    8.000000
    23  C    6.000000
    24  N    7.000000
    25  C    6.000000
    26  C    6.000000
    27  C    6.000000
    28  C    6.000000
    29  C    6.000000
    30  C    6.000000
    31  C    6.000000
    32  N    7.000000
    33  C    6.000000
    34  C    6.000000
    35  C    6.000000
    36  C    6.000000
    37  C    6.000000
    38  C    6.000000
    39  O    8.000000
    40  C    6.000000
    41  C    6.000000
    42  O    8.000000
    43  O    8.000000
    44  C    6.000000
    45  H    1.000000
    46  H    1.000000
    47  H    1.000000
    48  H    1.000000
    49  H    1.000000
    50  H    1.000000
    51  H    1.000000
    52  H    1.000000
    53  H    1.000000
    54  H    1.000000
    55  H    1.000000
    56  H    1.000000
    57  H    1.000000
    58  H    1.000000
    59  H    1.000000
    60  H    1.000000
    61  H    1.000000
    62  H    1.000000
    63  H    1.000000
    64  H    1.000000
    65  H    1.000000
    66  H    1.000000
    67  H    1.000000
    68  H    1.000000
    69  H    1.000000
    70  H    1.000000
    71  H    1.000000
    72  H    1.000000
    73  H    1.000000
    74  H    1.000000
    75  H    1.000000
    76  H    1.000000
    77  H    1.000000
    78  H    1.000000
    79  H    1.000000
    80  Mg  12.000000
    81  C    6.000000
    82  C    6.000000
    83  C    6.000000
    84  C    6.000000
    85  N    7.000000
    86  C    6.000000
    87  C    6.000000
    88  C    6.000000
    89  C    6.000000
    90  C    6.000000
    91  C    6.000000
    92  C    6.000000
    93  H    1.000000
    94  N    7.000000
    95  C    6.000000
    96  C    6.000000
    97  C    6.000000
    98  C    6.000000
    99  C    6.000000
   100  C    6.000000
   101  O    8.000000
   102  C    6.000000
   103  N    7.000000
   104  C    6.000000
   105  C    6.000000
   106  C    6.000000
   107  C    6.000000
   108  C    6.000000
   109  C    6.000000
   110  C    6.000000
   111  N    7.000000
   112  C    6.000000
   113  C    6.000000
   114  C    6.000000
   115  C    6.000000
   116  C    6.000000
   117  C    6.000000
   118  O    8.000000
   119  C    6.000000
   120  C    6.000000
   121  O    8.000000
   122  O    8.000000
   123  C    6.000000
   124  H    1.000000
   125  H    1.000000
   126  H    1.000000
   127  H    1.000000
   128  H    1.000000
   129  H    1.000000
   130  H    1.000000
   131  H    1.000000
   132  H    1.000000
   133  H    1.000000
   134  H    1.000000
   135  H    1.000000
   136  H    1.000000
   137  H    1.000000
   138  H    1.000000
   139  H    1.000000
   140  H    1.000000
   141  H    1.000000
   142  H    1.000000
   143  H    1.000000
   144  H    1.000000
   145  H    1.000000
   146  H    1.000000
   147  H    1.000000
   148  H    1.000000
   149  H    1.000000
   150  H    1.000000
   151  H    1.000000
   152  H    1.000000
   153  H    1.000000
   154  H    1.000000
   155  H    1.000000
   156  H    1.000000
   157  H    1.000000
   158  H    1.000000
 Sum of Mulliken charges = 624.00000

 Dipole moment (field-independent basis, Debye):
    X=             -0.0000    Y=              0.0000    Z=              0.0000  Tot=              0.0000
 Quadrupole moment (field-independent basis, Debye-Ang):
   XX=             -0.0000   YY=              0.0000   ZZ=              0.0000
   XY=              0.0000   XZ=             -0.0000   YZ=              0.0000

 Normal termination of Gaussian 16 at Thu Oct 14 17:30:42 2021.
