 Gaussian 16, Revision A.03,
 Gaussian 16:  ES64L-G16RevA.03 25-Dec-2016

 --------------------------------------------------------
 #p PBE1PBE/Def2SVP td=(nstates=5) density=(transition=1)
 --------------------------------------------------------

 --------------------------------
 TDDFT excited states in gaussian
 --------------------------------
 Symbolic Z-matrix:
 Charge =  0 Multiplicity = 1

                         Standard orientation:
 ---------------------------------------------------------------------
 Center     Atomic      Atomic             Coordinates (Angstroms)
 Number     Number       Type             X           Y           Z
 ---------------------------------------------------------------------
      1         12           0       -4.176812   -0.485327    1.054609
      2          6           0       -5.486410    2.296036   -0.616803
      3          6           0       -2.138589    1.573051    2.868261
      4          6           0       -2.749968   -3.178402    2.340166
      5          6           0       -6.223078   -2.531227   -1.043846
      6          7           0       -3.836481    1.704629    1.061351
      7          6           0       -4.508393    2.684215    0.364472
      8          6           0       -4.180073    4.055695    0.925012
      9          6           0       -2.912020    3.776877    1.825112
     10          6           0       -3.046826    2.224109    1.984755
     11          6           0       -1.597151    4.179832    1.169773
     12          6           0       -5.465293    4.695823    1.565577
     13          6           0       -5.177131    6.005024    2.351501
     14          1           0       -4.014047    6.846205    1.868184
     15          7           0       -2.717454   -0.751756    2.382685
     16          6           0       -1.900316    0.210452    2.962570
     17          6           0       -0.871271   -0.395833    3.825514
     18          6           0       -1.097745   -1.799564    3.684336
     19          6           0       -2.221628   -1.951251    2.763992
     20          6           0        0.077779    0.399960    4.640833
     21          6           0       -0.308831   -2.897381    4.350202
     22          8           0       -0.606182   -4.115610    4.205965
     23          6           0        0.826704   -2.585696    5.286947
     24          7           0       -4.498864   -2.581327    0.728001
     25          6           0       -3.753617   -3.449565    1.412326
     26          6           0       -4.042520   -4.935617    0.920077
     27          6           0       -5.169528   -4.721463   -0.237048
     28          6           0       -5.301596   -3.198302   -0.201535
     29          6           0       -2.683814   -5.569100    0.409671
     30          6           0       -6.575583   -5.387476    0.083241
     31          6           0       -6.726071   -6.881324   -0.324212
     32          7           0       -5.502619   -0.251892   -0.529146
     33          6           0       -6.361117   -1.143957   -1.224440
     34          6           0       -7.255265   -0.352731   -2.178234
     35          6           0       -6.902805    0.985253   -2.033056
     36          6           0       -5.883390    0.995422   -0.952983
     37          6           0       -8.339029   -0.877503   -3.067041
     38          6           0       -7.176538    2.347021   -2.428454
     39          8           0       -7.962526    2.829457   -3.249960
     40          6           0       -6.390788    3.288532   -1.387158
     41          6           0       -5.621894    4.398305   -2.066888
     42          8           0       -4.503125    4.281220   -2.488697
     43          8           0       -6.286862    5.637659   -1.928973
     44          6           0       -5.487146    6.856465   -2.123111
     45          1           0       -1.525533    2.351676    3.327703
     46          1           0       -2.264358   -4.063564    2.756622
     47          1           0       -6.794241   -3.094768   -1.784687
     48          1           0       -3.910690    4.695130    0.085345
     49          1           0       -2.944616    4.201338    2.829062
     50          1           0       -1.126944    4.878067    1.862049
     51          1           0       -1.812181    4.560117    0.171415
     52          1           0       -0.860696    3.376614    1.172244
     53          1           0       -5.928321    3.824333    2.027357
     54          1           0       -6.117808    4.927729    0.724497
     55          1           0       -5.013104    5.648415    3.368411
     56          1           0       -6.070939    6.627139    2.307049
     57          1           0        1.038968    0.140671    4.197335
     58          1           0        0.010485    0.189387    5.707847
     59          1           0        0.043038    1.489157    4.594103
     60          1           0        0.433828   -2.056066    6.153757
     61          1           0        1.441380   -2.001925    4.600625
     62          1           0        1.437391   -3.429433    5.607107
     63          1           0       -4.459006   -5.357546    1.835572
     64          1           0       -4.856030   -4.844469   -1.274592
     65          1           0       -1.826033   -4.898421    0.456668
     66          1           0       -2.786558   -5.874091   -0.632080
     67          1           0       -2.460777   -6.375476    1.107697
     68          1           0       -7.411008   -4.756509   -0.218804
     69          1           0       -6.658369   -5.385301    1.169607
     70          1           0       -7.021095   -7.421145    0.574900
     71          1           0       -5.791254   -7.211420   -0.777448
     72          1           0       -7.514980   -7.026657   -1.062567
     73          1           0       -9.279799   -0.573097   -2.607842
     74          1           0       -8.261693   -1.961704   -3.156999
     75          1           0       -8.395422   -0.489959   -4.084045
     76          1           0       -7.148571    3.684670   -0.711806
     77          1           0       -5.396435    6.958622   -3.204189
     78          1           0       -4.564090    6.809758   -1.544928
     79          1           0       -6.062662    7.668645   -1.679795
     80         12           0        3.762352   -0.779268   -0.785558
     81          6           0        5.757763    2.013003   -0.053011
     82          6           0        0.991527    0.913870   -0.025739
     83          6           0        2.098494   -3.479668   -1.428240
     84          6           0        6.819972   -2.700142   -0.562235
     85          7           0        3.478326    1.213026   -0.015898
     86          6           0        4.348960    2.227904    0.053606
     87          6           0        3.707134    3.486565    0.577693
     88          6           0        2.258363    2.989764    0.971411
     89          6           0        2.217350    1.646692    0.268508
     90          6           0        1.890116    2.893460    2.487548
     91          6           0        3.606789    4.597888   -0.587778
     92          6           0        4.102279    6.012815   -0.142561
     93          1           0        4.278211    7.010366   -1.411549
     94          7           0        1.860876   -1.137781   -0.972765
     95          6           0        0.811660   -0.293639   -0.651313
     96          6           0       -0.404960   -0.866039   -1.158515
     97          6           0       -0.148976   -2.213622   -1.643404
     98          6           0        1.351018   -2.321251   -1.476718
     99          6           0       -1.739994   -0.092809   -0.958168
    100          6           0       -0.988285   -3.340623   -2.234458
    101          8           0       -0.563225   -4.419900   -2.684733
    102          6           0       -2.428808   -2.984224   -2.340259
    103          7           0        4.422345   -2.778380   -0.797405
    104          6           0        3.445113   -3.693993   -1.100575
    105          6           0        3.991158   -5.120528   -1.029824
    106          6           0        5.520356   -4.863452   -1.073038
    107          6           0        5.625132   -3.375781   -0.731625
    108          6           0        3.382659   -5.870778    0.220775
    109          6           0        6.249348   -5.218072   -2.438096
    110          6           0        7.753475   -5.524836   -2.360006
    111          7           0        5.883554   -0.456937   -0.429401
    112          6           0        6.934550   -1.321862   -0.381305
    113          6           0        8.188277   -0.614399   -0.247277
    114          6           0        7.742515    0.718721   -0.188048
    115          6           0        6.341947    0.765719   -0.237145
    116          6           0        9.653307   -1.103741   -0.180801
    117          6           0        8.216702    2.071320   -0.095347
    118          8           0        9.306146    2.574012   -0.184797
    119          6           0        6.893139    2.960734    0.166901
    120          6           0        7.145404    4.093965   -0.727093
    121          8           0        6.935358    4.189690   -1.962717
    122          8           0        7.680730    5.043242    0.059771
    123          6           0        8.085492    6.307333   -0.556910
    124          1           0        0.075397    1.486868    0.132773
    125          1           0        1.550621   -4.378647   -1.718969
    126          1           0        7.719478   -3.318146   -0.599866
    127          1           0        4.232886    3.966824    1.403409
    128          1           0        1.427084    3.540847    0.531252
    129          1           0        1.803213    1.836726    2.740199
    130          1           0        0.918126    3.379033    2.572688
    131          1           0        2.577168    3.315304    3.220270
    132          1           0        2.629483    4.706050   -1.059659
    133          1           0        4.168881    4.199945   -1.432716
    134          1           0        5.062406    5.938711    0.367673
    135          1           0        3.414334    6.565660    0.496670
    136          1           0       -1.887344    0.549500   -1.825307
    137          1           0       -1.685071    0.685859   -0.196413
    138          1           0       -2.596054   -0.664970   -0.601308
    139          1           0       -2.639293   -2.128536   -2.980841
    140          1           0       -2.699752   -2.831686   -1.294835
    141          1           0       -3.059066   -3.804509   -2.684943
    142          1           0        3.627523   -5.609920   -1.933450
    143          1           0        6.009719   -5.489194   -0.326722
    144          1           0        4.139553   -5.984817    0.996692
    145          1           0        2.987654   -6.877379    0.086026
    146          1           0        2.603831   -5.347119    0.775523
    147          1           0        6.201850   -4.275399   -2.983944
    148          1           0        5.820565   -6.013576   -3.047918
    149          1           0        8.353410   -4.772455   -2.873609
    150          1           0        8.121998   -6.478557   -2.738327
    151          1           0        8.017820   -5.393439   -1.311678
    152          1           0        9.604667   -2.128488    0.187481
    153          1           0       10.247110   -0.476607    0.485498
    154          1           0       10.023766   -1.096563   -1.205837
    155          1           0        6.898950    3.330501    1.192402
    156          1           0        7.408111    7.089856   -0.215432
    157          1           0        8.199118    6.221951   -1.637080
    158          1           0        9.050825    6.593956   -0.139866
 ---------------------------------------------------------------------

 SCF Done:  E(RPBE1PBE) =  -4067.38188365     A.U. after   17 cycles

 Excitation energies and oscillator strengths:

 Excited State   1:      Singlet-A      1.6519 eV  750.56 nm  f=0.0022  <S**2>=0.000
     312 -> 313       -0.46491
     312 -> 314        0.53150
 This state for optimization and/or second-order correction.
 Total Energy, E(TD-HF/TD-DFT) =  -4067.32117790
 Copying the excited state density for this state as the 1-particle RhoCI density.

 Excited State   2:      Singlet-A      1.6815 eV  737.34 nm  f=0.0005  <S**2>=0.000
     311 -> 313        0.56788
     311 -> 314        0.42033

 Excited State   3:      Singlet-A      1.8505 eV  670.01 nm  f=0.4755  <S**2>=0.000
     309 -> 315        0.18082
     311 -> 314       -0.11654
     312 -> 313        0.50584
     312 -> 314        0.44439

 Excited State   4:      Singlet-A      1.8664 eV  664.28 nm  f=0.2865  <S**2>=0.000
     310 -> 316        0.18136
     311 -> 313       -0.39944
     311 -> 314        0.54170
     312 -> 313        0.10926

 Excited State   5:      Singlet-A      2.2405 eV  553.37 nm  f=0.0355  <S**2>=0.000
     309 -> 313        0.10940
     310 -> 313       -0.43732
     310 -> 314        0.44414
     311 -> 316       -0.28502

 The electronic state is 1-A.
 Alpha  occ. eigenvalues --  -46.92043 -46.91011 -19.25579 -19.25110 -19.21005
 Alpha  occ. eigenvalues --  -19.19914 -19.19803 -19.19329 -19.18957 -19.18734
 Alpha  occ. eigenvalues --  -14.42254 -14.42127 -14.41710 -14.41284 -14.40210
 Alpha  occ. eigenvalues --  -14.39984 -14.39118 -14.38125 -10.36938 -10.35609
 Alpha  occ. eigenvalues --  -10.33189 -10.32965 -10.32696 -10.31882 -10.29506
 Alpha  occ. eigenvalues --  -10.29387 -10.29381 -10.29106 -10.29034 -10.29003
 Alpha  occ. eigenvalues --  -10.28785 -10.28588 -10.28478 -10.28408 -10.28328
 Alpha  occ. eigenvalues --  -10.28294 -10.28212 -10.28065 -10.27859 -10.27732
 Alpha  occ. eigenvalues --  -10.27648 -10.27603 -10.27381 -10.27246 -10.27073
 Alpha  occ. eigenvalues --  -10.27038 -10.26739 -10.26702 -10.26546 -10.26448
 Alpha  occ. eigenvalues --  -10.26448 -10.26434 -10.26343 -10.26278 -10.26196
 Alpha  occ. eigenvalues --  -10.25683 -10.25680 -10.25608 -10.25562 -10.25548
 Alpha  occ. eigenvalues --  -10.25473 -10.25341 -10.25331 -10.25193 -10.25169
 Alpha  occ. eigenvalues --  -10.25128 -10.24992 -10.24878 -10.24598 -10.24532
 Alpha  occ. eigenvalues --  -10.24449 -10.24394 -10.24302 -10.24155 -10.24087
 Alpha  occ. eigenvalues --  -10.24067 -10.23948 -10.23943 -10.23480 -10.23387
 Alpha  occ. eigenvalues --  -10.23207 -10.23058 -10.23005 -10.22991 -10.22807
 Alpha  occ. eigenvalues --  -10.22260  -3.14340  -3.13426  -1.87204  -1.86694
 Alpha  occ. eigenvalues --   -1.86586  -1.86253  -1.85813  -1.85664  -1.10769
 Alpha  occ. eigenvalues --   -1.10702  -1.05605  -1.04344  -1.03994  -1.03098
 Alpha  occ. eigenvalues --   -1.02807  -1.00367  -0.99904  -0.99589  -0.99025
 Alpha  occ. eigenvalues --   -0.98662  -0.98273  -0.97976  -0.97027  -0.96641
 Alpha  occ. eigenvalues --   -0.87147  -0.86518  -0.83701  -0.83518  -0.83429
 Alpha  occ. eigenvalues --   -0.82749  -0.82510  -0.82442  -0.82310  -0.81815
 Alpha  occ. eigenvalues --   -0.81500  -0.81172  -0.81135  -0.80622  -0.79146
 Alpha  occ. eigenvalues --   -0.78895  -0.78136  -0.77688  -0.76804  -0.76681
 Alpha  occ. eigenvalues --   -0.76529  -0.76397  -0.75674  -0.75520  -0.74835
 Alpha  occ. eigenvalues --   -0.74650  -0.73674  -0.72515  -0.72207  -0.71823
 Alpha  occ. eigenvalues --   -0.71638  -0.71334  -0.70687  -0.70405  -0.69762
 Alpha  occ. eigenvalues --   -0.69325  -0.67282  -0.67055  -0.66669  -0.66483
 Alpha  occ. eigenvalues --   -0.64346  -0.63656  -0.63329  -0.63208  -0.63192
 Alpha  occ. eigenvalues --   -0.62385  -0.61952  -0.61638  -0.60612  -0.60285
 Alpha  occ. eigenvalues --   -0.60234  -0.59981  -0.59475  -0.59042  -0.59028
 Alpha  occ. eigenvalues --   -0.58893  -0.56398  -0.56350  -0.55654  -0.54909
 Alpha  occ. eigenvalues --   -0.54633  -0.54474  -0.53848  -0.53764  -0.53318
 Alpha  occ. eigenvalues --   -0.52787  -0.52699  -0.52639  -0.51798  -0.51620
 Alpha  occ. eigenvalues --   -0.51268  -0.50997  -0.50820  -0.50429  -0.50104
 Alpha  occ. eigenvalues --   -0.49683  -0.49449  -0.48984  -0.48944  -0.48513
 Alpha  occ. eigenvalues --   -0.48469  -0.48319  -0.48123  -0.47900  -0.47609
 Alpha  occ. eigenvalues --   -0.47536  -0.47309  -0.47301  -0.47063  -0.46781
 Alpha  occ. eigenvalues --   -0.46693  -0.46433  -0.46259  -0.46146  -0.45977
 Alpha  occ. eigenvalues --   -0.45787  -0.45626  -0.45517  -0.45447  -0.45160
 Alpha  occ. eigenvalues --   -0.45035  -0.44843  -0.44655  -0.44633  -0.44490
 Alpha  occ. eigenvalues --   -0.44349  -0.44140  -0.44006  -0.43840  -0.43741
 Alpha  occ. eigenvalues --   -0.43618  -0.43612  -0.43331  -0.43248  -0.43092
 Alpha  occ. eigenvalues --   -0.42881  -0.42798  -0.42413  -0.42150  -0.42027
 Alpha  occ. eigenvalues --   -0.41891  -0.41617  -0.41485  -0.41421  -0.41310
 Alpha  occ. eigenvalues --   -0.41126  -0.40913  -0.40856  -0.40549  -0.40484
 Alpha  occ. eigenvalues --   -0.40396  -0.40331  -0.40174  -0.40004  -0.39930
 Alpha  occ. eigenvalues --   -0.39886  -0.39734  -0.39482  -0.39278  -0.38939
 Alpha  occ. eigenvalues --   -0.38825  -0.38691  -0.38596  -0.38430  -0.38401
 Alpha  occ. eigenvalues --   -0.38216  -0.38139  -0.38032  -0.37979  -0.37829
 Alpha  occ. eigenvalues --   -0.37733  -0.37583  -0.37445  -0.37397  -0.37131
 Alpha  occ. eigenvalues --   -0.36916  -0.36701  -0.36558  -0.36476  -0.36284
 Alpha  occ. eigenvalues --   -0.36188  -0.36077  -0.35779  -0.35733  -0.35520
 Alpha  occ. eigenvalues --   -0.35490  -0.35226  -0.34757  -0.34545  -0.34403
 Alpha  occ. eigenvalues --   -0.34042  -0.33655  -0.33523  -0.33466  -0.32824
 Alpha  occ. eigenvalues --   -0.32473  -0.32291  -0.32051  -0.31743  -0.31496
 Alpha  occ. eigenvalues --   -0.30546  -0.30448  -0.29916  -0.29905  -0.29467
 Alpha  occ. eigenvalues --   -0.29248  -0.29199  -0.27910  -0.27348  -0.27003
 Alpha  occ. eigenvalues --   -0.26802  -0.26348  -0.26297  -0.26124  -0.25950
 Alpha  occ. eigenvalues --   -0.25601  -0.25552  -0.25241  -0.21426  -0.21115
 Alpha  occ. eigenvalues --   -0.18807  -0.18728
 Alpha virt. eigenvalues --   -0.11055  -0.10985  -0.06150  -0.05754  -0.04906
 Alpha virt. eigenvalues --   -0.04475  -0.02691  -0.01977  -0.00724   0.00057
 Alpha virt. eigenvalues --    0.00142   0.00612   0.00752   0.00813   0.01124

 Mulliken charges:
               1
     1  Mg  11.999979
     2  C    6.001118
     3  C    5.998970
     4  C    5.998938
     5  C    5.999231
     6  N    7.000615
     7  C    5.997076
     8  C    6.000576
     9  C    5.999484
    10  C    6.001523
    11  C    6.000618
    12  C    6.000162
    13  C    6.000063
    14  H    0.999581
    15  N    6.999717
    16  C    6.000862
    17  C    6.001301
    18  C    6.000141
    19  C    6.001561
    20  C    5.999836
    21  C    6.000013
    22  O    8.000582
    23  C    6.000002
    24  N    6.999765
    25  C    6.000245
    26  C    5.999957
    27  C    6.000233
    28  C    5.999776
    29  C    6.000323
    30  C    6.000525
    31  C    5.999910
    32  N    6.999934
    33  C    5.997953
    34  C    5.998181
    35  C    5.999530
    36  C    5.999071
    37  C    6.000279
    38  C    5.998909
    39  O    7.998173
    40  C    5.999925
    41  C    5.999873
    42  O    7.999448
    43  O    7.999942
    44  C    6.000142
    45  H    1.000430
    46  H    0.999977
    47  H    0.999079
    48  H    0.999665
    49  H    0.999954
    50  H    0.999942
    51  H    1.000698
    52  H    0.998836
    53  H    0.999848
    54  H    1.000285
    55  H    0.999615
    56  H    0.999954
    57  H    0.999747
    58  H    1.000820
    59  H    1.000524
    60  H    1.000173
    61  H    0.999858
    62  H    1.000197
    63  H    0.999720
    64  H    0.999414
    65  H    0.999343
    66  H    0.999256
    67  H    0.999871
    68  H    1.000296
    69  H    0.999660
    70  H    0.999687
    71  H    0.999673
    72  H    0.999923
    73  H    0.998928
    74  H    0.999038
    75  H    0.998911
    76  H    0.999489
    77  H    0.999790
    78  H    0.999661
    79  H    0.999713
    80  Mg  12.000527
    81  C    5.998745
    82  C    6.000268
    83  C    6.001584
    84  C    6.001358
    85  N    6.998661
    86  C    6.001203
    87  C    5.999717
    88  C    6.000027
    89  C    5.999722
    90  C    6.000039
    91  C    5.999877
    92  C    5.999903
    93  H    1.000253
    94  N    7.000337
    95  C    5.999760
    96  C    6.000120
    97  C    5.999893
    98  C    5.999541
    99  C    6.000151
   100  C    6.001099
   101  O    8.001056
   102  C    5.999813
   103  N    7.001157
   104  C    5.999168
   105  C    6.000038
   106  C    5.999940
   107  C    5.999637
   108  C    5.999836
   109  C    5.999817
   110  C    5.999866
   111  N    6.999751
   112  C    6.000000
   113  C    6.000894
   114  C    5.999625
   115  C    6.000938
   116  C    5.999999
   117  C    6.000337
   118  O    8.000481
   119  C    6.000167
   120  C    6.000023
   121  O    8.000126
   122  O    8.000001
   123  C    5.999929
   124  H    1.000145
   125  H    1.000550
   126  H    1.000702
   127  H    1.000109
   128  H    1.000436
   129  H    0.999704
   130  H    1.000096
   131  H    0.999897
   132  H    1.000356
   133  H    0.999996
   134  H    0.999927
   135  H    1.000155
   136  H    1.000362
   137  H    1.000006
   138  H    1.000749
   139  H    1.000839
   140  H    1.000060
   141  H    1.000693
   142  H    1.000280
   143  H    1.000332
   144  H    1.000176
   145  H    1.000401
   146  H    1.000085
   147  H    1.000061
   148  H    1.000432
   149  H    1.000128
   150  H    1.000386
   151  H    0.999979
   152  H    1.000218
   153  H    1.000460
   154  H    1.000461
   155  H    1.000125
   156  H    1.000150
   157  H    1.000067
   158  H    1.000077
 Sum of Mulliken charges = 624.00000

 Dipole moment (field-independent basis, Debye):
    X=              0.8071    Y=             -0.1599    Z=              0.1648  Tot=              0.8392
 Quadrupole moment (field-independent basis, Debye-Ang):
   XX=             -1.9739   YY=              0.0079   ZZ=              0.1919
   XY=             -0.3581   XZ=             -1.3511   YZ=              0.2893

 Normal termination of Gaussian 16 at Thu Oct 14 18:51:51 2021.
