 Gaussian 16, Revision A.03,
 Gaussian 16:  ES64L-G16RevA.03 25-Dec-2016

 --------------------------------------------------------
 #p PBE1PBE/Def2SVP td=(nstates=5) density=(transition=1)
 --------------------------------------------------------

 --------------------------------
 TDDFT excited states in gaussian
 --------------------------------
 Symbolic Z-matrix:
 Charge =  0 Multiplicity = 1

                         Standard orientation:
 ---------------------------------------------------------------------
 Center     Atomic      Atomic             Coordinates (Angstroms)
 Number     Number       Type             X           Y           Z
 ---------------------------------------------------------------------
      1         12           0       25.312723   -0.286469   -0.603413
      2          6           0       23.978543    1.690789    1.876107
      3          6           0       25.476522   -2.905703    1.714209
      4          6           0       26.712794   -2.267762   -2.950468
      5          6           0       25.472102    2.390789   -2.682869
      6          7           0       25.015645   -0.465360    1.651292
      7          6           0       24.230154    0.440661    2.374751
      8          6           0       23.724628   -0.161292    3.700762
      9          6           0       24.343911   -1.605039    3.618704
     10          6           0       24.955648   -1.733230    2.240179
     11          6           0       25.350753   -1.887392    4.726626
     12          6           0       22.183951   -0.193062    3.999706
     13          6           0       21.645966    0.742974    5.213004
     14          1           0       20.958330   -0.093766    6.296295
     15          7           0       26.083533   -2.229349   -0.605873
     16          6           0       25.932274   -3.183131    0.413619
     17          6           0       26.287763   -4.526610   -0.055074
     18          6           0       26.759270   -4.385327   -1.470053
     19          6           0       26.478588   -2.927857   -1.785396
     20          6           0       26.206850   -5.756974    0.821408
     21          6           0       27.308057   -5.356230   -2.405614
     22          8           0       27.725439   -4.978152   -3.510206
     23          6           0       27.465005   -6.829862   -2.073817
     24          7           0       26.037105    0.064706   -2.440267
     25          6           0       26.468441   -0.937926   -3.328451
     26          6           0       26.723042   -0.452417   -4.812536
     27          6           0       26.323040    1.103031   -4.641933
     28          6           0       25.899514    1.182601   -3.157769
     29          6           0       28.225802   -0.674049   -5.339638
     30          6           0       25.184558    1.521389   -5.634757
     31          6           0       25.252936    2.885702   -6.246262
     32          7           0       24.907092    1.707679   -0.386202
     33          6           0       24.972120    2.699934   -1.368613
     34          6           0       24.387853    3.912404   -0.906483
     35          6           0       23.877957    3.519500    0.386043
     36          6           0       24.303273    2.209642    0.641270
     37          6           0       24.191534    5.210911   -1.569319
     38          6           0       23.253605    4.027054    1.567512
     39          8           0       22.738227    5.102751    1.891335
     40          6           0       23.433881    2.868105    2.649786
     41          6           0       24.297548    3.372031    3.750267
     42          8           0       25.438315    3.190491    3.922888
     43          8           0       23.526826    4.041275    4.698074
     44          6           0       24.083347    4.065049    6.034808
     45          1           0       25.441739   -3.741040    2.416717
     46          1           0       27.097861   -2.816286   -3.812541
     47          1           0       25.382924    3.213572   -3.395228
     48          1           0       24.207560    0.362509    4.524989
     49          1           0       23.592210   -2.376877    3.786289
     50          1           0       26.336692   -2.011153    4.279418
     51          1           0       24.999756   -2.836665    5.129522
     52          1           0       25.360188   -1.176662    5.552718
     53          1           0       21.908230   -1.225649    4.215270
     54          1           0       21.607124    0.146399    3.139280
     55          1           0       20.878119    1.336901    4.716943
     56          1           0       22.464538    1.324316    5.636780
     57          1           0       27.035451   -5.689956    1.527498
     58          1           0       26.332254   -6.631198    0.184428
     59          1           0       25.317660   -5.783982    1.451628
     60          1           0       28.176891   -7.216838   -2.803194
     61          1           0       26.528124   -7.387672   -2.090981
     62          1           0       27.997615   -7.082263   -1.157122
     63          1           0       25.976514   -0.887807   -5.475997
     64          1           0       27.120961    1.810405   -4.869016
     65          1           0       28.510202    0.191600   -5.938224
     66          1           0       28.380604   -1.482083   -6.053597
     67          1           0       28.943907   -0.819148   -4.532317
     68          1           0       24.179228    1.395067   -5.233276
     69          1           0       25.177100    0.914230   -6.539762
     70          1           0       24.405879    3.419771   -5.816019
     71          1           0       25.026190    3.030700   -7.302516
     72          1           0       26.191028    3.367387   -5.968533
     73          1           0       24.129428    5.040774   -2.644519
     74          1           0       25.107452    5.759240   -1.349356
     75          1           0       23.380133    5.738535   -1.067620
     76          1           0       22.465168    2.591519    3.065202
     77          1           0       24.864789    4.821996    5.977186
     78          1           0       24.521651    3.078733    6.186187
     79          1           0       23.338616    4.359907    6.774644
     80         12           0      -25.544704    0.410733    0.073827
     81          6           0      -23.511439   -2.273380    0.649357
     82          6           0      -22.606699    2.414723   -0.047746
     83          6           0      -27.472234    3.008578   -0.886247
     84          6           0      -28.154066   -1.767814   -0.689254
     85          7           0      -23.192090   -0.002310   -0.085650
     86          6           0      -22.666109   -1.151005    0.424800
     87          6           0      -21.165555   -1.057728    0.449032
     88          6           0      -20.860949    0.481263    0.187751
     89          6           0      -22.296553    1.069038    0.009566
     90          6           0      -19.785872    1.092049    1.010351
     91          6           0      -20.289272   -2.074992   -0.424285
     92          6           0      -20.861531   -2.572996   -1.718302
     93          1           0      -19.959536   -2.510762   -2.942975
     94          7           0      -25.123169    2.456795   -0.161534
     95          6           0      -23.912295    3.076790   -0.149463
     96          6           0      -24.023931    4.483428   -0.399525
     97          6           0      -25.491610    4.700119   -0.534694
     98          6           0      -26.103385    3.353317   -0.524958
     99          6           0      -22.969389    5.482657   -0.458325
    100          6           0      -26.254540    6.010427   -0.666544
    101          8           0      -25.677618    7.026983   -0.826160
    102          6           0      -27.748361    6.173882   -0.717551
    103          7           0      -27.449475    0.571232   -0.788720
    104          6           0      -28.057882    1.761170   -0.908040
    105          6           0      -29.504699    1.595321   -1.612458
    106          6           0      -29.808336    0.081565   -1.169961
    107          6           0      -28.395548   -0.393110   -0.926455
    108          6           0      -30.581110    2.589460   -1.167809
    109          6           0      -30.664960   -0.680362   -2.197238
    110          6           0      -31.883172   -1.497384   -1.750841
    111          7           0      -25.774253   -1.621348   -0.116601
    112          6           0      -26.889691   -2.402909   -0.390893
    113          6           0      -26.626813   -3.774000   -0.184516
    114          6           0      -25.323451   -3.815377    0.282491
    115          6           0      -24.823152   -2.465530    0.312912
    116          6           0      -27.570797   -4.925201   -0.346111
    117          6           0      -24.257950   -4.573865    0.791691
    118          8           0      -24.223601   -5.792005    0.953656
    119          6           0      -22.994673   -3.671944    0.889308
    120          6           0      -22.495459   -3.930160    2.303316
    121          8           0      -21.323689   -4.260389    2.583808
    122          8           0      -23.511305   -3.594472    3.167006
    123          6           0      -23.297352   -3.486901    4.630949
    124          1           0      -21.665146    2.947266   -0.196760
    125          1           0      -28.027299    3.805998   -1.384483
    126          1           0      -28.998180   -2.438195   -0.861874
    127          1           0      -20.820035   -1.346513    1.442340
    128          1           0      -20.488226    0.540588   -0.834416
    129          1           0      -20.072548    2.040743    1.463954
    130          1           0      -18.836949    1.144137    0.476536
    131          1           0      -19.590832    0.456923    1.874507
    132          1           0      -20.040125   -3.005964    0.085078
    133          1           0      -19.388727   -1.568271   -0.772612
    134          1           0      -21.874014   -2.231764   -1.931449
    135          1           0      -20.937450   -3.657307   -1.630588
    136          1           0      -22.163849    5.180058    0.210006
    137          1           0      -23.292516    6.487568   -0.189210
    138          1           0      -22.607361    5.493402   -1.487024
    139          1           0      -27.958973    5.325515   -0.065948
    140          1           0      -28.159572    6.013613   -1.713716
    141          1           0      -28.160553    7.109646   -0.339642
    142          1           0      -29.310935    1.602244   -2.685505
    143          1           0      -30.297136   -0.094652   -0.212092
    144          1           0      -31.268873    2.041888   -0.522833
    145          1           0      -30.976606    3.129887   -2.027329
    146          1           0      -30.188958    3.398861   -0.552745
    147          1           0      -29.989593   -1.356944   -2.721576
    148          1           0      -30.950438    0.023774   -2.978917
    149          1           0      -32.829041   -1.352386   -2.272988
    150          1           0      -32.048148   -1.461281   -0.673207
    151          1           0      -31.510705   -2.517177   -1.842341
    152          1           0      -27.419126   -5.742034    0.359908
    153          1           0      -27.466072   -5.316216   -1.358425
    154          1           0      -28.614650   -4.652453   -0.185519
    155          1           0      -22.348703   -4.081344    0.113593
    156          1           0      -23.845092   -2.655579    5.074436
    157          1           0      -22.230758   -3.346486    4.807083
    158          1           0      -23.547488   -4.315612    5.292166
 ---------------------------------------------------------------------

 SCF Done:  E(RPBE1PBE) =  -4067.31376671     A.U. after   16 cycles

 Excitation energies and oscillator strengths:

 Excited State   1:      Singlet-A      1.7944 eV  690.97 nm  f=0.3612  <S**2>=0.000
     309 -> 316       -0.16553
     311 -> 313        0.69586
     311 <- 313       -0.11767
 This state for optimization and/or second-order correction.
 Total Energy, E(TD-HF/TD-DFT) =  -4067.24782514
 Copying the excited state density for this state as the 1-particle RhoCI density.

 Excited State   2:      Singlet-A      1.8151 eV  683.08 nm  f=0.4020  <S**2>=0.000
     310 -> 315        0.14964
     312 -> 314        0.69575
     312 <- 314       -0.11534

 Excited State   3:      Singlet-A      1.8389 eV  674.22 nm  f=0.0000  <S**2>=0.000
     312 -> 313        0.70711

 Excited State   4:      Singlet-A      2.0124 eV  616.09 nm  f=0.0000  <S**2>=0.000
     311 -> 314        0.70711

 Excited State   5:      Singlet-A      2.1559 eV  575.10 nm  f=0.1300  <S**2>=0.000
     308 -> 313        0.10046
     309 -> 313        0.65388
     311 -> 316        0.23183

 The electronic state is 1-A.
 Alpha  occ. eigenvalues --  -46.93360 -46.91362 -19.26777 -19.22895 -19.20512
 Alpha  occ. eigenvalues --  -19.19805 -19.18888 -19.18524 -19.18450 -19.17624
 Alpha  occ. eigenvalues --  -14.42123 -14.42046 -14.41560 -14.41515 -14.39875
 Alpha  occ. eigenvalues --  -14.39839 -14.39231 -14.38370 -10.37445 -10.35157
 Alpha  occ. eigenvalues --  -10.32231 -10.31554 -10.31262 -10.30920 -10.29949
 Alpha  occ. eigenvalues --  -10.29665 -10.29429 -10.29209 -10.28901 -10.28841
 Alpha  occ. eigenvalues --  -10.28789 -10.28662 -10.28638 -10.28547 -10.28460
 Alpha  occ. eigenvalues --  -10.28244 -10.28186 -10.28178 -10.27892 -10.27839
 Alpha  occ. eigenvalues --  -10.27337 -10.27101 -10.27057 -10.26870 -10.26778
 Alpha  occ. eigenvalues --  -10.26247 -10.26243 -10.26163 -10.26127 -10.26109
 Alpha  occ. eigenvalues --  -10.26061 -10.25967 -10.25905 -10.25819 -10.25786
 Alpha  occ. eigenvalues --  -10.25695 -10.25541 -10.25407 -10.25374 -10.25258
 Alpha  occ. eigenvalues --  -10.25150 -10.25133 -10.25080 -10.25017 -10.24906
 Alpha  occ. eigenvalues --  -10.24863 -10.24756 -10.24410 -10.24406 -10.24317
 Alpha  occ. eigenvalues --  -10.24199 -10.24056 -10.23942 -10.23879 -10.23841
 Alpha  occ. eigenvalues --  -10.23653 -10.23590 -10.23574 -10.23566 -10.23355
 Alpha  occ. eigenvalues --  -10.23320 -10.22987 -10.22815 -10.22713 -10.22629
 Alpha  occ. eigenvalues --  -10.22526  -3.15411  -3.13695  -1.88208  -1.87822
 Alpha  occ. eigenvalues --   -1.87609  -1.86507  -1.86080  -1.85937  -1.11592
 Alpha  occ. eigenvalues --   -1.10335  -1.06390  -1.04080  -1.03918  -1.03067
 Alpha  occ. eigenvalues --   -1.02642  -1.01991  -0.99761  -0.99499  -0.98948
 Alpha  occ. eigenvalues --   -0.98080  -0.97640  -0.96921  -0.96618  -0.95099
 Alpha  occ. eigenvalues --   -0.87945  -0.87088  -0.84119  -0.83464  -0.83015
 Alpha  occ. eigenvalues --   -0.82912  -0.82753  -0.82750  -0.82189  -0.81768
 Alpha  occ. eigenvalues --   -0.81588  -0.81569  -0.80794  -0.80367  -0.78879
 Alpha  occ. eigenvalues --   -0.78468  -0.78236  -0.77827  -0.77391  -0.76665
 Alpha  occ. eigenvalues --   -0.76435  -0.75947  -0.75323  -0.75243  -0.74883
 Alpha  occ. eigenvalues --   -0.74607  -0.72953  -0.72805  -0.72128  -0.71748
 Alpha  occ. eigenvalues --   -0.71396  -0.71013  -0.70966  -0.69883  -0.69622
 Alpha  occ. eigenvalues --   -0.69582  -0.68076  -0.67570  -0.66224  -0.66114
 Alpha  occ. eigenvalues --   -0.64382  -0.63839  -0.63620  -0.63126  -0.62731
 Alpha  occ. eigenvalues --   -0.62425  -0.61943  -0.61181  -0.60671  -0.60124
 Alpha  occ. eigenvalues --   -0.60104  -0.59803  -0.59453  -0.59248  -0.58848
 Alpha  occ. eigenvalues --   -0.58513  -0.58121  -0.55484  -0.54852  -0.54627
 Alpha  occ. eigenvalues --   -0.54016  -0.53998  -0.53615  -0.53531  -0.53155
 Alpha  occ. eigenvalues --   -0.52883  -0.52634  -0.52227  -0.51995  -0.51851
 Alpha  occ. eigenvalues --   -0.51152  -0.51050  -0.50377  -0.50101  -0.49883
 Alpha  occ. eigenvalues --   -0.49787  -0.49663  -0.48987  -0.48521  -0.48514
 Alpha  occ. eigenvalues --   -0.48313  -0.47967  -0.47769  -0.47739  -0.47576
 Alpha  occ. eigenvalues --   -0.47318  -0.47080  -0.46804  -0.46498  -0.46413
 Alpha  occ. eigenvalues --   -0.46403  -0.46387  -0.46211  -0.46012  -0.45982
 Alpha  occ. eigenvalues --   -0.45830  -0.45670  -0.45393  -0.45383  -0.45187
 Alpha  occ. eigenvalues --   -0.45156  -0.44783  -0.44642  -0.44480  -0.44405
 Alpha  occ. eigenvalues --   -0.44327  -0.44150  -0.44132  -0.43851  -0.43647
 Alpha  occ. eigenvalues --   -0.43480  -0.43272  -0.43253  -0.42962  -0.42771
 Alpha  occ. eigenvalues --   -0.42677  -0.42495  -0.42328  -0.42016  -0.41940
 Alpha  occ. eigenvalues --   -0.41932  -0.41845  -0.41683  -0.41655  -0.41548
 Alpha  occ. eigenvalues --   -0.41193  -0.41172  -0.40965  -0.40938  -0.40805
 Alpha  occ. eigenvalues --   -0.40300  -0.40156  -0.40155  -0.40149  -0.40064
 Alpha  occ. eigenvalues --   -0.39804  -0.39768  -0.39573  -0.39454  -0.39056
 Alpha  occ. eigenvalues --   -0.38986  -0.38807  -0.38436  -0.38351  -0.38337
 Alpha  occ. eigenvalues --   -0.38154  -0.37962  -0.37804  -0.37769  -0.37519
 Alpha  occ. eigenvalues --   -0.37475  -0.37245  -0.37112  -0.36905  -0.36814
 Alpha  occ. eigenvalues --   -0.36775  -0.36575  -0.36553  -0.36421  -0.36290
 Alpha  occ. eigenvalues --   -0.36211  -0.36054  -0.35921  -0.35528  -0.35484
 Alpha  occ. eigenvalues --   -0.35138  -0.35096  -0.34842  -0.34011  -0.33950
 Alpha  occ. eigenvalues --   -0.33707  -0.33687  -0.33060  -0.32801  -0.32709
 Alpha  occ. eigenvalues --   -0.32337  -0.32157  -0.31841  -0.31175  -0.31156
 Alpha  occ. eigenvalues --   -0.30675  -0.29842  -0.29819  -0.29674  -0.29186
 Alpha  occ. eigenvalues --   -0.28988  -0.28617  -0.28594  -0.27165  -0.27098
 Alpha  occ. eigenvalues --   -0.26339  -0.26062  -0.25532  -0.25280  -0.25256
 Alpha  occ. eigenvalues --   -0.24950  -0.24815  -0.23751  -0.21420  -0.21294
 Alpha  occ. eigenvalues --   -0.19365  -0.19081
 Alpha virt. eigenvalues --   -0.12062  -0.11708  -0.05794  -0.05490  -0.04263
 Alpha virt. eigenvalues --   -0.03896  -0.02196  -0.01896  -0.01798  -0.00555
 Alpha virt. eigenvalues --   -0.00057   0.00606   0.00812   0.01201   0.01683

 Mulliken charges:
               1
     1  Mg  11.999981
     2  C    6.000085
     3  C    5.999831
     4  C    5.999829
     5  C    6.000058
     6  N    7.000043
     7  C    5.999681
     8  C    6.000163
     9  C    5.999888
    10  C    6.000321
    11  C    5.999976
    12  C    6.000023
    13  C    6.000040
    14  H    0.999910
    15  N    6.999982
    16  C    6.000441
    17  C    6.000359
    18  C    6.000161
    19  C    6.000353
    20  C    5.999982
    21  C    6.000166
    22  O    8.000379
    23  C    5.999913
    24  N    6.999977
    25  C    6.000419
    26  C    5.999814
    27  C    6.000160
    28  C    5.999634
    29  C    5.999965
    30  C    6.000080
    31  C    6.000004
    32  N    6.999977
    33  C    5.999579
    34  C    5.999688
    35  C    5.999915
    36  C    5.999729
    37  C    5.999998
    38  C    5.999729
    39  O    7.999580
    40  C    6.000012
    41  C    6.000004
    42  O    7.999889
    43  O    7.999995
    44  C    6.000031
    45  H    1.000140
    46  H    1.000092
    47  H    0.999854
    48  H    0.999959
    49  H    1.000021
    50  H    0.999969
    51  H    1.000022
    52  H    1.000156
    53  H    0.999903
    54  H    1.000024
    55  H    1.000019
    56  H    1.000019
    57  H    1.000259
    58  H    1.000206
    59  H    1.000260
    60  H    1.000187
    61  H    1.000148
    62  H    1.000109
    63  H    1.000040
    64  H    0.999950
    65  H    1.000123
    66  H    0.999990
    67  H    0.999986
    68  H    0.999987
    69  H    0.999863
    70  H    1.000044
    71  H    0.999924
    72  H    0.999994
    73  H    0.999766
    74  H    0.999755
    75  H    0.999806
    76  H    0.999851
    77  H    0.999965
    78  H    0.999938
    79  H    0.999928
    80  Mg  12.002516
    81  C    6.001042
    82  C    5.985835
    83  C    5.982854
    84  C    6.012743
    85  N    6.994993
    86  C    5.975043
    87  C    6.009459
    88  C    5.986680
    89  C    6.035158
    90  C    5.998716
    91  C    6.000502
    92  C    6.002708
    93  H    0.989862
    94  N    6.996086
    95  C    6.042206
    96  C    6.023205
    97  C    6.006424
    98  C    6.040126
    99  C    5.996248
   100  C    6.010292
   101  O    8.019068
   102  C    6.000912
   103  N    7.002546
   104  C    6.029141
   105  C    5.990473
   106  C    6.011050
   107  C    5.965163
   108  C    5.999625
   109  C    6.002101
   110  C    5.998693
   111  N    7.000598
   112  C    5.968135
   113  C    5.975988
   114  C    5.993146
   115  C    5.975988
   116  C    6.002153
   117  C    5.983144
   118  O    7.965882
   119  C    6.001872
   120  C    5.994089
   121  O    7.989013
   122  O    8.005002
   123  C    6.004805
   124  H    1.008952
   125  H    1.006501
   126  H    0.991897
   127  H    1.001987
   128  H    1.005634
   129  H    0.994854
   130  H    1.003957
   131  H    1.008906
   132  H    1.003120
   133  H    0.991136
   134  H    1.004002
   135  H    1.003866
   136  H    1.017721
   137  H    1.014797
   138  H    1.021062
   139  H    1.004498
   140  H    1.011361
   141  H    1.012218
   142  H    1.003758
   143  H    0.996860
   144  H    1.007443
   145  H    1.000919
   146  H    0.993555
   147  H    1.002784
   148  H    0.990599
   149  H    0.995493
   150  H    0.999046
   151  H    1.004779
   152  H    0.987302
   153  H    0.982626
   154  H    0.982859
   155  H    0.991929
   156  H    0.993013
   157  H    0.993341
   158  H    0.995940
 Sum of Mulliken charges = 624.00000

 Dipole moment (field-independent basis, Debye):
    X=              1.2747    Y=             10.1902    Z=             -0.8426  Tot=             10.3041
 Quadrupole moment (field-independent basis, Debye-Ang):
   XX=            -61.4837   YY=              7.9336   ZZ=             -2.0316
   XY=           -263.1082   XZ=             18.9102   YZ=             -0.9794

 Normal termination of Gaussian 16 at Fri Oct 15 12:37:49 2021.
