 Gaussian 16, Revision A.03,
 Gaussian 16:  ES64L-G16RevA.03 25-Dec-2016

 --------------------------------------------------------
 #p PBE1PBE/Def2SVP td=(nstates=5) density=(transition=1)
 --------------------------------------------------------

 --------------------------------
 TDDFT excited states in gaussian
 --------------------------------
 Symbolic Z-matrix:
 Charge =  0 Multiplicity = 1

                         Standard orientation:
 ---------------------------------------------------------------------
 Center     Atomic      Atomic             Coordinates (Angstroms)
 Number     Number       Type             X           Y           Z
 ---------------------------------------------------------------------
      1         12           0       12.455468   -0.007457    0.473658
      2          6           0        9.191115   -0.158859   -0.705738
      3          6           0       12.961088    2.519571   -1.847581
      4          6           0       15.763694   -0.184383    1.242147
      5          6           0       11.780672   -2.655450    2.592308
      6          7           0       11.223565    1.015864   -1.133964
      7          6           0        9.881670    0.822347   -1.424625
      8          6           0        9.362048    1.684434   -2.641453
      9          6           0       10.731402    2.277927   -3.153619
     10          6           0       11.733145    1.894140   -2.002939
     11          6           0       11.326316    1.846923   -4.497426
     12          6           0        8.304902    2.704431   -2.180283
     13          6           0        6.875324    2.434846   -2.569885
     14          1           0        6.012285    3.657192   -2.929886
     15          7           0       14.117570    1.123506   -0.033263
     16          6           0       14.056569    2.140182   -0.934555
     17          6           0       15.433826    2.661826   -1.031725
     18          6           0       16.277324    1.858894   -0.248144
     19          6           0       15.442857    0.903854    0.371051
     20          6           0       15.722077    3.910954   -1.761093
     21          6           0       17.766734    1.905323   -0.070822
     22          8           0       18.391551    1.186269    0.757535
     23          6           0       18.635772    2.739577   -0.839755
     24          7           0       13.568573   -1.155560    1.761177
     25          6           0       14.913008   -1.034412    1.935428
     26          6           0       15.473671   -1.998151    2.905745
     27          6           0       14.197538   -2.767886    3.402553
     28          6           0       13.158657   -2.208995    2.504675
     29          6           0       16.623822   -2.988493    2.558028
     30          6           0       13.911019   -2.682168    4.982742
     31          6           0       13.145154   -1.498607    5.645140
     32          7           0       10.877274   -1.225600    0.880745
     33          6           0       10.729739   -2.233454    1.789699
     34          6           0        9.388026   -2.616045    1.871202
     35          6           0        8.768482   -1.852853    0.807961
     36          6           0        9.719031   -1.010075    0.267248
     37          6           0        8.746774   -3.594316    2.853656
     38          6           0        7.481734   -1.568528    0.240573
     39          8           0        6.344138   -1.910060    0.492715
     40          6           0        7.769983   -0.593718   -0.954535
     41          6           0        7.607717   -1.308881   -2.235890
     42          8           0        8.513670   -1.586116   -3.052372
     43          8           0        6.343571   -1.705688   -2.499600
     44          6           0        5.997628   -2.227340   -3.865800
     45          1           0       13.130471    3.268759   -2.622958
     46          1           0       16.815841   -0.315949    1.503883
     47          1           0       11.449204   -3.369064    3.350159
     48          1           0        9.110330    1.066921   -3.504305
     49          1           0       10.597645    3.359635   -3.148917
     50          1           0       12.221295    1.245390   -4.336697
     51          1           0       11.730615    2.750727   -4.950869
     52          1           0       10.644736    1.321072   -5.166921
     53          1           0        8.577396    3.636159   -2.677378
     54          1           0        8.430395    2.861445   -1.108976
     55          1           0        6.397545    1.933857   -1.727548
     56          1           0        6.735815    1.732509   -3.391807
     57          1           0       16.101227    4.593884   -1.001955
     58          1           0       14.925202    4.409596   -2.314371
     59          1           0       16.514671    3.733482   -2.487957
     60          1           0       18.290910    2.638716   -1.868496
     61          1           0       19.678622    2.544144   -0.593367
     62          1           0       18.448090    3.794158   -0.637766
     63          1           0       15.830313   -1.295061    3.657889
     64          1           0       14.284853   -3.819742    3.132940
     65          1           0       17.534924   -2.769630    3.114959
     66          1           0       16.899910   -2.917714    1.505405
     67          1           0       16.351369   -4.034732    2.696316
     68          1           0       14.920862   -2.642267    5.391619
     69          1           0       13.462594   -3.660835    5.154359
     70          1           0       12.673003   -0.801651    4.953214
     71          1           0       13.672332   -0.972704    6.441644
     72          1           0       12.361730   -1.994919    6.216367
     73          1           0        8.225706   -4.403615    2.341092
     74          1           0        7.980298   -3.049044    3.404136
     75          1           0        9.425540   -3.986513    3.611450
     76          1           0        6.958957    0.134271   -0.980321
     77          1           0        4.915087   -2.152456   -3.761899
     78          1           0        6.341194   -3.239936   -4.074681
     79          1           0        6.408010   -1.563370   -4.627240
     80         12           0      -12.059981   -0.330849   -0.366300
     81          6           0      -11.486008    2.828037    0.800687
     82          6           0       -8.838070   -0.194349   -1.870721
     83          6           0      -12.417139   -3.581001   -1.199884
     84          6           0      -14.702597   -0.648569    1.881536
     85          7           0      -10.142233    1.090787   -0.187347
     86          6           0      -10.295818    2.402795    0.146967
     87          6           0       -9.002380    3.138555   -0.068958
     88          6           0       -8.113473    2.133139   -0.922496
     89          6           0       -9.057119    0.895561   -1.049468
     90          6           0       -7.329389    2.724999   -2.036245
     91          6           0       -8.250784    3.811745    1.174947
     92          6           0       -8.378375    3.157549    2.518717
     93          1           0       -7.094077    2.937959    3.305896
     94          7           0      -10.909773   -1.599415   -1.585816
     95          6           0       -9.677380   -1.372852   -2.115562
     96          6           0       -9.190850   -2.501847   -2.851961
     97          6           0      -10.305633   -3.485959   -2.762025
     98          6           0      -11.286895   -2.902906   -1.821060
     99          6           0       -7.932846   -2.647545   -3.566226
    100          6           0      -10.451957   -4.828741   -3.463365
    101          8           0       -9.551712   -5.289393   -4.070869
    102          6           0      -11.641308   -5.746365   -3.398325
    103          7           0      -13.268053   -1.892254    0.341143
    104          6           0      -13.329555   -3.067284   -0.303739
    105          6           0      -14.325168   -4.087567    0.460962
    106          6           0      -15.278459   -3.002284    1.162997
    107          6           0      -14.342213   -1.817381    1.168521
    108          6           0      -15.079643   -5.077571   -0.430860
    109          6           0      -15.845572   -3.487714    2.509242
    110          6           0      -17.338036   -3.343408    2.829497
    111          7           0      -12.869332    0.802846    1.143003
    112          6           0      -13.969113    0.594759    1.966081
    113          6           0      -14.297581    1.755996    2.697670
    114          6           0      -13.397446    2.713378    2.259793
    115          6           0      -12.525963    2.091285    1.297073
    116          6           0      -15.423923    1.943884    3.666451
    117          6           0      -12.960393    4.046833    2.287459
    118          8           0      -13.412309    4.962952    2.971401
    119          6           0      -11.622374    4.158246    1.502507
    120          6           0      -11.863217    5.342114    0.577434
    121          8           0      -11.097048    6.324240    0.481582
    122          8           0      -12.961387    5.045230   -0.194880
    123          6           0      -13.339652    5.862469   -1.373656
    124          1           0       -7.798083   -0.135886   -2.198350
    125          1           0      -12.412864   -4.667533   -1.307797
    126          1           0      -15.575991   -0.734862    2.530745
    127          1           0       -9.212537    4.039097   -0.647146
    128          1           0       -7.361130    1.746056   -0.235900
    129          1           0       -7.433798    2.183237   -2.976220
    130          1           0       -6.290147    2.903412   -1.760074
    131          1           0       -7.732467    3.709177   -2.275224
    132          1           0       -8.564323    4.833172    1.390858
    133          1           0       -7.173172    3.760179    1.016292
    134          1           0       -9.033246    2.287172    2.542777
    135          1           0       -8.847887    3.887338    3.179137
    136          1           0       -7.625550   -1.669600   -3.935440
    137          1           0       -7.973852   -3.343781   -4.403039
    138          1           0       -7.203458   -3.011301   -2.841605
    139          1           0      -12.374216   -4.945065   -3.301191
    140          1           0      -11.638659   -6.383390   -2.514403
    141          1           0      -11.825653   -6.385351   -4.262086
    142          1           0      -13.721603   -4.560349    1.236338
    143          1           0      -16.142805   -2.632124    0.612198
    144          1           0      -16.111685   -4.729986   -0.484908
    145          1           0      -14.880580   -6.101028   -0.114375
    146          1           0      -14.722053   -5.085598   -1.460074
    147          1           0      -15.290273   -2.961562    3.286172
    148          1           0      -15.529206   -4.521445    2.649380
    149          1           0      -17.877479   -4.212105    3.207251
    150          1           0      -17.904415   -2.881816    2.019581
    151          1           0      -17.332629   -2.517162    3.539687
    152          1           0      -15.861260    2.942588    3.669381
    153          1           0      -15.056130    1.722073    4.668532
    154          1           0      -16.280923    1.301125    3.460970
    155          1           0      -10.898571    4.357453    2.291839
    156          1           0      -13.701152    5.257006   -2.204637
    157          1           0      -12.459742    6.420379   -1.694370
    158          1           0      -14.103270    6.635087   -1.293113
 ---------------------------------------------------------------------

 SCF Done:  E(RPBE1PBE) =  -4067.33220619     A.U. after   16 cycles

 Excitation energies and oscillator strengths:

 Excited State   1:      Singlet-A      1.6731 eV  741.03 nm  f=0.0000  <S**2>=0.000
     312 -> 313        0.70710
 This state for optimization and/or second-order correction.
 Total Energy, E(TD-HF/TD-DFT) =  -4067.27071954
 Copying the excited state density for this state as the 1-particle RhoCI density.

 Excited State   2:      Singlet-A      1.7941 eV  691.05 nm  f=0.3754  <S**2>=0.000
     309 -> 315       -0.16544
     311 -> 313        0.69560
     311 <- 313       -0.11765

 Excited State   3:      Singlet-A      1.8654 eV  664.64 nm  f=0.3689  <S**2>=0.000
     310 -> 316        0.17011
     312 -> 314        0.69138
     312 <- 314       -0.10902

 Excited State   4:      Singlet-A      2.0891 eV  593.49 nm  f=0.0000  <S**2>=0.000
     311 -> 314        0.70709

 Excited State   5:      Singlet-A      2.1558 eV  575.12 nm  f=0.1298  <S**2>=0.000
     308 -> 313       -0.10054
     309 -> 313        0.65387
     311 -> 315        0.23177

 The electronic state is 1-A.
 Alpha  occ. eigenvalues --  -46.93289 -46.90913 -19.26720 -19.24650 -19.20453
 Alpha  occ. eigenvalues --  -19.18484 -19.18480 -19.18458 -19.18149 -19.17554
 Alpha  occ. eigenvalues --  -14.42053 -14.41445 -14.41442 -14.41382 -14.39767
 Alpha  occ. eigenvalues --  -14.39164 -14.39161 -14.38035 -10.37385 -10.35505
 Alpha  occ. eigenvalues --  -10.31569 -10.31331 -10.31195 -10.30851 -10.29899
 Alpha  occ. eigenvalues --  -10.29591 -10.29196 -10.29140 -10.28827 -10.28721
 Alpha  occ. eigenvalues --  -10.28718 -10.28592 -10.28558 -10.28231 -10.28174
 Alpha  occ. eigenvalues --  -10.28121 -10.28115 -10.27767 -10.27658 -10.26799
 Alpha  occ. eigenvalues --  -10.26713 -10.26372 -10.26262 -10.26178 -10.26164
 Alpha  occ. eigenvalues --  -10.26064 -10.25956 -10.25949 -10.25935 -10.25900
 Alpha  occ. eigenvalues --  -10.25835 -10.25737 -10.25715 -10.25615 -10.25431
 Alpha  occ. eigenvalues --  -10.25314 -10.25290 -10.25226 -10.25183 -10.25087
 Alpha  occ. eigenvalues --  -10.25081 -10.24948 -10.24933 -10.24894 -10.24808
 Alpha  occ. eigenvalues --  -10.24685 -10.24464 -10.24345 -10.24329 -10.24292
 Alpha  occ. eigenvalues --  -10.24245 -10.24232 -10.23994 -10.23781 -10.23744
 Alpha  occ. eigenvalues --  -10.23597 -10.23487 -10.23474 -10.23442 -10.23393
 Alpha  occ. eigenvalues --  -10.23131 -10.22918 -10.22882 -10.22632 -10.22564
 Alpha  occ. eigenvalues --  -10.22391  -3.15341  -3.13205  -1.88137  -1.87751
 Alpha  occ. eigenvalues --   -1.87538  -1.86058  -1.85584  -1.85433  -1.10277
 Alpha  occ. eigenvalues --   -1.09849  -1.06320  -1.04301  -1.03852  -1.02584
 Alpha  occ. eigenvalues --   -1.01932  -0.99852  -0.99692  -0.99505  -0.98878
 Alpha  occ. eigenvalues --   -0.98739  -0.97842  -0.97568  -0.96851  -0.96849
 Alpha  occ. eigenvalues --   -0.87876  -0.87462  -0.84055  -0.83252  -0.82938
 Alpha  occ. eigenvalues --   -0.82707  -0.82677  -0.82588  -0.82120  -0.81813
 Alpha  occ. eigenvalues --   -0.81516  -0.81305  -0.80434  -0.80293  -0.78806
 Alpha  occ. eigenvalues --   -0.78606  -0.78174  -0.77913  -0.77318  -0.76955
 Alpha  occ. eigenvalues --   -0.76687  -0.76368  -0.75278  -0.75259  -0.74851
 Alpha  occ. eigenvalues --   -0.74815  -0.72861  -0.72740  -0.72060  -0.71804
 Alpha  occ. eigenvalues --   -0.71319  -0.71119  -0.70903  -0.70489  -0.69811
 Alpha  occ. eigenvalues --   -0.69626  -0.68006  -0.67533  -0.66154  -0.65754
 Alpha  occ. eigenvalues --   -0.64468  -0.64320  -0.63768  -0.63105  -0.62652
 Alpha  occ. eigenvalues --   -0.62418  -0.61483  -0.61110  -0.60607  -0.60038
 Alpha  occ. eigenvalues --   -0.59651  -0.59479  -0.59190  -0.59178  -0.58887
 Alpha  occ. eigenvalues --   -0.58770  -0.58054  -0.56050  -0.54783  -0.54472
 Alpha  occ. eigenvalues --   -0.54155  -0.53947  -0.53695  -0.53462  -0.53242
 Alpha  occ. eigenvalues --   -0.52566  -0.52227  -0.51928  -0.51815  -0.51781
 Alpha  occ. eigenvalues --   -0.51081  -0.50749  -0.50312  -0.50092  -0.49813
 Alpha  occ. eigenvalues --   -0.49586  -0.49443  -0.48923  -0.48899  -0.48450
 Alpha  occ. eigenvalues --   -0.48378  -0.47899  -0.47808  -0.47677  -0.47240
 Alpha  occ. eigenvalues --   -0.47077  -0.47009  -0.46996  -0.46566  -0.46486
 Alpha  occ. eigenvalues --   -0.46432  -0.46332  -0.46318  -0.45943  -0.45643
 Alpha  occ. eigenvalues --   -0.45605  -0.45383  -0.45318  -0.45117  -0.44937
 Alpha  occ. eigenvalues --   -0.44772  -0.44571  -0.44325  -0.44258  -0.44179
 Alpha  occ. eigenvalues --   -0.44080  -0.43977  -0.43784  -0.43580  -0.43579
 Alpha  occ. eigenvalues --   -0.43419  -0.43018  -0.42895  -0.42786  -0.42582
 Alpha  occ. eigenvalues --   -0.42426  -0.42394  -0.42256  -0.41943  -0.41871
 Alpha  occ. eigenvalues --   -0.41870  -0.41776  -0.41609  -0.41408  -0.41158
 Alpha  occ. eigenvalues --   -0.41123  -0.40967  -0.40870  -0.40757  -0.40406
 Alpha  occ. eigenvalues --   -0.40232  -0.40153  -0.40087  -0.40084  -0.40052
 Alpha  occ. eigenvalues --   -0.39895  -0.39691  -0.39563  -0.39506  -0.39021
 Alpha  occ. eigenvalues --   -0.38918  -0.38763  -0.38742  -0.38554  -0.38520
 Alpha  occ. eigenvalues --   -0.38265  -0.38159  -0.37893  -0.37742  -0.37642
 Alpha  occ. eigenvalues --   -0.37448  -0.37411  -0.37325  -0.37044  -0.36836
 Alpha  occ. eigenvalues --   -0.36712  -0.36487  -0.36425  -0.36353  -0.36229
 Alpha  occ. eigenvalues --   -0.36145  -0.35975  -0.35615  -0.35417  -0.35153
 Alpha  occ. eigenvalues --   -0.35058  -0.34783  -0.34578  -0.33873  -0.33801
 Alpha  occ. eigenvalues --   -0.33616  -0.33203  -0.32989  -0.32816  -0.32269
 Alpha  occ. eigenvalues --   -0.31892  -0.31779  -0.31567  -0.31454  -0.31072
 Alpha  occ. eigenvalues --   -0.30598  -0.30496  -0.29752  -0.29508  -0.28920
 Alpha  occ. eigenvalues --   -0.28758  -0.28526  -0.27542  -0.27096  -0.26640
 Alpha  occ. eigenvalues --   -0.26270  -0.25612  -0.25214  -0.25184  -0.24994
 Alpha  occ. eigenvalues --   -0.24879  -0.24866  -0.23680  -0.21349  -0.20588
 Alpha  occ. eigenvalues --   -0.19293  -0.18683
 Alpha virt. eigenvalues --   -0.11992  -0.11061  -0.05420  -0.04857  -0.03826
 Alpha virt. eigenvalues --   -0.03491  -0.02008  -0.01836  -0.01729   0.00004
 Alpha virt. eigenvalues --    0.00635   0.00681   0.00859   0.01455   0.01905

 Mulliken charges:
               1
     1  Mg  12.000000
     2  C    6.000000
     3  C    6.000000
     4  C    6.000000
     5  C    6.000000
     6  N    7.000000
     7  C    6.000000
     8  C    6.000000
     9  C    6.000000
    10  C    6.000000
    11  C    6.000000
    12  C    6.000000
    13  C    6.000000
    14  H    1.000000
    15  N    7.000000
    16  C    6.000000
    17  C    6.000000
    18  C    6.000000
    19  C    6.000000
    20  C    6.000000
    21  C    6.000000
    22  O    8.000000
    23  C    6.000000
    24  N    7.000000
    25  C    6.000000
    26  C    6.000000
    27  C    6.000000
    28  C    6.000000
    29  C    6.000000
    30  C    6.000000
    31  C    6.000000
    32  N    7.000000
    33  C    6.000000
    34  C    6.000000
    35  C    6.000000
    36  C    6.000000
    37  C    6.000000
    38  C    6.000000
    39  O    8.000000
    40  C    6.000000
    41  C    6.000000
    42  O    8.000000
    43  O    8.000000
    44  C    6.000000
    45  H    1.000000
    46  H    1.000000
    47  H    1.000000
    48  H    1.000000
    49  H    1.000000
    50  H    1.000000
    51  H    1.000000
    52  H    1.000000
    53  H    1.000000
    54  H    1.000000
    55  H    1.000000
    56  H    1.000000
    57  H    1.000000
    58  H    1.000000
    59  H    1.000000
    60  H    1.000000
    61  H    1.000000
    62  H    1.000000
    63  H    1.000000
    64  H    1.000000
    65  H    1.000000
    66  H    1.000000
    67  H    1.000000
    68  H    1.000000
    69  H    1.000000
    70  H    1.000000
    71  H    1.000000
    72  H    1.000000
    73  H    1.000000
    74  H    1.000000
    75  H    1.000000
    76  H    1.000000
    77  H    1.000000
    78  H    1.000000
    79  H    1.000000
    80  Mg  12.000000
    81  C    6.000000
    82  C    6.000000
    83  C    6.000000
    84  C    6.000000
    85  N    7.000000
    86  C    6.000000
    87  C    6.000000
    88  C    6.000000
    89  C    6.000000
    90  C    6.000000
    91  C    6.000000
    92  C    6.000000
    93  H    1.000000
    94  N    7.000000
    95  C    6.000000
    96  C    6.000000
    97  C    6.000000
    98  C    6.000000
    99  C    6.000000
   100  C    6.000000
   101  O    8.000000
   102  C    6.000000
   103  N    7.000000
   104  C    6.000000
   105  C    6.000000
   106  C    6.000000
   107  C    6.000000
   108  C    6.000000
   109  C    6.000000
   110  C    6.000000
   111  N    7.000000
   112  C    6.000000
   113  C    6.000000
   114  C    6.000000
   115  C    6.000000
   116  C    6.000000
   117  C    6.000000
   118  O    8.000000
   119  C    6.000000
   120  C    6.000000
   121  O    8.000000
   122  O    8.000000
   123  C    6.000000
   124  H    1.000000
   125  H    1.000000
   126  H    1.000000
   127  H    1.000000
   128  H    1.000000
   129  H    1.000000
   130  H    1.000000
   131  H    1.000000
   132  H    1.000000
   133  H    1.000000
   134  H    1.000000
   135  H    1.000000
   136  H    1.000000
   137  H    1.000000
   138  H    1.000000
   139  H    1.000000
   140  H    1.000000
   141  H    1.000000
   142  H    1.000000
   143  H    1.000000
   144  H    1.000000
   145  H    1.000000
   146  H    1.000000
   147  H    1.000000
   148  H    1.000000
   149  H    1.000000
   150  H    1.000000
   151  H    1.000000
   152  H    1.000000
   153  H    1.000000
   154  H    1.000000
   155  H    1.000000
   156  H    1.000000
   157  H    1.000000
   158  H    1.000000
 Sum of Mulliken charges = 624.00000

 Dipole moment (field-independent basis, Debye):
    X=             -0.0000    Y=             -0.0000    Z=              0.0000  Tot=              0.0000
 Quadrupole moment (field-independent basis, Debye-Ang):
   XX=             -0.0000   YY=             -0.0000   ZZ=              0.0000
   XY=             -0.0000   XZ=              0.0000   YZ=              0.0000

 Normal termination of Gaussian 16 at Thu Oct 14 02:48:02 2021.
