 Gaussian 16, Revision A.03,
 Gaussian 16:  ES64L-G16RevA.03 25-Dec-2016

 --------------------------------------------------------
 #p PBE1PBE/Def2SVP td=(nstates=5) density=(transition=1)
 --------------------------------------------------------

 --------------------------------
 TDDFT excited states in gaussian
 --------------------------------
 Symbolic Z-matrix:
 Charge =  0 Multiplicity = 1

                         Standard orientation:
 ---------------------------------------------------------------------
 Center     Atomic      Atomic             Coordinates (Angstroms)
 Number     Number       Type             X           Y           Z
 ---------------------------------------------------------------------
      1         12           0      -23.417147    0.508359    0.231405
      2          6           0      -22.475730   -2.334552   -1.545987
      3          6           0      -22.177356    2.474584   -2.304680
      4          6           0      -24.137886    3.157017    2.198001
      5          6           0      -24.300344   -1.625132    2.958653
      6          7           0      -22.356463    0.081487   -1.619061
      7          6           0      -22.099301   -1.134003   -2.173928
      8          6           0      -21.502145   -0.992856   -3.580046
      9          6           0      -21.304470    0.583970   -3.684351
     10          6           0      -22.023669    1.079032   -2.425165
     11          6           0      -19.832510    0.978556   -3.682793
     12          6           0      -22.432536   -1.427244   -4.768039
     13          6           0      -21.764804   -1.912770   -6.028324
     14          1           0      -20.340446   -1.652387   -6.238403
     15          7           0      -23.271948    2.496718   -0.059566
     16          6           0      -22.712852    3.117281   -1.194595
     17          6           0      -22.968558    4.526352   -1.049082
     18          6           0      -23.578346    4.771177    0.207303
     19          6           0      -23.688948    3.441306    0.855764
     20          6           0      -22.425831    5.569142   -2.002722
     21          6           0      -24.073118    6.013194    0.821369
     22          8           0      -24.393396    6.097808    1.987828
     23          6           0      -24.056483    7.361495    0.013708
     24          7           0      -24.298786    0.780754    2.274746
     25          6           0      -24.453827    1.950207    2.819767
     26          6           0      -24.984925    1.832496    4.280117
     27          6           0      -25.115106    0.338935    4.517389
     28          6           0      -24.492953   -0.265959    3.207636
     29          6           0      -24.049529    2.657936    5.283561
     30          6           0      -26.563101   -0.103596    4.816331
     31          6           0      -26.971718   -0.254915    6.329284
     32          7           0      -23.654877   -1.473258    0.575637
     33          6           0      -24.018619   -2.212208    1.728733
     34          6           0      -23.993258   -3.602367    1.475496
     35          6           0      -23.297358   -3.669976    0.194352
     36          6           0      -23.172339   -2.331390   -0.275755
     37          6           0      -24.227284   -4.699779    2.497526
     38          6           0      -22.743545   -4.625125   -0.692879
     39          8           0      -22.710591   -5.849049   -0.668501
     40          6           0      -22.226003   -3.720686   -1.994838
     41          6           0      -20.794938   -4.120488   -2.204068
     42          8           0      -19.905156   -4.005792   -1.354607
     43          8           0      -20.585066   -4.780351   -3.451222
     44          6           0      -19.181419   -5.220157   -3.726192
     45          1           0      -21.762492    3.035601   -3.145540
     46          1           0      -24.166121    4.048015    2.828126
     47          1           0      -24.604341   -2.324082    3.740191
     48          1           0      -20.549742   -1.523020   -3.558786
     49          1           0      -21.728353    1.005669   -4.595627
     50          1           0      -19.192874    0.117603   -3.875133
     51          1           0      -19.540977    1.517427   -2.780869
     52          1           0      -19.539834    1.589831   -4.536513
     53          1           0      -23.083706   -0.584461   -4.997340
     54          1           0      -23.124798   -2.165605   -4.362853
     55          1           0      -22.234018   -1.383427   -6.857329
     56          1           0      -21.907766   -2.990017   -6.113566
     57          1           0      -21.671352    6.212965   -1.550794
     58          1           0      -23.269048    6.145032   -2.386376
     59          1           0      -21.903914    5.190585   -2.881436
     60          1           0      -23.036977    7.740005    0.091882
     61          1           0      -24.648950    8.115853    0.531601
     62          1           0      -24.286822    7.188957   -1.036907
     63          1           0      -25.952383    2.332105    4.226580
     64          1           0      -24.423767   -0.011090    5.282415
     65          1           0      -23.672579    2.011348    6.075863
     66          1           0      -24.581988    3.428760    5.841063
     67          1           0      -23.228569    3.011938    4.658656
     68          1           0      -26.685322   -1.073404    4.332723
     69          1           0      -27.215446    0.604594    4.305219
     70          1           0      -26.683838   -1.256997    6.649134
     71          1           0      -27.998006   -0.034811    6.623824
     72          1           0      -26.254940    0.422002    6.792937
     73          1           0      -25.311666   -4.807146    2.499694
     74          1           0      -23.891617   -4.398658    3.489169
     75          1           0      -23.620596   -5.599982    2.391139
     76          1           0      -22.868121   -3.938045   -2.849283
     77          1           0      -18.846355   -5.966232   -3.006533
     78          1           0      -18.398624   -4.462285   -3.767065
     79          1           0      -19.344394   -5.711364   -4.685490
     80         12           0       23.463086    0.496251   -0.727633
     81          6           0       22.422928   -2.827745    0.011462
     82          6           0       20.277961    1.240048   -1.744735
     83          6           0       24.215483    3.900945   -0.429275
     84          6           0       26.519586   -0.177011    0.870176
     85          7           0       21.477324   -0.722638   -0.576193
     86          6           0       21.345134   -2.056305   -0.488973
     87          6           0       20.033433   -2.474069   -1.128096
     88          6           0       19.284901   -1.152832   -1.644785
     89          6           0       20.531499   -0.155919   -1.419561
     90          6           0       18.901235   -1.346462   -3.129065
     91          6           0       19.182801   -3.267735   -0.149522
     92          6           0       19.206023   -2.808933    1.327892
     93          1           0       17.934214   -2.093432    1.859720
     94          7           0       22.407804    2.360611   -1.133083
     95          6           0       21.088040    2.384486   -1.528484
     96          6           0       20.807504    3.746187   -1.860214
     97          6           0       21.885423    4.600470   -1.410853
     98          6           0       22.944552    3.645622   -0.996985
     99          6           0       19.453300    4.202085   -2.352145
    100          6           0       21.875304    6.121781   -1.253030
    101          8           0       20.861815    6.751156   -1.488055
    102          6           0       23.011298    6.877821   -0.817939
    103          7           0       25.077810    1.706891    0.191050
    104          6           0       25.200038    3.016735    0.034301
    105          6           0       26.456175    3.585977    0.673524
    106          6           0       26.994104    2.282539    1.406525
    107          6           0       26.219515    1.190268    0.761817
    108          6           0       27.502037    4.198281   -0.380764
    109          6           0       26.829448    2.423010    2.989676
    110          6           0       28.037561    2.546146    3.874444
    111          7           0       24.390777   -1.132885   -0.003260
    112          6           0       25.696239   -1.285249    0.506689
    113          6           0       25.988147   -2.706222    0.772513
    114          6           0       24.739867   -3.290789    0.559354
    115          6           0       23.736575   -2.321118    0.208736
    116          6           0       27.356044   -3.403466    1.089797
    117          6           0       24.058166   -4.587872    0.616248
    118          8           0       24.443305   -5.739013    0.879776
    119          6           0       22.553287   -4.361593    0.253831
    120          6           0       21.921132   -4.780168    1.536252
    121          8           0       22.143852   -4.291241    2.614092
    122          8           0       21.168795   -5.859619    1.342621
    123          6           0       20.361636   -6.411673    2.486151
    124          1           0       19.378181    1.408956   -2.339732
    125          1           0       24.609076    4.915708   -0.343201
    126          1           0       27.442087   -0.254791    1.450227
    127          1           0       20.438266   -3.120869   -1.906500
    128          1           0       18.417101   -0.898152   -1.035793
    129          1           0       17.818179   -1.259012   -3.212977
    130          1           0       19.156564   -2.323980   -3.538981
    131          1           0       19.368433   -0.521160   -3.665708
    132          1           0       19.494716   -4.312135   -0.160216
    133          1           0       18.129308   -3.210270   -0.424840
    134          1           0       19.919101   -2.033362    1.607028
    135          1           0       19.392059   -3.723441    1.891184
    136          1           0       18.734532    3.382702   -2.379294
    137          1           0       19.604276    4.713156   -3.303613
    138          1           0       19.127739    5.009750   -1.697498
    139          1           0       23.346342    6.675580    0.199610
    140          1           0       22.775035    7.940701   -0.864860
    141          1           0       23.788950    6.561136   -1.513815
    142          1           0       26.262969    4.301699    1.472194
    143          1           0       28.066962    2.376640    1.237575
    144          1           0       27.076101    4.152420   -1.383476
    145          1           0       28.383916    3.557540   -0.366528
    146          1           0       27.865487    5.204298   -0.165556
    147          1           0       26.391140    1.523478    3.422068
    148          1           0       26.189731    3.267508    3.242275
    149          1           0       28.310027    1.620323    4.381178
    150          1           0       27.658613    3.274017    4.592628
    151          1           0       28.874549    3.089132    3.435136
    152          1           0       27.605139   -3.183717    2.127591
    153          1           0       28.077970   -3.036718    0.359941
    154          1           0       27.211936   -4.482222    1.032419
    155          1           0       22.357623   -4.989964   -0.615833
    156          1           0       20.935054   -7.087582    3.120941
    157          1           0       19.489021   -6.957379    2.124896
    158          1           0       20.025724   -5.532399    3.035794
 ---------------------------------------------------------------------

 SCF Done:  E(RPBE1PBE) =  -4067.36713413     A.U. after   16 cycles

 Excitation energies and oscillator strengths:

 Excited State   1:      Singlet-A      1.8459 eV  671.69 nm  f=0.3345  <S**2>=0.000
     310 -> 316        0.17448
     311 -> 313        0.69175
     311 <- 313       -0.10438
 This state for optimization and/or second-order correction.
 Total Energy, E(TD-HF/TD-DFT) =  -4067.29929975
 Copying the excited state density for this state as the 1-particle RhoCI density.

 Excited State   2:      Singlet-A      1.8532 eV  669.02 nm  f=0.3680  <S**2>=0.000
     309 -> 315        0.19391
     312 -> 314        0.68668

 Excited State   3:      Singlet-A      1.9501 eV  635.77 nm  f=0.0000  <S**2>=0.000
     312 -> 313        0.70711

 Excited State   4:      Singlet-A      2.0654 eV  600.28 nm  f=0.0000  <S**2>=0.000
     311 -> 314        0.70711

 Excited State   5:      Singlet-A      2.2119 eV  560.53 nm  f=0.1389  <S**2>=0.000
     310 -> 313        0.66056
     311 -> 316       -0.23956

 The electronic state is 1-A.
 Alpha  occ. eigenvalues --  -46.93589 -46.91402 -19.25706 -19.24910 -19.19772
 Alpha  occ. eigenvalues --  -19.19174 -19.19137 -19.19079 -19.18879 -19.18265
 Alpha  occ. eigenvalues --  -14.42140 -14.41932 -14.41466 -14.41206 -14.39850
 Alpha  occ. eigenvalues --  -14.39734 -14.39213 -14.39201 -10.36194 -10.35738
 Alpha  occ. eigenvalues --  -10.32291 -10.32191 -10.31812 -10.31416 -10.29777
 Alpha  occ. eigenvalues --  -10.29670 -10.29148 -10.29089 -10.29005 -10.28805
 Alpha  occ. eigenvalues --  -10.28804 -10.28775 -10.28558 -10.28512 -10.28490
 Alpha  occ. eigenvalues --  -10.28391 -10.28361 -10.28321 -10.27716 -10.27478
 Alpha  occ. eigenvalues --  -10.27112 -10.26892 -10.26856 -10.26719 -10.26579
 Alpha  occ. eigenvalues --  -10.26545 -10.26039 -10.26023 -10.26011 -10.25972
 Alpha  occ. eigenvalues --  -10.25890 -10.25855 -10.25788 -10.25764 -10.25690
 Alpha  occ. eigenvalues --  -10.25664 -10.25632 -10.25561 -10.25487 -10.25445
 Alpha  occ. eigenvalues --  -10.25410 -10.25255 -10.25140 -10.25094 -10.24889
 Alpha  occ. eigenvalues --  -10.24732 -10.24608 -10.24569 -10.24502 -10.24444
 Alpha  occ. eigenvalues --  -10.24321 -10.24171 -10.24102 -10.24098 -10.23932
 Alpha  occ. eigenvalues --  -10.23660 -10.23596 -10.23564 -10.23467 -10.23382
 Alpha  occ. eigenvalues --  -10.23307 -10.23235 -10.22976 -10.22932 -10.22772
 Alpha  occ. eigenvalues --  -10.22475  -3.15483  -3.13675  -1.88284  -1.87887
 Alpha  occ. eigenvalues --   -1.87682  -1.86529  -1.86041  -1.85919  -1.11829
 Alpha  occ. eigenvalues --   -1.08271  -1.05565  -1.04937  -1.03745  -1.03578
 Alpha  occ. eigenvalues --   -1.02521  -1.00747  -0.99802  -0.99221  -0.98741
 Alpha  occ. eigenvalues --   -0.98282  -0.98166  -0.97092  -0.96850  -0.96231
 Alpha  occ. eigenvalues --   -0.86620  -0.86311  -0.83574  -0.83258  -0.83241
 Alpha  occ. eigenvalues --   -0.83056  -0.82654  -0.82567  -0.82031  -0.81748
 Alpha  occ. eigenvalues --   -0.81410  -0.80747  -0.80486  -0.79619  -0.78918
 Alpha  occ. eigenvalues --   -0.78554  -0.78341  -0.77384  -0.77088  -0.76840
 Alpha  occ. eigenvalues --   -0.76475  -0.75728  -0.75436  -0.74609  -0.74601
 Alpha  occ. eigenvalues --   -0.74302  -0.72847  -0.72246  -0.71662  -0.71643
 Alpha  occ. eigenvalues --   -0.71193  -0.70701  -0.70565  -0.70214  -0.69416
 Alpha  occ. eigenvalues --   -0.69308  -0.67655  -0.67311  -0.66190  -0.66058
 Alpha  occ. eigenvalues --   -0.63837  -0.63377  -0.63235  -0.62936  -0.62596
 Alpha  occ. eigenvalues --   -0.62541  -0.61668  -0.61145  -0.60194  -0.60017
 Alpha  occ. eigenvalues --   -0.59734  -0.59628  -0.59484  -0.59344  -0.59244
 Alpha  occ. eigenvalues --   -0.58576  -0.57011  -0.56075  -0.54855  -0.54798
 Alpha  occ. eigenvalues --   -0.54274  -0.53945  -0.53860  -0.53602  -0.53241
 Alpha  occ. eigenvalues --   -0.53085  -0.52426  -0.52407  -0.51884  -0.51843
 Alpha  occ. eigenvalues --   -0.50826  -0.50753  -0.50368  -0.49604  -0.49544
 Alpha  occ. eigenvalues --   -0.49486  -0.49221  -0.49116  -0.48624  -0.48466
 Alpha  occ. eigenvalues --   -0.48090  -0.47858  -0.47728  -0.47699  -0.47380
 Alpha  occ. eigenvalues --   -0.47211  -0.47056  -0.46936  -0.46842  -0.46755
 Alpha  occ. eigenvalues --   -0.46671  -0.46669  -0.46419  -0.46223  -0.46086
 Alpha  occ. eigenvalues --   -0.45769  -0.45292  -0.45220  -0.44815  -0.44673
 Alpha  occ. eigenvalues --   -0.44449  -0.44369  -0.44287  -0.44196  -0.44042
 Alpha  occ. eigenvalues --   -0.43884  -0.43843  -0.43814  -0.43637  -0.43532
 Alpha  occ. eigenvalues --   -0.43170  -0.43130  -0.43035  -0.42926  -0.42866
 Alpha  occ. eigenvalues --   -0.42456  -0.42376  -0.42249  -0.41968  -0.41903
 Alpha  occ. eigenvalues --   -0.41787  -0.41666  -0.41643  -0.41618  -0.41571
 Alpha  occ. eigenvalues --   -0.41337  -0.41043  -0.40537  -0.40500  -0.40295
 Alpha  occ. eigenvalues --   -0.40095  -0.39993  -0.39933  -0.39858  -0.39820
 Alpha  occ. eigenvalues --   -0.39572  -0.39511  -0.39288  -0.39146  -0.38902
 Alpha  occ. eigenvalues --   -0.38832  -0.38770  -0.38732  -0.38579  -0.38359
 Alpha  occ. eigenvalues --   -0.38280  -0.37992  -0.37944  -0.37780  -0.37755
 Alpha  occ. eigenvalues --   -0.37571  -0.37265  -0.37036  -0.36887  -0.36856
 Alpha  occ. eigenvalues --   -0.36747  -0.36498  -0.36349  -0.36223  -0.36207
 Alpha  occ. eigenvalues --   -0.36127  -0.35727  -0.35724  -0.35098  -0.35016
 Alpha  occ. eigenvalues --   -0.34968  -0.34739  -0.34730  -0.34432  -0.33661
 Alpha  occ. eigenvalues --   -0.33611  -0.32937  -0.32814  -0.32415  -0.32299
 Alpha  occ. eigenvalues --   -0.32106  -0.32055  -0.31780  -0.31423  -0.31251
 Alpha  occ. eigenvalues --   -0.30792  -0.30718  -0.29724  -0.29285  -0.29196
 Alpha  occ. eigenvalues --   -0.29136  -0.28839  -0.28586  -0.27025  -0.27009
 Alpha  occ. eigenvalues --   -0.26044  -0.26028  -0.25719  -0.25539  -0.25507
 Alpha  occ. eigenvalues --   -0.25380  -0.25095  -0.24496  -0.21235  -0.21118
 Alpha  occ. eigenvalues --   -0.19150  -0.18995
 Alpha virt. eigenvalues --   -0.11546  -0.11277  -0.05938  -0.05246  -0.03989
 Alpha virt. eigenvalues --   -0.03976  -0.02077  -0.02047  -0.01676  -0.00010
 Alpha virt. eigenvalues --    0.00405   0.00956   0.01127   0.01310   0.02228

 Mulliken charges:
               1
     1  Mg  11.999338
     2  C    6.027791
     3  C    5.998952
     4  C    5.979840
     5  C    5.998580
     6  N    7.015866
     7  C    5.964997
     8  C    6.011704
     9  C    5.987912
    10  C    6.025848
    11  C    5.995958
    12  C    6.002179
    13  C    6.000311
    14  H    0.995840
    15  N    6.991200
    16  C    6.034012
    17  C    6.020463
    18  C    6.017349
    19  C    6.027524
    20  C    5.995687
    21  C    6.009575
    22  O    8.030368
    23  C    5.998070
    24  N    6.992653
    25  C    6.027174
    26  C    5.998343
    27  C    6.003814
    28  C    5.976688
    29  C    5.997518
    30  C    6.003883
    31  C    5.998766
    32  N    7.000117
    33  C    5.968590
    34  C    5.974269
    35  C    5.993883
    36  C    5.971519
    37  C    6.000142
    38  C    5.985987
    39  O    7.969183
    40  C    5.992081
    41  C    5.995689
    42  O    7.996624
    43  O    7.997718
    44  C    6.001491
    45  H    1.013576
    46  H    1.002094
    47  H    0.988002
    48  H    1.002474
    49  H    1.002769
    50  H    1.014413
    51  H    0.997968
    52  H    1.003302
    53  H    0.990498
    54  H    1.007305
    55  H    0.996791
    56  H    1.004139
    57  H    1.017815
    58  H    1.016361
    59  H    1.015827
    60  H    1.008190
    61  H    1.013674
    62  H    1.004607
    63  H    0.996244
    64  H    1.000234
    65  H    1.007465
    66  H    0.999129
    67  H    0.994226
    68  H    1.005587
    69  H    0.990131
    70  H    1.001822
    71  H    0.995252
    72  H    0.994279
    73  H    0.985293
    74  H    0.983792
    75  H    0.987229
    76  H    0.994247
    77  H    0.999626
    78  H    0.993934
    79  H    0.996207
    80  Mg  11.999798
    81  C    5.999547
    82  C    6.000932
    83  C    6.000539
    84  C    5.999238
    85  N    6.999779
    86  C    6.001095
    87  C    5.999960
    88  C    6.000536
    89  C    5.998402
    90  C    6.000043
    91  C    5.999893
    92  C    5.999702
    93  H    1.000519
    94  N    7.000252
    95  C    5.998374
    96  C    5.999336
    97  C    5.999561
    98  C    5.998620
    99  C    6.000165
   100  C    5.999493
   101  O    7.999264
   102  C    6.000186
   103  N    6.999822
   104  C    5.998955
   105  C    6.000475
   106  C    5.999441
   107  C    6.001463
   108  C    6.000100
   109  C    5.999963
   110  C    5.999940
   111  N    6.999934
   112  C    6.001572
   113  C    6.001097
   114  C    5.999998
   115  C    6.001183
   116  C    6.000138
   117  C    6.000667
   118  O    8.001343
   119  C    5.999993
   120  C    6.000241
   121  O    8.000107
   122  O    8.000052
   123  C    5.999927
   124  H    0.999737
   125  H    0.999573
   126  H    1.000357
   127  H    0.999793
   128  H    0.999772
   129  H    0.999829
   130  H    0.999620
   131  H    1.000141
   132  H    0.999829
   133  H    1.000312
   134  H    0.999986
   135  H    0.999872
   136  H    0.999268
   137  H    0.999239
   138  H    0.999336
   139  H    0.999576
   140  H    0.999490
   141  H    0.999745
   142  H    0.999923
   143  H    1.000184
   144  H    1.000126
   145  H    0.999541
   146  H    0.999930
   147  H    0.999869
   148  H    1.000494
   149  H    0.999918
   150  H    1.000183
   151  H    1.000172
   152  H    1.000636
   153  H    1.000565
   154  H    1.000410
   155  H    1.000403
   156  H    1.000099
   157  H    1.000259
   158  H    1.000166
 Sum of Mulliken charges = 624.00000

 Dipole moment (field-independent basis, Debye):
    X=              1.0409    Y=              9.4463    Z=             -2.2925  Tot=              9.7761
 Quadrupole moment (field-independent basis, Debye-Ang):
   XX=            -32.7108   YY=             10.5878   ZZ=             -3.5070
   XY=           -235.7052   XZ=             60.9404   YZ=              0.3190

 Normal termination of Gaussian 16 at Fri Oct 15 09:33:21 2021.
