 Gaussian 16, Revision A.03,
 Gaussian 16:  ES64L-G16RevA.03 25-Dec-2016

 --------------------------------------------------------
 #p PBE1PBE/Def2SVP td=(nstates=5) density=(transition=1)
 --------------------------------------------------------

 --------------------------------
 TDDFT excited states in gaussian
 --------------------------------
 Symbolic Z-matrix:
 Charge =  0 Multiplicity = 1

                         Standard orientation:
 ---------------------------------------------------------------------
 Center     Atomic      Atomic             Coordinates (Angstroms)
 Number     Number       Type             X           Y           Z
 ---------------------------------------------------------------------
      1         12           0       30.370328    0.403689    0.724662
      2          6           0       30.716250   -1.889827   -1.951928
      3          6           0       29.044412    2.601951   -1.647718
      4          6           0       29.875493    2.610067    3.105117
      5          6           0       32.426942   -1.606847    2.678636
      6          7           0       29.921336    0.303775   -1.513517
      7          6           0       30.003737   -0.762413   -2.357071
      8          6           0       29.556838   -0.510202   -3.807269
      9          6           0       29.136793    1.037355   -3.641749
     10          6           0       29.406325    1.303897   -2.190371
     11          6           0       29.973134    2.037821   -4.533806
     12          6           0       28.364801   -1.421235   -4.247373
     13          6           0       28.460524   -2.523727   -5.294815
     14          1           0       27.301390   -2.822286   -6.236499
     15          7           0       29.501282    2.322357    0.774838
     16          6           0       29.076667    3.091922   -0.317884
     17          6           0       28.717915    4.398049    0.187975
     18          6           0       28.794403    4.378439    1.578439
     19          6           0       29.354942    3.047250    1.881871
     20          6           0       28.137388    5.391672   -0.759478
     21          6           0       28.520243    5.460055    2.622770
     22          8           0       28.663731    5.313058    3.840337
     23          6           0       27.908607    6.716897    2.142445
     24          7           0       31.122378    0.574551    2.601771
     25          6           0       30.618209    1.464039    3.509722
     26          6           0       30.971285    1.035652    4.974383
     27          6           0       31.832725   -0.203742    4.769724
     28          6           0       31.868902   -0.407642    3.229581
     29          6           0       31.610756    2.181828    5.824412
     30          6           0       31.222147   -1.388953    5.533013
     31          6           0       32.128973   -2.269798    6.313015
     32          7           0       31.472418   -1.330996    0.449449
     33          6           0       32.237006   -2.053170    1.330457
     34          6           0       32.749224   -3.244935    0.722988
     35          6           0       32.102698   -3.333459   -0.605853
     36          6           0       31.324167   -2.112564   -0.690023
     37          6           0       33.721791   -4.242081    1.375793
     38          6           0       31.933650   -4.106442   -1.862094
     39          8           0       32.310326   -5.254017   -2.154587
     40          6           0       31.018362   -3.181859   -2.765936
     41          6           0       31.921503   -2.999165   -3.945479
     42          8           0       32.800307   -2.161848   -4.110930
     43          8           0       31.585118   -3.804332   -4.915745
     44          6           0       32.446885   -3.907657   -6.118358
     45          1           0       28.514857    3.116347   -2.451938
     46          1           0       29.814953    3.265915    3.975749
     47          1           0       33.011445   -2.259154    3.330231
     48          1           0       30.438149   -0.598363   -4.443814
     49          1           0       28.089780    1.306615   -3.784306
     50          1           0       30.901361    1.662837   -4.964078
     51          1           0       30.257222    2.909001   -3.944558
     52          1           0       29.338481    2.378341   -5.352155
     53          1           0       27.594658   -0.751293   -4.630024
     54          1           0       27.964487   -1.958409   -3.388492
     55          1           0       28.493959   -3.401732   -4.649601
     56          1           0       29.386312   -2.259436   -5.805962
     57          1           0       27.118170    5.664265   -0.489126
     58          1           0       28.114661    4.998400   -1.776119
     59          1           0       28.691731    6.329062   -0.793919
     60          1           0       27.045446    6.485389    1.518247
     61          1           0       28.544482    7.244768    1.431585
     62          1           0       27.538373    7.368579    2.933216
     63          1           0       29.983766    0.813438    5.378437
     64          1           0       32.820497   -0.073937    5.211633
     65          1           0       31.579552    3.162416    5.349690
     66          1           0       32.659322    2.015773    6.068671
     67          1           0       31.175319    2.184906    6.823546
     68          1           0       30.756338   -1.964369    4.734017
     69          1           0       30.477808   -1.114631    6.280140
     70          1           0       31.933405   -3.270599    5.928697
     71          1           0       31.971200   -2.122376    7.381369
     72          1           0       33.191182   -2.130000    6.111184
     73          1           0       34.743329   -3.945031    1.141348
     74          1           0       33.489003   -5.239000    1.001850
     75          1           0       33.651757   -4.233614    2.463728
     76          1           0       30.144104   -3.775208   -3.033105
     77          1           0       32.556727   -2.972852   -6.666972
     78          1           0       32.136842   -4.677952   -6.824215
     79          1           0       33.474850   -4.232190   -5.959833
     80         12           0      -31.137736   -0.545254   -0.236289
     81          6           0      -28.264184    1.236811   -0.940827
     82          6           0      -29.158734   -3.016528    1.115259
     83          6           0      -33.975575   -2.035514    0.998619
     84          6           0      -33.051429    2.020466   -1.503589
     85          7           0      -29.000318   -0.764245    0.231807
     86          6           0      -28.016166    0.086418   -0.231767
     87          6           0      -26.618301   -0.415515    0.120153
     88          6           0      -26.916090   -1.922471    0.464440
     89          6           0      -28.425045   -1.886134    0.657629
     90          6           0      -26.376099   -3.027460   -0.552238
     91          6           0      -25.850293    0.382699    1.221499
     92          6           0      -24.399351    0.691683    0.918416
     93          1           0      -23.448047   -0.092317    1.809017
     94          7           0      -31.470575   -2.255656    0.895854
     95          6           0      -30.555733   -3.134486    1.320602
     96          6           0      -31.190981   -4.262328    1.979885
     97          6           0      -32.564662   -4.089041    2.010473
     98          6           0      -32.745595   -2.733094    1.334448
     99          6           0      -30.353690   -5.453852    2.648676
    100          6           0      -33.633402   -5.100275    2.546839
    101          8           0      -33.235835   -6.167461    3.094255
    102          6           0      -35.085284   -4.818009    2.476234
    103          7           0      -33.282534    0.050802   -0.028556
    104          6           0      -34.228595   -0.781384    0.341324
    105          6           0      -35.609340   -0.329371   -0.086067
    106          6           0      -35.421308    1.036107   -0.830171
    107          6           0      -33.818706    1.045701   -0.881552
    108          6           0      -36.613621   -1.357383   -0.698289
    109          6           0      -35.988344    2.352221   -0.223392
    110          6           0      -36.091804    3.474010   -1.235949
    111          7           0      -30.742175    1.306448   -1.063849
    112          6           0      -31.638539    2.241723   -1.630817
    113          6           0      -30.859378    3.285903   -2.238314
    114          6           0      -29.501800    2.938083   -2.034055
    115          6           0      -29.532622    1.763518   -1.287447
    116          6           0      -31.376458    4.389259   -3.149391
    117          6           0      -28.219450    3.354787   -2.318744
    118          8           0      -27.725300    4.331221   -2.813174
    119          6           0      -27.303818    2.322120   -1.477316
    120          6           0      -26.908748    3.114024   -0.231781
    121          8           0      -27.605238    3.286911    0.749847
    122          8           0      -25.630752    3.599569   -0.457031
    123          6           0      -25.094576    4.484488    0.572083
    124          1           0      -28.592978   -3.913829    1.373912
    125          1           0      -34.835985   -2.569525    1.406492
    126          1           0      -33.519496    2.834317   -2.061252
    127          1           0      -26.033137   -0.418859   -0.798995
    128          1           0      -26.574264   -2.079416    1.488134
    129          1           0      -27.051222   -3.858587   -0.348718
    130          1           0      -25.399677   -3.436848   -0.292011
    131          1           0      -26.354868   -2.756816   -1.607802
    132          1           0      -25.920375   -0.269467    2.092293
    133          1           0      -26.349922    1.257657    1.636823
    134          1           0      -24.262370    1.764633    1.054933
    135          1           0      -24.124559    0.442568   -0.106729
    136          1           0      -29.269504   -5.342662    2.603296
    137          1           0      -30.612774   -6.408170    2.188927
    138          1           0      -30.486374   -5.516270    3.727880
    139          1           0      -35.379846   -4.686064    1.435596
    140          1           0      -35.375858   -4.030281    3.171450
    141          1           0      -35.548282   -5.779292    2.695616
    142          1           0      -36.247464    0.050267    0.712180
    143          1           0      -35.605236    0.956239   -1.901829
    144          1           0      -36.186545   -2.342235   -0.504188
    145          1           0      -36.869530   -1.157817   -1.739496
    146          1           0      -37.588580   -1.375107   -0.211000
    147          1           0      -35.353717    2.585956    0.631322
    148          1           0      -36.950323    2.059023    0.196878
    149          1           0      -36.939907    4.096231   -0.949089
    150          1           0      -36.257841    3.158810   -2.266768
    151          1           0      -35.227677    4.129548   -1.127689
    152          1           0      -30.589900    4.946058   -3.658786
    153          1           0      -31.998507    5.049134   -2.546031
    154          1           0      -32.027694    3.988037   -3.926013
    155          1           0      -26.498686    1.914699   -2.089543
    156          1           0      -25.682116    5.402183    0.603768
    157          1           0      -24.034585    4.686142    0.421465
    158          1           0      -25.225581    4.023033    1.550450
 ---------------------------------------------------------------------

 SCF Done:  E(RPBE1PBE) =  -4067.36840157     A.U. after   16 cycles

 Excitation energies and oscillator strengths:

 Excited State   1:      Singlet-A      1.8639 eV  665.20 nm  f=0.3632  <S**2>=0.000
     310 -> 316        0.18324
     312 -> 314        0.68971
 This state for optimization and/or second-order correction.
 Total Energy, E(TD-HF/TD-DFT) =  -4067.29990573
 Copying the excited state density for this state as the 1-particle RhoCI density.

 Excited State   2:      Singlet-A      1.8858 eV  657.46 nm  f=0.3624  <S**2>=0.000
     309 -> 315        0.14503
     311 -> 313        0.69236

 Excited State   3:      Singlet-A      2.0333 eV  609.78 nm  f=0.0000  <S**2>=0.000
     312 -> 313        0.70711

 Excited State   4:      Singlet-A      2.0870 eV  594.08 nm  f=0.0000  <S**2>=0.000
     311 -> 314        0.70711

 Excited State   5:      Singlet-A      2.2119 eV  560.54 nm  f=0.1056  <S**2>=0.000
     310 -> 314        0.65041
     312 -> 316       -0.26771

 The electronic state is 1-A.
 Alpha  occ. eigenvalues --  -46.92803 -46.91966 -19.25962 -19.25331 -19.20283
 Alpha  occ. eigenvalues --  -19.20084 -19.19515 -19.19376 -19.18499 -19.18483
 Alpha  occ. eigenvalues --  -14.41957 -14.41729 -14.41595 -14.41562 -14.39986
 Alpha  occ. eigenvalues --  -14.39362 -14.38862 -14.38427 -10.36311 -10.35717
 Alpha  occ. eigenvalues --  -10.33839 -10.32861 -10.32815 -10.30952 -10.30231
 Alpha  occ. eigenvalues --  -10.29693 -10.29214 -10.29155 -10.29021 -10.28947
 Alpha  occ. eigenvalues --  -10.28858 -10.28549 -10.28491 -10.28485 -10.28417
 Alpha  occ. eigenvalues --  -10.28129 -10.28047 -10.27856 -10.26996 -10.26901
 Alpha  occ. eigenvalues --  -10.26874 -10.26849 -10.26843 -10.26617 -10.26483
 Alpha  occ. eigenvalues --  -10.26396 -10.26373 -10.26134 -10.26059 -10.26025
 Alpha  occ. eigenvalues --  -10.25926 -10.25919 -10.25884 -10.25843 -10.25736
 Alpha  occ. eigenvalues --  -10.25537 -10.25415 -10.25352 -10.25346 -10.25334
 Alpha  occ. eigenvalues --  -10.25273 -10.25147 -10.24937 -10.24897 -10.24659
 Alpha  occ. eigenvalues --  -10.24569 -10.24563 -10.24545 -10.24536 -10.24515
 Alpha  occ. eigenvalues --  -10.24462 -10.24295 -10.24132 -10.23938 -10.23859
 Alpha  occ. eigenvalues --  -10.23845 -10.23639 -10.23535 -10.23456 -10.23368
 Alpha  occ. eigenvalues --  -10.23349 -10.23309 -10.23128 -10.22941 -10.22363
 Alpha  occ. eigenvalues --  -10.21450  -3.14824  -3.14141  -1.87648  -1.87202
 Alpha  occ. eigenvalues --   -1.87051  -1.86983  -1.86517  -1.86368  -1.12651
 Alpha  occ. eigenvalues --   -1.10378  -1.05046  -1.04531  -1.03492  -1.03361
 Alpha  occ. eigenvalues --   -1.02901  -1.01356  -1.00044  -0.99174  -0.98452
 Alpha  occ. eigenvalues --   -0.98387  -0.97908  -0.97443  -0.97220  -0.96299
 Alpha  occ. eigenvalues --   -0.86320  -0.86243  -0.83844  -0.83483  -0.83224
 Alpha  occ. eigenvalues --   -0.82952  -0.82771  -0.82186  -0.81872  -0.81388
 Alpha  occ. eigenvalues --   -0.81091  -0.80585  -0.80370  -0.79524  -0.78692
 Alpha  occ. eigenvalues --   -0.78659  -0.77943  -0.77895  -0.77242  -0.77180
 Alpha  occ. eigenvalues --   -0.76681  -0.76363  -0.75203  -0.75201  -0.74850
 Alpha  occ. eigenvalues --   -0.74610  -0.72879  -0.71992  -0.71873  -0.71358
 Alpha  occ. eigenvalues --   -0.71208  -0.70939  -0.70603  -0.69761  -0.69496
 Alpha  occ. eigenvalues --   -0.69491  -0.66951  -0.66800  -0.66235  -0.66124
 Alpha  occ. eigenvalues --   -0.64096  -0.63498  -0.63492  -0.62657  -0.62492
 Alpha  occ. eigenvalues --   -0.62248  -0.61621  -0.61269  -0.60215  -0.60035
 Alpha  occ. eigenvalues --   -0.59921  -0.59726  -0.59399  -0.59227  -0.58786
 Alpha  occ. eigenvalues --   -0.58720  -0.57096  -0.56407  -0.55270  -0.54366
 Alpha  occ. eigenvalues --   -0.54159  -0.54010  -0.53632  -0.53578  -0.53121
 Alpha  occ. eigenvalues --   -0.52999  -0.52538  -0.52433  -0.52289  -0.52077
 Alpha  occ. eigenvalues --   -0.51140  -0.50843  -0.50214  -0.50139  -0.49704
 Alpha  occ. eigenvalues --   -0.49627  -0.48905  -0.48817  -0.48730  -0.48436
 Alpha  occ. eigenvalues --   -0.48352  -0.48104  -0.48037  -0.47916  -0.47773
 Alpha  occ. eigenvalues --   -0.47422  -0.47246  -0.47223  -0.46901  -0.46748
 Alpha  occ. eigenvalues --   -0.46616  -0.46211  -0.46107  -0.45717  -0.45485
 Alpha  occ. eigenvalues --   -0.45339  -0.45235  -0.44988  -0.44759  -0.44623
 Alpha  occ. eigenvalues --   -0.44551  -0.44391  -0.44276  -0.44227  -0.43988
 Alpha  occ. eigenvalues --   -0.43930  -0.43755  -0.43565  -0.43487  -0.43389
 Alpha  occ. eigenvalues --   -0.43264  -0.43147  -0.42877  -0.42874  -0.42619
 Alpha  occ. eigenvalues --   -0.42384  -0.42267  -0.42212  -0.42029  -0.41614
 Alpha  occ. eigenvalues --   -0.41277  -0.41272  -0.41049  -0.40990  -0.40829
 Alpha  occ. eigenvalues --   -0.40816  -0.40656  -0.40609  -0.40347  -0.40220
 Alpha  occ. eigenvalues --   -0.40095  -0.40034  -0.40020  -0.39939  -0.39817
 Alpha  occ. eigenvalues --   -0.39584  -0.39532  -0.39452  -0.39159  -0.38888
 Alpha  occ. eigenvalues --   -0.38876  -0.38814  -0.38809  -0.38521  -0.38258
 Alpha  occ. eigenvalues --   -0.38082  -0.37897  -0.37866  -0.37711  -0.37512
 Alpha  occ. eigenvalues --   -0.37391  -0.37387  -0.37191  -0.37081  -0.36870
 Alpha  occ. eigenvalues --   -0.36708  -0.36467  -0.36423  -0.36320  -0.36111
 Alpha  occ. eigenvalues --   -0.35857  -0.35730  -0.35373  -0.35358  -0.35106
 Alpha  occ. eigenvalues --   -0.35034  -0.34907  -0.34827  -0.34427  -0.34198
 Alpha  occ. eigenvalues --   -0.33963  -0.33428  -0.33043  -0.32917  -0.32449
 Alpha  occ. eigenvalues --   -0.32255  -0.31744  -0.31557  -0.31427  -0.31354
 Alpha  occ. eigenvalues --   -0.30878  -0.30491  -0.29695  -0.29656  -0.29271
 Alpha  occ. eigenvalues --   -0.28867  -0.28709  -0.28090  -0.27270  -0.27227
 Alpha  occ. eigenvalues --   -0.26778  -0.26402  -0.26335  -0.25955  -0.25711
 Alpha  occ. eigenvalues --   -0.25316  -0.24943  -0.24696  -0.20876  -0.20825
 Alpha  occ. eigenvalues --   -0.18955  -0.18787
 Alpha virt. eigenvalues --   -0.11102  -0.11070  -0.05481  -0.05397  -0.04397
 Alpha virt. eigenvalues --   -0.03923  -0.02525  -0.02286  -0.00941  -0.00175
 Alpha virt. eigenvalues --    0.00879   0.01060   0.01253   0.01611   0.01785

 Mulliken charges:
               1
     1  Mg  12.004680
     2  C    5.980280
     3  C    6.000902
     4  C    6.025923
     5  C    5.993855
     6  N    6.988630
     7  C    6.032549
     8  C    5.984722
     9  C    6.010895
    10  C    5.969524
    11  C    6.004218
    12  C    5.997278
    13  C    5.997923
    14  H    1.005779
    15  N    7.007039
    16  C    5.967230
    17  C    5.981826
    18  C    5.980961
    19  C    5.973842
    20  C    6.005730
    21  C    5.986999
    22  O    7.971012
    23  C    6.004610
    24  N    7.010074
    25  C    5.958936
    26  C    6.005891
    27  C    5.992670
    28  C    6.027316
    29  C    6.002776
    30  C    5.997909
    31  C    5.999858
    32  N    6.999688
    33  C    6.028491
    34  C    6.030919
    35  C    6.000703
    36  C    6.030502
    37  C    5.999950
    38  C    6.018184
    39  O    8.026811
    40  C    6.001362
    41  C    6.000887
    42  O    8.007793
    43  O    8.000828
    44  C    5.997407
    45  H    0.987434
    46  H    0.997022
    47  H    1.009749
    48  H    1.000908
    49  H    1.000823
    50  H    0.987284
    51  H    1.004472
    52  H    0.993470
    53  H    1.008638
    54  H    0.998822
    55  H    0.995369
    56  H    0.999999
    57  H    0.982537
    58  H    0.985003
    59  H    0.981991
    60  H    0.994658
    61  H    0.992901
    62  H    0.986323
    63  H    1.000282
    64  H    1.002501
    65  H    1.006099
    66  H    0.992595
    67  H    0.996856
    68  H    0.996198
    69  H    1.010572
    70  H    0.996825
    71  H    1.006015
    72  H    0.999050
    73  H    1.019481
    74  H    1.014271
    75  H    1.017552
    76  H    1.007995
    77  H    1.006047
    78  H    1.004062
    79  H    1.000841
    80  Mg  11.999996
    81  C    5.999943
    82  C    6.000157
    83  C    6.000057
    84  C    5.999889
    85  N    6.999955
    86  C    6.000197
    87  C    5.999958
    88  C    6.000062
    89  C    5.999752
    90  C    5.999997
    91  C    5.999977
    92  C    5.999965
    93  H    1.000067
    94  N    7.000088
    95  C    5.999753
    96  C    5.999876
    97  C    5.999952
    98  C    5.999784
    99  C    5.999978
   100  C    5.999915
   101  O    7.999878
   102  C    6.000009
   103  N    6.999983
   104  C    5.999749
   105  C    6.000091
   106  C    5.999957
   107  C    6.000213
   108  C    6.000005
   109  C    5.999981
   110  C    5.999975
   111  N    6.999954
   112  C    6.000276
   113  C    6.000153
   114  C    6.000104
   115  C    6.000088
   116  C    6.000028
   117  C    6.000070
   118  O    8.000215
   119  C    6.000026
   120  C    6.000007
   121  O    8.000051
   122  O    8.000014
   123  C    5.999984
   124  H    0.999951
   125  H    0.999948
   126  H    1.000042
   127  H    0.999997
   128  H    1.000007
   129  H    1.000019
   130  H    0.999971
   131  H    0.999945
   132  H    1.000051
   133  H    0.999990
   134  H    0.999999
   135  H    1.000007
   136  H    0.999908
   137  H    0.999906
   138  H    0.999911
   139  H    0.999950
   140  H    0.999952
   141  H    0.999920
   142  H    0.999959
   143  H    0.999985
   144  H    1.000030
   145  H    0.999949
   146  H    0.999974
   147  H    1.000019
   148  H    1.000045
   149  H    1.000026
   150  H    1.000003
   151  H    0.999978
   152  H    1.000077
   153  H    1.000093
   154  H    1.000092
   155  H    1.000073
   156  H    1.000010
   157  H    1.000052
   158  H    1.000034
 Sum of Mulliken charges = 624.00000

 Dipole moment (field-independent basis, Debye):
    X=              4.4441    Y=             -9.0967    Z=             -0.5068  Tot=             10.1369
 Quadrupole moment (field-independent basis, Debye-Ang):
   XX=            270.7104   YY=            -10.6586   ZZ=              1.1171
   XY=           -278.7336   XZ=            -10.5543   YZ=             -3.5163

 Normal termination of Gaussian 16 at Fri Oct 15 13:15:54 2021.
