 Gaussian 16, Revision A.03,
 Gaussian 16:  ES64L-G16RevA.03 25-Dec-2016

 --------------------------------------------------------
 #p PBE1PBE/Def2SVP td=(nstates=5) density=(transition=1)
 --------------------------------------------------------

 --------------------------------
 TDDFT excited states in gaussian
 --------------------------------
 Symbolic Z-matrix:
 Charge =  0 Multiplicity = 1

                         Standard orientation:
 ---------------------------------------------------------------------
 Center     Atomic      Atomic             Coordinates (Angstroms)
 Number     Number       Type             X           Y           Z
 ---------------------------------------------------------------------
      1         12           0       -9.551165    0.330174    0.511206
      2          6           0       -8.932732   -2.366591   -1.472476
      3          6           0       -6.799535   -0.606306    2.403502
      4          6           0       -9.934353    3.189976    2.227976
      5          6           0      -11.875105    1.544573   -1.836198
      6          7           0       -7.882097   -1.173655    0.299817
      7          6           0       -7.916839   -2.184811   -0.591098
      8          6           0       -6.711702   -3.049525   -0.518352
      9          6           0       -6.222967   -2.675935    1.015946
     10          6           0       -7.015231   -1.381409    1.295313
     11          6           0       -6.470876   -3.833096    2.028128
     12          6           0       -5.704247   -2.615671   -1.571237
     13          6           0       -5.212567   -1.094812   -1.602447
     14          1           0       -3.752296   -0.762109   -1.882294
     15          7           0       -8.524716    1.179521    2.084898
     16          6           0       -7.485155    0.571140    2.832870
     17          6           0       -7.269377    1.382876    3.983814
     18          6           0       -8.096148    2.499192    3.958616
     19          6           0       -8.944646    2.342226    2.765304
     20          6           0       -6.220266    0.937390    4.982162
     21          6           0       -8.085213    3.674823    4.906243
     22          8           0       -7.234101    3.621359    5.828722
     23          6           0       -8.789016    4.900725    4.730569
     24          7           0      -10.592751    2.207453    0.093869
     25          6           0      -10.633849    3.210703    1.016966
     26          6           0      -11.537678    4.373515    0.541926
     27          6           0      -12.151637    3.806379   -0.782233
     28          6           0      -11.448783    2.464638   -0.901081
     29          6           0      -12.563967    4.799925    1.569769
     30          6           0      -11.881414    4.806094   -2.029265
     31          6           0      -13.082517    4.974674   -2.966767
     32          7           0      -10.336804   -0.246460   -1.348841
     33          6           0      -11.388683    0.205338   -2.079641
     34          6           0      -11.703267   -0.819730   -3.037319
     35          6           0      -10.799658   -1.923017   -2.853627
     36          6           0       -9.975828   -1.495519   -1.825523
     37          6           0      -12.616092   -0.656334   -4.204075
     38          6           0      -10.322695   -3.190470   -3.305415
     39          8           0      -10.835971   -3.846214   -4.220787
     40          6           0       -9.140701   -3.529567   -2.416161
     41          6           0       -9.422580   -4.811025   -1.724639
     42          8           0       -9.665879   -5.800929   -2.386352
     43          8           0       -9.291463   -4.765945   -0.370255
     44          6           0       -9.544664   -6.031178    0.321835
     45          1           0       -6.125766   -1.040447    3.144973
     46          1           0      -10.205529    3.987037    2.923152
     47          1           0      -12.707231    1.765400   -2.508429
     48          1           0       -6.838245   -4.122610   -0.662148
     49          1           0       -5.136062   -2.601678    1.069986
     50          1           0       -5.530273   -4.131896    2.489377
     51          1           0       -6.841827   -4.681032    1.451755
     52          1           0       -7.207351   -3.612114    2.801794
     53          1           0       -6.094886   -2.938693   -2.536422
     54          1           0       -4.908264   -3.348314   -1.438558
     55          1           0       -5.383313   -0.523560   -0.689872
     56          1           0       -5.768466   -0.704586   -2.454476
     57          1           0       -5.275049    1.320962    4.597597
     58          1           0       -6.170634   -0.150760    4.979200
     59          1           0       -6.363312    1.261933    6.013283
     60          1           0       -8.259839    5.740216    5.182592
     61          1           0       -9.841599    4.844324    5.011017
     62          1           0       -8.698715    5.118627    3.667260
     63          1           0      -10.822104    5.168621    0.329599
     64          1           0      -13.204396    3.574350   -0.622265
     65          1           0      -12.457520    4.305185    2.534804
     66          1           0      -13.625641    4.838240    1.327378
     67          1           0      -12.225749    5.802111    1.834693
     68          1           0      -11.047636    4.505136   -2.663655
     69          1           0      -11.553277    5.791794   -1.699862
     70          1           0      -13.497207    5.969571   -2.806839
     71          1           0      -13.859588    4.277895   -2.651785
     72          1           0      -12.822578    4.852128   -4.018316
     73          1           0      -13.682812   -0.569594   -4.001010
     74          1           0      -12.420396   -1.520388   -4.840185
     75          1           0      -12.396962    0.247236   -4.773076
     76          1           0       -8.288728   -3.661518   -3.083758
     77          1           0       -8.858416   -6.774847   -0.084300
     78          1           0      -10.585489   -6.351649    0.273475
     79          1           0       -9.449247   -5.904701    1.400160
     80         12           0        9.709504    0.550036   -0.149861
     81          6           0        8.374313   -2.400112    0.835334
     82          6           0        6.521910    1.791996   -0.751129
     83          6           0       11.045596    3.498556   -1.141101
     84          6           0       12.877523   -0.839337   -0.022016
     85          7           0        7.769006   -0.213645    0.141367
     86          6           0        7.407570   -1.464129    0.524828
     87          6           0        5.926560   -1.584509    0.772859
     88          6           0        5.332181   -0.343361    0.004892
     89          6           0        6.639669    0.491598   -0.192783
     90          6           0        4.462544   -0.552330   -1.304621
     91          6           0        5.576698   -1.484952    2.325740
     92          6           0        4.226139   -2.175298    2.678225
     93          1           0        3.091131   -2.312289    1.649568
     94          7           0        8.926954    2.408188   -0.939331
     95          6           0        7.542944    2.688135   -1.085412
     96          6           0        7.376238    4.023110   -1.575664
     97          6           0        8.706454    4.556664   -1.719882
     98          6           0        9.612981    3.455359   -1.234866
     99          6           0        6.063379    4.695112   -1.777015
    100          6           0        9.148333    5.931013   -2.210073
    101          8           0       10.343873    6.290963   -2.419600
    102          6           0        8.098795    6.988752   -2.506487
    103          7           0       11.657431    1.218676   -0.594380
    104          6           0       11.993611    2.556167   -0.809494
    105          6           0       13.508905    2.876264   -0.658860
    106          6           0       14.036840    1.392433   -0.237783
    107          6           0       12.824503    0.535224   -0.249223
    108          6           0       14.048978    3.385758   -2.001314
    109          6           0       14.813888    1.353227    1.045021
    110          6           0       16.183984    0.755656    0.897704
    111          7           0       10.540835   -1.192111    0.172936
    112          6           0       11.846173   -1.664006    0.233580
    113          6           0       11.853658   -3.036302    0.582428
    114          6           0       10.505636   -3.429943    0.798146
    115          6           0        9.738900   -2.255613    0.644515
    116          6           0       13.006288   -3.948284    0.760330
    117          6           0        9.628067   -4.553486    1.043008
    118          8           0        9.782281   -5.750672    1.185918
    119          6           0        8.191079   -3.852277    1.142516
    120          6           0        7.122238   -4.657738    0.495983
    121          8           0        7.189656   -5.222518   -0.565758
    122          8           0        6.007952   -4.754665    1.237725
    123          6           0        4.913745   -5.545317    0.605590
    124          1           0        5.501613    2.018343   -1.068098
    125          1           0       11.460970    4.404368   -1.587480
    126          1           0       13.842002   -1.320739    0.152165
    127          1           0        5.488337   -2.445028    0.267599
    128          1           0        4.737770    0.239231    0.707980
    129          1           0        4.318207   -1.625748   -1.427819
    130          1           0        4.843322   -0.136774   -2.236239
    131          1           0        3.523494   -0.024057   -1.138564
    132          1           0        5.582824   -0.414526    2.532039
    133          1           0        6.386902   -1.971130    2.869295
    134          1           0        3.883577   -1.586525    3.529363
    135          1           0        4.484980   -3.141816    3.109787
    136          1           0        5.608127    5.124637   -0.884572
    137          1           0        5.423192    3.941302   -2.233591
    138          1           0        6.072644    5.419606   -2.590798
    139          1           0        7.747766    6.783776   -3.517741
    140          1           0        8.644247    7.932097   -2.497566
    141          1           0        7.247533    6.973648   -1.825651
    142          1           0       13.572632    3.688943    0.064836
    143          1           0       14.715713    1.036537   -1.013483
    144          1           0       13.367640    3.309336   -2.848943
    145          1           0       15.028095    2.941318   -2.178349
    146          1           0       14.178183    4.461374   -1.877655
    147          1           0       14.347872    0.734041    1.811645
    148          1           0       14.938488    2.320667    1.531637
    149          1           0       16.966822    1.362363    1.351967
    150          1           0       16.452238    0.631075   -0.151065
    151          1           0       16.076144   -0.254221    1.294544
    152          1           0       13.880241   -3.742300    0.141652
    153          1           0       12.669205   -4.867670    0.280709
    154          1           0       13.272322   -4.011327    1.815540
    155          1           0        8.073453   -3.962132    2.220960
    156          1           0        5.089858   -6.619567    0.676968
    157          1           0        4.677764   -5.186556   -0.396400
    158          1           0        3.997246   -5.363156    1.167327
 ---------------------------------------------------------------------

 SCF Done:  E(RPBE1PBE) =  -4067.37809256     A.U. after   17 cycles

 Excitation energies and oscillator strengths:

 Excited State   1:      Singlet-A      1.7040 eV  727.60 nm  f=0.0000  <S**2>=0.000
     312 -> 313        0.70708
 This state for optimization and/or second-order correction.
 Total Energy, E(TD-HF/TD-DFT) =  -4067.31547127
 Copying the excited state density for this state as the 1-particle RhoCI density.

 Excited State   2:      Singlet-A      1.8022 eV  687.95 nm  f=0.3687  <S**2>=0.000
     310 -> 316       -0.16349
     312 -> 314        0.69731
     312 <- 314       -0.11958

 Excited State   3:      Singlet-A      1.8908 eV  655.72 nm  f=0.3765  <S**2>=0.000
     309 -> 315        0.16992
     311 -> 313        0.69186
     311 <- 313       -0.10819

 Excited State   4:      Singlet-A      1.9968 eV  620.91 nm  f=0.0000  <S**2>=0.000
     311 -> 314        0.70709

 Excited State   5:      Singlet-A      2.2078 eV  561.58 nm  f=0.1110  <S**2>=0.000
     309 -> 313        0.65125
     310 -> 314        0.10863
     311 -> 315       -0.21753

 The electronic state is 1-A.
 Alpha  occ. eigenvalues --  -46.92647 -46.90566 -19.27204 -19.25811 -19.19902
 Alpha  occ. eigenvalues --  -19.19442 -19.19002 -19.18839 -19.18721 -19.18427
 Alpha  occ. eigenvalues --  -14.42293 -14.41743 -14.41665 -14.41300 -14.39562
 Alpha  occ. eigenvalues --  -14.39133 -14.38553 -14.38498 -10.36664 -10.35603
 Alpha  occ. eigenvalues --  -10.32335 -10.32275 -10.31997 -10.31886 -10.30113
 Alpha  occ. eigenvalues --  -10.29406 -10.29327 -10.29121 -10.28923 -10.28853
 Alpha  occ. eigenvalues --  -10.28675 -10.28496 -10.28457 -10.28245 -10.28209
 Alpha  occ. eigenvalues --  -10.28048 -10.27731 -10.27560 -10.27307 -10.26918
 Alpha  occ. eigenvalues --  -10.26848 -10.26682 -10.26518 -10.26414 -10.26409
 Alpha  occ. eigenvalues --  -10.26373 -10.26354 -10.26324 -10.26241 -10.26093
 Alpha  occ. eigenvalues --  -10.26082 -10.26004 -10.25883 -10.25868 -10.25862
 Alpha  occ. eigenvalues --  -10.25512 -10.25485 -10.25477 -10.25363 -10.25362
 Alpha  occ. eigenvalues --  -10.25217 -10.25154 -10.25135 -10.25086 -10.25073
 Alpha  occ. eigenvalues --  -10.25058 -10.25053 -10.24827 -10.24656 -10.24559
 Alpha  occ. eigenvalues --  -10.24315 -10.24129 -10.23982 -10.23829 -10.23649
 Alpha  occ. eigenvalues --  -10.23273 -10.23225 -10.23213 -10.23108 -10.23057
 Alpha  occ. eigenvalues --  -10.22998 -10.22992 -10.22986 -10.22710 -10.22630
 Alpha  occ. eigenvalues --  -10.22562  -3.14683  -3.12995  -1.87498  -1.87075
 Alpha  occ. eigenvalues --   -1.86888  -1.85830  -1.85350  -1.85266  -1.12358
 Alpha  occ. eigenvalues --   -1.12109  -1.04883  -1.04048  -1.03134  -1.03037
 Alpha  occ. eigenvalues --   -1.02105  -1.02083  -0.99745  -0.99314  -0.99103
 Alpha  occ. eigenvalues --   -0.98235  -0.97723  -0.97351  -0.96156  -0.96047
 Alpha  occ. eigenvalues --   -0.88709  -0.87738  -0.84018  -0.83710  -0.83476
 Alpha  occ. eigenvalues --   -0.83233  -0.83100  -0.82848  -0.82274  -0.82025
 Alpha  occ. eigenvalues --   -0.81530  -0.80714  -0.80699  -0.80346  -0.79567
 Alpha  occ. eigenvalues --   -0.78662  -0.78606  -0.78087  -0.77681  -0.77234
 Alpha  occ. eigenvalues --   -0.76770  -0.75968  -0.75891  -0.75438  -0.75404
 Alpha  occ. eigenvalues --   -0.74754  -0.73138  -0.72601  -0.72423  -0.72111
 Alpha  occ. eigenvalues --   -0.71658  -0.71539  -0.70856  -0.70647  -0.69593
 Alpha  occ. eigenvalues --   -0.69465  -0.67342  -0.67177  -0.66727  -0.66296
 Alpha  occ. eigenvalues --   -0.64634  -0.63794  -0.63510  -0.63392  -0.63052
 Alpha  occ. eigenvalues --   -0.62596  -0.61713  -0.61129  -0.61113  -0.60282
 Alpha  occ. eigenvalues --   -0.60002  -0.59933  -0.59795  -0.59322  -0.59086
 Alpha  occ. eigenvalues --   -0.58684  -0.58575  -0.56919  -0.54954  -0.54876
 Alpha  occ. eigenvalues --   -0.54452  -0.54412  -0.54011  -0.53551  -0.53401
 Alpha  occ. eigenvalues --   -0.53178  -0.53001  -0.52843  -0.52545  -0.52318
 Alpha  occ. eigenvalues --   -0.51455  -0.51309  -0.50684  -0.50594  -0.49896
 Alpha  occ. eigenvalues --   -0.49892  -0.49754  -0.49580  -0.49301  -0.49043
 Alpha  occ. eigenvalues --   -0.48600  -0.48528  -0.47971  -0.47962  -0.47867
 Alpha  occ. eigenvalues --   -0.47615  -0.47479  -0.47147  -0.47108  -0.46900
 Alpha  occ. eigenvalues --   -0.46671  -0.46656  -0.46609  -0.46574  -0.46217
 Alpha  occ. eigenvalues --   -0.45947  -0.45895  -0.45744  -0.45692  -0.44979
 Alpha  occ. eigenvalues --   -0.44935  -0.44661  -0.44418  -0.44370  -0.44245
 Alpha  occ. eigenvalues --   -0.44227  -0.43964  -0.43585  -0.43546  -0.43513
 Alpha  occ. eigenvalues --   -0.43478  -0.43358  -0.43081  -0.42959  -0.42859
 Alpha  occ. eigenvalues --   -0.42693  -0.42432  -0.42375  -0.42012  -0.41939
 Alpha  occ. eigenvalues --   -0.41830  -0.41651  -0.41403  -0.41341  -0.41302
 Alpha  occ. eigenvalues --   -0.41191  -0.41057  -0.40925  -0.40687  -0.40686
 Alpha  occ. eigenvalues --   -0.40595  -0.40178  -0.39990  -0.39763  -0.39743
 Alpha  occ. eigenvalues --   -0.39639  -0.39601  -0.39561  -0.39484  -0.39368
 Alpha  occ. eigenvalues --   -0.38871  -0.38710  -0.38596  -0.38494  -0.38407
 Alpha  occ. eigenvalues --   -0.38115  -0.37998  -0.37859  -0.37548  -0.37305
 Alpha  occ. eigenvalues --   -0.37255  -0.37248  -0.37143  -0.36940  -0.36832
 Alpha  occ. eigenvalues --   -0.36814  -0.36782  -0.36295  -0.36288  -0.36229
 Alpha  occ. eigenvalues --   -0.35993  -0.35913  -0.35753  -0.35434  -0.35343
 Alpha  occ. eigenvalues --   -0.35298  -0.35270  -0.34963  -0.34663  -0.34275
 Alpha  occ. eigenvalues --   -0.33868  -0.33260  -0.33001  -0.32993  -0.32860
 Alpha  occ. eigenvalues --   -0.32654  -0.32654  -0.32241  -0.32128  -0.32057
 Alpha  occ. eigenvalues --   -0.31620  -0.31229  -0.29936  -0.29829  -0.29401
 Alpha  occ. eigenvalues --   -0.29362  -0.28722  -0.28440  -0.27547  -0.27004
 Alpha  occ. eigenvalues --   -0.25945  -0.25766  -0.25589  -0.25535  -0.25526
 Alpha  occ. eigenvalues --   -0.25432  -0.25197  -0.24974  -0.21375  -0.21199
 Alpha  occ. eigenvalues --   -0.19431  -0.18705
 Alpha virt. eigenvalues --   -0.11746  -0.11404  -0.05580  -0.05136  -0.04211
 Alpha virt. eigenvalues --   -0.04088  -0.02527  -0.02137  -0.01543   0.00101
 Alpha virt. eigenvalues --    0.00363   0.00797   0.01116   0.01178   0.01243

 Mulliken charges:
               1
     1  Mg  12.000000
     2  C    6.000000
     3  C    6.000000
     4  C    6.000000
     5  C    6.000000
     6  N    7.000000
     7  C    6.000000
     8  C    6.000000
     9  C    6.000000
    10  C    6.000000
    11  C    6.000000
    12  C    6.000000
    13  C    6.000000
    14  H    1.000000
    15  N    7.000000
    16  C    6.000000
    17  C    6.000000
    18  C    6.000000
    19  C    6.000000
    20  C    6.000000
    21  C    6.000000
    22  O    8.000000
    23  C    6.000000
    24  N    7.000000
    25  C    6.000000
    26  C    6.000000
    27  C    6.000000
    28  C    6.000000
    29  C    6.000000
    30  C    6.000000
    31  C    6.000000
    32  N    7.000000
    33  C    6.000000
    34  C    6.000000
    35  C    6.000000
    36  C    6.000000
    37  C    6.000000
    38  C    6.000000
    39  O    8.000000
    40  C    6.000000
    41  C    6.000000
    42  O    8.000000
    43  O    8.000000
    44  C    6.000000
    45  H    1.000000
    46  H    1.000000
    47  H    1.000000
    48  H    1.000000
    49  H    1.000000
    50  H    1.000000
    51  H    1.000000
    52  H    1.000000
    53  H    1.000000
    54  H    1.000000
    55  H    1.000000
    56  H    1.000000
    57  H    1.000000
    58  H    1.000000
    59  H    1.000000
    60  H    1.000000
    61  H    1.000000
    62  H    1.000000
    63  H    1.000000
    64  H    1.000000
    65  H    1.000000
    66  H    1.000000
    67  H    1.000000
    68  H    1.000000
    69  H    1.000000
    70  H    1.000000
    71  H    1.000000
    72  H    1.000000
    73  H    1.000000
    74  H    1.000000
    75  H    1.000000
    76  H    1.000000
    77  H    1.000000
    78  H    1.000000
    79  H    1.000000
    80  Mg  12.000000
    81  C    6.000000
    82  C    6.000000
    83  C    6.000000
    84  C    6.000000
    85  N    7.000000
    86  C    6.000000
    87  C    6.000000
    88  C    6.000000
    89  C    6.000000
    90  C    6.000000
    91  C    6.000000
    92  C    6.000000
    93  H    1.000000
    94  N    7.000000
    95  C    6.000000
    96  C    6.000000
    97  C    6.000000
    98  C    6.000000
    99  C    6.000000
   100  C    6.000000
   101  O    8.000000
   102  C    6.000000
   103  N    7.000000
   104  C    6.000000
   105  C    6.000000
   106  C    6.000000
   107  C    6.000000
   108  C    6.000000
   109  C    6.000000
   110  C    6.000000
   111  N    7.000000
   112  C    6.000000
   113  C    6.000000
   114  C    6.000000
   115  C    6.000000
   116  C    6.000000
   117  C    6.000000
   118  O    8.000000
   119  C    6.000000
   120  C    6.000000
   121  O    8.000000
   122  O    8.000000
   123  C    6.000000
   124  H    1.000000
   125  H    1.000000
   126  H    1.000000
   127  H    1.000000
   128  H    1.000000
   129  H    1.000000
   130  H    1.000000
   131  H    1.000000
   132  H    1.000000
   133  H    1.000000
   134  H    1.000000
   135  H    1.000000
   136  H    1.000000
   137  H    1.000000
   138  H    1.000000
   139  H    1.000000
   140  H    1.000000
   141  H    1.000000
   142  H    1.000000
   143  H    1.000000
   144  H    1.000000
   145  H    1.000000
   146  H    1.000000
   147  H    1.000000
   148  H    1.000000
   149  H    1.000000
   150  H    1.000000
   151  H    1.000000
   152  H    1.000000
   153  H    1.000000
   154  H    1.000000
   155  H    1.000000
   156  H    1.000000
   157  H    1.000000
   158  H    1.000000
 Sum of Mulliken charges = 624.00000

 Dipole moment (field-independent basis, Debye):
    X=              0.0000    Y=             -0.0000    Z=              0.0000  Tot=              0.0000
 Quadrupole moment (field-independent basis, Debye-Ang):
   XX=              0.0001   YY=             -0.0000   ZZ=             -0.0000
   XY=             -0.0000   XZ=              0.0000   YZ=              0.0000

 Normal termination of Gaussian 16 at Thu Oct 14 23:58:23 2021.
