 Gaussian 16, Revision A.03,
 Gaussian 16:  ES64L-G16RevA.03 25-Dec-2016

 --------------------------------------------------------
 #p PBE1PBE/Def2SVP td=(nstates=5) density=(transition=1)
 --------------------------------------------------------

 --------------------------------
 TDDFT excited states in gaussian
 --------------------------------
 Symbolic Z-matrix:
 Charge =  0 Multiplicity = 1

                         Standard orientation:
 ---------------------------------------------------------------------
 Center     Atomic      Atomic             Coordinates (Angstroms)
 Number     Number       Type             X           Y           Z
 ---------------------------------------------------------------------
      1         12           0      -20.273740   -0.544959    0.335593
      2          6           0      -17.644773    1.311688   -1.242698
      3          6           0      -21.190958   -1.661099   -2.613054
      4          6           0      -23.061888   -1.498081    1.852900
      5          6           0      -19.261672    1.150343    3.438883
      6          7           0      -19.463381   -0.238431   -1.685705
      7          6           0      -18.407519    0.578187   -2.137186
      8          6           0      -18.188725    0.530320   -3.696665
      9          6           0      -19.382429   -0.547567   -4.063897
     10          6           0      -20.066972   -0.871513   -2.739713
     11          6           0      -20.426858    0.041290   -5.106428
     12          6           0      -16.746293    0.139636   -4.172807
     13          6           0      -16.626144   -0.306758   -5.625030
     14          1           0      -15.814010    0.643071   -6.524388
     15          7           0      -21.861571   -1.546084   -0.285675
     16          6           0      -22.124579   -1.987804   -1.561067
     17          6           0      -23.361126   -2.736304   -1.641953
     18          6           0      -23.888518   -2.681004   -0.291241
     19          6           0      -22.861376   -1.928032    0.513129
     20          6           0      -23.885178   -3.434266   -2.807541
     21          6           0      -25.159142   -3.280385    0.285939
     22          8           0      -25.437558   -3.270441    1.452174
     23          6           0      -26.118116   -3.827756   -0.737634
     24          7           0      -21.086828   -0.165558    2.351796
     25          6           0      -22.268762   -0.727472    2.710105
     26          6           0      -22.581058   -0.458260    4.206470
     27          6           0      -21.280282    0.269176    4.694684
     28          6           0      -20.450338    0.391857    3.431302
     29          6           0      -23.881654    0.341185    4.558511
     30          6           0      -20.462574   -0.457154    5.820303
     31          6           0      -21.085579   -0.303405    7.225448
     32          7           0      -18.828080    0.917728    1.022172
     33          6           0      -18.499688    1.422166    2.259389
     34          6           0      -17.340134    2.213125    2.138564
     35          6           0      -16.990064    2.265434    0.841546
     36          6           0      -17.941355    1.467003    0.137021
     37          6           0      -16.650229    2.794735    3.365632
     38          6           0      -16.108849    2.809660   -0.196508
     39          8           0      -15.178959    3.570045   -0.114452
     40          6           0      -16.547470    2.200310   -1.612564
     41          6           0      -17.120394    3.321906   -2.418879
     42          8           0      -18.238302    3.781724   -2.481213
     43          8           0      -16.068495    3.766110   -3.195292
     44          6           0      -16.346140    4.882042   -4.130628
     45          1           0      -21.602758   -2.040175   -3.550573
     46          1           0      -24.058200   -1.707817    2.249476
     47          1           0      -19.030460    1.482490    4.453628
     48          1           0      -18.511400    1.488393   -4.104526
     49          1           0      -18.917290   -1.411300   -4.539563
     50          1           0      -20.646759   -0.712984   -5.861792
     51          1           0      -20.202279    0.982607   -5.607304
     52          1           0      -21.397382    0.178402   -4.630569
     53          1           0      -16.507651   -0.622663   -3.430009
     54          1           0      -15.937223    0.853623   -4.017214
     55          1           0      -17.624429   -0.398322   -6.052057
     56          1           0      -16.030966   -1.218837   -5.659817
     57          1           0      -23.816119   -4.459315   -2.443461
     58          1           0      -23.290100   -3.219595   -3.695311
     59          1           0      -24.923851   -3.257503   -3.086115
     60          1           0      -25.936043   -4.894532   -0.867091
     61          1           0      -26.299161   -3.151322   -1.573458
     62          1           0      -27.090631   -3.588146   -0.308553
     63          1           0      -22.478988   -1.428865    4.692780
     64          1           0      -21.523933    1.303752    4.937337
     65          1           0      -23.743570    1.266298    5.118903
     66          1           0      -24.415761   -0.286317    5.271655
     67          1           0      -24.512086    0.605634    3.709564
     68          1           0      -19.461756   -0.029697    5.870195
     69          1           0      -20.387345   -1.492864    5.486113
     70          1           0      -21.741828    0.566524    7.257673
     71          1           0      -20.245235   -0.237543    7.916422
     72          1           0      -21.732511   -1.130170    7.520291
     73          1           0      -15.586990    2.951053    3.183121
     74          1           0      -16.822504    2.129868    4.212082
     75          1           0      -17.142106    3.716975    3.675669
     76          1           0      -15.713713    1.711768   -2.117383
     77          1           0      -15.466706    5.524293   -4.085279
     78          1           0      -17.236717    5.461221   -3.887104
     79          1           0      -16.421024    4.315707   -5.059456
     80         12           0       20.208067    0.537176   -0.142017
     81          6           0       19.233747   -2.797799    0.137618
     82          6           0       16.980405    1.499044    0.593913
     83          6           0       21.363670    3.601308   -0.351723
     84          6           0       23.667420   -0.568105    0.164203
     85          7           0       18.263570   -0.625320    0.263149
     86          6           0       18.103128   -1.979066    0.359354
     87          6           0       16.679174   -2.329591    0.608806
     88          6           0       15.964295   -0.932553    0.798483
     89          6           0       17.126524    0.102837    0.535784
     90          6           0       14.658461   -0.756700   -0.016820
     91          6           0       16.487297   -3.245223    1.842189
     92          6           0       15.654953   -4.474045    1.480173
     93          1           0       14.404739   -4.780217    2.358939
     94          7           0       19.280208    2.316658    0.060373
     95          6           0       17.929265    2.541226    0.321231
     96          6           0       17.757753    3.987014    0.260255
     97          6           0       19.038543    4.639777   -0.055344
     98          6           0       19.991642    3.495292   -0.207100
     99          6           0       16.528938    4.645271    0.645679
    100          6           0       19.208561    6.101896   -0.016037
    101          8           0       18.311509    6.887896    0.206295
    102          6           0       20.523234    6.788548   -0.146464
    103          7           0       22.160689    1.339437   -0.054810
    104          6           0       22.361234    2.636055   -0.455586
    105          6           0       23.840212    2.960423   -0.450020
    106          6           0       24.470364    1.776853    0.183457
    107          6           0       23.399395    0.802933    0.174254
    108          6           0       24.435178    3.409573   -1.847195
    109          6           0       24.851358    2.010067    1.685742
    110          6           0       25.994980    1.261509    2.195238
    111          7           0       21.295805   -1.302583    0.074019
    112          6           0       22.663204   -1.604874    0.115757
    113          6           0       22.834042   -3.013905   -0.052524
    114          6           0       21.546434   -3.535208   -0.007393
    115          6           0       20.618666   -2.439793    0.112894
    116          6           0       24.154841   -3.680209   -0.172205
    117          6           0       20.800980   -4.730528    0.002790
    118          8           0       21.171800   -5.881240   -0.063433
    119          6           0       19.311972   -4.319903    0.038122
    120          6           0       18.624514   -4.906170   -1.123407
    121          8           0       18.559169   -4.401273   -2.256902
    122          8           0       18.197605   -6.176745   -0.812179
    123          6           0       17.399334   -6.935476   -1.761316
    124          1           0       15.927940    1.728437    0.770121
    125          1           0       21.888930    4.559283   -0.379095
    126          1           0       24.719454   -0.853984    0.227426
    127          1           0       16.306483   -2.638739   -0.368140
    128          1           0       15.614127   -0.757113    1.815222
    129          1           0       14.394180   -1.787761   -0.254802
    130          1           0       14.703471   -0.083548   -0.873005
    131          1           0       13.875659   -0.348983    0.622315
    132          1           0       15.903009   -2.793971    2.643900
    133          1           0       17.488560   -3.505558    2.184928
    134          1           0       16.375515   -5.251766    1.732803
    135          1           0       15.463414   -4.429823    0.409060
    136          1           0       15.799228    3.875010    0.896238
    137          1           0       16.030290    5.221684   -0.134128
    138          1           0       16.705890    5.243872    1.539940
    139          1           0       20.905400    6.261832   -1.020909
    140          1           0       21.119791    6.569342    0.739462
    141          1           0       20.396129    7.853690   -0.341106
    142          1           0       23.892566    3.844938    0.183729
    143          1           0       25.274846    1.277091   -0.356221
    144          1           0       23.633299    3.591636   -2.562941
    145          1           0       25.237751    2.778132   -2.229921
    146          1           0       24.856529    4.414316   -1.830241
    147          1           0       23.979346    1.814376    2.309881
    148          1           0       25.092058    3.058261    1.862393
    149          1           0       26.902746    1.828540    1.986148
    150          1           0       26.043524    0.251172    1.787739
    151          1           0       26.002505    1.301349    3.284962
    152          1           0       24.845710   -3.081715   -0.765857
    153          1           0       24.104215   -4.696912   -0.562217
    154          1           0       24.553962   -3.636760    0.841208
    155          1           0       18.762114   -4.788873    0.854210
    156          1           0       17.877699   -7.337864   -2.654321
    157          1           0       16.524179   -6.352501   -2.047555
    158          1           0       17.113981   -7.828805   -1.207003
 ---------------------------------------------------------------------

 SCF Done:  E(RPBE1PBE) =  -4067.35857144     A.U. after   16 cycles

 Excitation energies and oscillator strengths:

 Excited State   1:      Singlet-A      1.8150 eV  683.11 nm  f=0.0000  <S**2>=0.000
     312 -> 313        0.70711
 This state for optimization and/or second-order correction.
 Total Energy, E(TD-HF/TD-DFT) =  -4067.29187132
 Copying the excited state density for this state as the 1-particle RhoCI density.

 Excited State   2:      Singlet-A      1.8373 eV  674.81 nm  f=0.3500  <S**2>=0.000
     309 -> 315       -0.18242
     311 -> 313        0.68966
     311 <- 313       -0.10418

 Excited State   3:      Singlet-A      1.8601 eV  666.53 nm  f=0.3898  <S**2>=0.000
     310 -> 316        0.16831
     312 -> 314        0.69316
     312 <- 314       -0.10828

 Excited State   4:      Singlet-A      2.1516 eV  576.24 nm  f=0.0000  <S**2>=0.000
     311 -> 314        0.70710

 Excited State   5:      Singlet-A      2.1967 eV  564.41 nm  f=0.0978  <S**2>=0.000
     309 -> 313        0.64583
     311 -> 315        0.27300

 The electronic state is 1-A.
 Alpha  occ. eigenvalues --  -46.92305 -46.91989 -19.25505 -19.24489 -19.20076
 Alpha  occ. eigenvalues --  -19.19566 -19.19288 -19.19173 -19.18614 -19.17572
 Alpha  occ. eigenvalues --  -14.41817 -14.41702 -14.41436 -14.40870 -14.39905
 Alpha  occ. eigenvalues --  -14.39275 -14.38839 -14.38515 -10.36075 -10.35931
 Alpha  occ. eigenvalues --  -10.32407 -10.31896 -10.31339 -10.30787 -10.29311
 Alpha  occ. eigenvalues --  -10.29306 -10.29166 -10.28873 -10.28705 -10.28692
 Alpha  occ. eigenvalues --  -10.28673 -10.28605 -10.28405 -10.28232 -10.28113
 Alpha  occ. eigenvalues --  -10.27959 -10.27858 -10.27822 -10.27681 -10.26867
 Alpha  occ. eigenvalues --  -10.26819 -10.26793 -10.26738 -10.26685 -10.26480
 Alpha  occ. eigenvalues --  -10.26442 -10.26385 -10.26192 -10.26182 -10.26140
 Alpha  occ. eigenvalues --  -10.26123 -10.26012 -10.25733 -10.25666 -10.25507
 Alpha  occ. eigenvalues --  -10.25436 -10.25341 -10.25123 -10.25034 -10.24913
 Alpha  occ. eigenvalues --  -10.24771 -10.24758 -10.24746 -10.24708 -10.24695
 Alpha  occ. eigenvalues --  -10.24589 -10.24435 -10.24429 -10.24428 -10.24393
 Alpha  occ. eigenvalues --  -10.24379 -10.24275 -10.24088 -10.23925 -10.23682
 Alpha  occ. eigenvalues --  -10.23654 -10.23387 -10.23261 -10.23023 -10.23015
 Alpha  occ. eigenvalues --  -10.23010 -10.22973 -10.22499 -10.22457 -10.22392
 Alpha  occ. eigenvalues --  -10.22235  -3.14377  -3.14110  -1.87221  -1.86947
 Alpha  occ. eigenvalues --   -1.86760  -1.86590  -1.86465  -1.86357  -1.10402
 Alpha  occ. eigenvalues --   -1.10191  -1.06132  -1.05522  -1.04835  -1.04554
 Alpha  occ. eigenvalues --   -1.02247  -1.01482  -0.99578  -0.98469  -0.98456
 Alpha  occ. eigenvalues --   -0.97991  -0.97616  -0.97128  -0.96201  -0.96153
 Alpha  occ. eigenvalues --   -0.87346  -0.87009  -0.85097  -0.83840  -0.83366
 Alpha  occ. eigenvalues --   -0.83223  -0.82536  -0.82304  -0.82039  -0.81591
 Alpha  occ. eigenvalues --   -0.81484  -0.81189  -0.80538  -0.80374  -0.79514
 Alpha  occ. eigenvalues --   -0.78852  -0.78192  -0.77726  -0.77462  -0.76786
 Alpha  occ. eigenvalues --   -0.76442  -0.76227  -0.75721  -0.75143  -0.75042
 Alpha  occ. eigenvalues --   -0.74425  -0.73001  -0.72431  -0.72272  -0.71398
 Alpha  occ. eigenvalues --   -0.71291  -0.70924  -0.70610  -0.69842  -0.69727
 Alpha  occ. eigenvalues --   -0.69201  -0.67856  -0.67206  -0.66476  -0.65733
 Alpha  occ. eigenvalues --   -0.63960  -0.63788  -0.63462  -0.63124  -0.62334
 Alpha  occ. eigenvalues --   -0.62191  -0.61851  -0.61438  -0.60920  -0.60400
 Alpha  occ. eigenvalues --   -0.59797  -0.59525  -0.59262  -0.59138  -0.58812
 Alpha  occ. eigenvalues --   -0.58458  -0.56604  -0.56012  -0.55286  -0.54633
 Alpha  occ. eigenvalues --   -0.54070  -0.54062  -0.53997  -0.53623  -0.53355
 Alpha  occ. eigenvalues --   -0.52665  -0.52526  -0.52492  -0.51840  -0.51527
 Alpha  occ. eigenvalues --   -0.50976  -0.50702  -0.50378  -0.50160  -0.50027
 Alpha  occ. eigenvalues --   -0.49724  -0.49592  -0.49015  -0.49009  -0.48819
 Alpha  occ. eigenvalues --   -0.48811  -0.48523  -0.48265  -0.47892  -0.47451
 Alpha  occ. eigenvalues --   -0.47302  -0.47082  -0.46950  -0.46753  -0.46525
 Alpha  occ. eigenvalues --   -0.46471  -0.46323  -0.46265  -0.46241  -0.45957
 Alpha  occ. eigenvalues --   -0.45922  -0.45804  -0.45470  -0.45128  -0.44999
 Alpha  occ. eigenvalues --   -0.44828  -0.44638  -0.44425  -0.44239  -0.44179
 Alpha  occ. eigenvalues --   -0.44090  -0.44059  -0.43762  -0.43759  -0.43470
 Alpha  occ. eigenvalues --   -0.43404  -0.43211  -0.43091  -0.43077  -0.42653
 Alpha  occ. eigenvalues --   -0.42482  -0.42413  -0.42286  -0.41823  -0.41766
 Alpha  occ. eigenvalues --   -0.41709  -0.41482  -0.41424  -0.41260  -0.41016
 Alpha  occ. eigenvalues --   -0.41013  -0.40868  -0.40584  -0.40486  -0.40405
 Alpha  occ. eigenvalues --   -0.40225  -0.40070  -0.39991  -0.39919  -0.39773
 Alpha  occ. eigenvalues --   -0.39737  -0.39630  -0.39488  -0.39315  -0.39230
 Alpha  occ. eigenvalues --   -0.38862  -0.38732  -0.38645  -0.38507  -0.38282
 Alpha  occ. eigenvalues --   -0.38206  -0.38079  -0.38009  -0.37875  -0.37798
 Alpha  occ. eigenvalues --   -0.37631  -0.37427  -0.37401  -0.36944  -0.36924
 Alpha  occ. eigenvalues --   -0.36727  -0.36597  -0.36442  -0.36351  -0.36132
 Alpha  occ. eigenvalues --   -0.36041  -0.35938  -0.35784  -0.35619  -0.35572
 Alpha  occ. eigenvalues --   -0.35365  -0.35137  -0.34350  -0.34070  -0.33787
 Alpha  occ. eigenvalues --   -0.33508  -0.33099  -0.32774  -0.32664  -0.32300
 Alpha  occ. eigenvalues --   -0.32078  -0.32007  -0.31494  -0.31426  -0.31382
 Alpha  occ. eigenvalues --   -0.31229  -0.30656  -0.29515  -0.29401  -0.29124
 Alpha  occ. eigenvalues --   -0.28908  -0.28257  -0.28212  -0.27016  -0.26867
 Alpha  occ. eigenvalues --   -0.25776  -0.25755  -0.25681  -0.25481  -0.25472
 Alpha  occ. eigenvalues --   -0.25353  -0.25037  -0.24310  -0.21247  -0.20568
 Alpha  occ. eigenvalues --   -0.19208  -0.18596
 Alpha virt. eigenvalues --   -0.11599  -0.10975  -0.05953  -0.04719  -0.03932
 Alpha virt. eigenvalues --   -0.03309  -0.02033  -0.01773  -0.00235  -0.00175
 Alpha virt. eigenvalues --   -0.00034   0.00758   0.00820   0.01237   0.01408

 Mulliken charges:
               1
     1  Mg  12.000000
     2  C    6.000000
     3  C    6.000000
     4  C    6.000000
     5  C    6.000000
     6  N    7.000000
     7  C    6.000000
     8  C    6.000000
     9  C    6.000000
    10  C    6.000000
    11  C    6.000000
    12  C    6.000000
    13  C    6.000000
    14  H    1.000000
    15  N    7.000000
    16  C    6.000000
    17  C    6.000000
    18  C    6.000000
    19  C    6.000000
    20  C    6.000000
    21  C    6.000000
    22  O    8.000000
    23  C    6.000000
    24  N    7.000000
    25  C    6.000000
    26  C    6.000000
    27  C    6.000000
    28  C    6.000000
    29  C    6.000000
    30  C    6.000000
    31  C    6.000000
    32  N    7.000000
    33  C    6.000000
    34  C    6.000000
    35  C    6.000000
    36  C    6.000000
    37  C    6.000000
    38  C    6.000000
    39  O    8.000000
    40  C    6.000000
    41  C    6.000000
    42  O    8.000000
    43  O    8.000000
    44  C    6.000000
    45  H    1.000000
    46  H    1.000000
    47  H    1.000000
    48  H    1.000000
    49  H    1.000000
    50  H    1.000000
    51  H    1.000000
    52  H    1.000000
    53  H    1.000000
    54  H    1.000000
    55  H    1.000000
    56  H    1.000000
    57  H    1.000000
    58  H    1.000000
    59  H    1.000000
    60  H    1.000000
    61  H    1.000000
    62  H    1.000000
    63  H    1.000000
    64  H    1.000000
    65  H    1.000000
    66  H    1.000000
    67  H    1.000000
    68  H    1.000000
    69  H    1.000000
    70  H    1.000000
    71  H    1.000000
    72  H    1.000000
    73  H    1.000000
    74  H    1.000000
    75  H    1.000000
    76  H    1.000000
    77  H    1.000000
    78  H    1.000000
    79  H    1.000000
    80  Mg  12.000000
    81  C    6.000000
    82  C    6.000000
    83  C    6.000000
    84  C    6.000000
    85  N    7.000000
    86  C    6.000000
    87  C    6.000000
    88  C    6.000000
    89  C    6.000000
    90  C    6.000000
    91  C    6.000000
    92  C    6.000000
    93  H    1.000000
    94  N    7.000000
    95  C    6.000000
    96  C    6.000000
    97  C    6.000000
    98  C    6.000000
    99  C    6.000000
   100  C    6.000000
   101  O    8.000000
   102  C    6.000000
   103  N    7.000000
   104  C    6.000000
   105  C    6.000000
   106  C    6.000000
   107  C    6.000000
   108  C    6.000000
   109  C    6.000000
   110  C    6.000000
   111  N    7.000000
   112  C    6.000000
   113  C    6.000000
   114  C    6.000000
   115  C    6.000000
   116  C    6.000000
   117  C    6.000000
   118  O    8.000000
   119  C    6.000000
   120  C    6.000000
   121  O    8.000000
   122  O    8.000000
   123  C    6.000000
   124  H    1.000000
   125  H    1.000000
   126  H    1.000000
   127  H    1.000000
   128  H    1.000000
   129  H    1.000000
   130  H    1.000000
   131  H    1.000000
   132  H    1.000000
   133  H    1.000000
   134  H    1.000000
   135  H    1.000000
   136  H    1.000000
   137  H    1.000000
   138  H    1.000000
   139  H    1.000000
   140  H    1.000000
   141  H    1.000000
   142  H    1.000000
   143  H    1.000000
   144  H    1.000000
   145  H    1.000000
   146  H    1.000000
   147  H    1.000000
   148  H    1.000000
   149  H    1.000000
   150  H    1.000000
   151  H    1.000000
   152  H    1.000000
   153  H    1.000000
   154  H    1.000000
   155  H    1.000000
   156  H    1.000000
   157  H    1.000000
   158  H    1.000000
 Sum of Mulliken charges = 624.00000

 Dipole moment (field-independent basis, Debye):
    X=              0.0000    Y=             -0.0000    Z=             -0.0000  Tot=              0.0000
 Quadrupole moment (field-independent basis, Debye-Ang):
   XX=              0.0000   YY=             -0.0000   ZZ=             -0.0000
   XY=             -0.0000   XZ=              0.0000   YZ=              0.0000

 Normal termination of Gaussian 16 at Thu Oct 14 13:00:33 2021.
