 Gaussian 16, Revision A.03,
 Gaussian 16:  ES64L-G16RevA.03 25-Dec-2016

 --------------------------------------------------------
 #p PBE1PBE/Def2SVP td=(nstates=5) density=(transition=1)
 --------------------------------------------------------

 --------------------------------
 TDDFT excited states in gaussian
 --------------------------------
 Symbolic Z-matrix:
 Charge =  0 Multiplicity = 1

                         Standard orientation:
 ---------------------------------------------------------------------
 Center     Atomic      Atomic             Coordinates (Angstroms)
 Number     Number       Type             X           Y           Z
 ---------------------------------------------------------------------
      1         12           0       -0.620606    0.037434   -0.381047
      2          6           0        2.798559    0.046990    0.137388
      3          6           0       -0.591678   -3.486459    0.036274
      4          6           0       -4.046190   -0.004190   -0.304848
      5          6           0       -0.701978    3.489542   -0.307985
      6          7           0        0.969454   -1.506895   -0.092808
      7          6           0        2.291035   -1.237633    0.194748
      8          6           0        3.112261   -2.497202    0.662417
      9          6           0        2.115656   -3.676238    0.237195
     10          6           0        0.710186   -2.892321   -0.013429
     11          6           0        2.494395   -4.605010   -0.978675
     12          6           0        3.447678   -2.534801    2.111896
     13          6           0        4.892020   -2.549336    2.574332
     14          1           0        5.163395   -3.246946    3.916887
     15          7           0       -2.122854   -1.555956   -0.256720
     16          6           0       -1.841491   -2.930533   -0.143782
     17          6           0       -3.059604   -3.674746   -0.194645
     18          6           0       -4.126712   -2.641499   -0.136320
     19          6           0       -3.467989   -1.301143   -0.218202
     20          6           0       -3.145142   -5.195940   -0.032233
     21          6           0       -5.612281   -3.030905   -0.041825
     22          8           0       -6.081298   -4.163559    0.023324
     23          6           0       -6.570442   -1.953092    0.323622
     24          7           0       -2.236045    1.592333   -0.131100
     25          6           0       -3.526018    1.282770   -0.320261
     26          6           0       -4.329288    2.531930    0.039045
     27          6           0       -3.289950    3.745827   -0.036077
     28          6           0       -1.943517    2.909113   -0.200162
     29          6           0       -5.449946    2.765016   -1.035276
     30          6           0       -3.202650    4.783575    1.157235
     31          6           0       -3.599125    6.237464    0.948356
     32          7           0        0.790294    1.533575   -0.211844
     33          6           0        0.623928    2.921853   -0.233799
     34          6           0        1.884553    3.567233   -0.028781
     35          6           0        2.807977    2.488526    0.133233
     36          6           0        2.044952    1.269200   -0.044801
     37          6           0        2.183051    5.032005    0.035004
     38          6           0        4.150043    2.116529    0.316750
     39          8           0        5.115438    2.841517    0.450941
     40          6           0        4.199661    0.542274    0.410375
     41          6           0        5.318331    0.058681   -0.413866
     42          8           0        6.377494   -0.340558    0.056675
     43          8           0        4.996190    0.152617   -1.759563
     44          6           0        6.097791   -0.277302   -2.649878
     45          1           0       -0.702817   -4.570167    0.105668
     46          1           0       -5.131438   -0.113950   -0.363593
     47          1           0       -0.753678    4.578370   -0.244840
     48          1           0        4.028921   -2.568257    0.077970
     49          1           0        1.944463   -4.272311    1.134291
     50          1           0        3.544052   -4.419719   -1.206468
     51          1           0        1.884895   -4.457493   -1.870317
     52          1           0        2.312563   -5.631016   -0.660938
     53          1           0        3.043628   -3.473150    2.494804
     54          1           0        3.016904   -1.669957    2.615312
     55          1           0        5.194277   -1.516400    2.744439
     56          1           0        5.562842   -3.054548    1.879824
     57          1           0       -2.260798   -5.794044    0.186420
     58          1           0       -3.642511   -5.492016   -0.955518
     59          1           0       -3.958193   -5.321395    0.682113
     60          1           0       -7.038661   -1.359039   -0.460044
     61          1           0       -6.177056   -1.297796    1.100901
     62          1           0       -7.430374   -2.457464    0.765904
     63          1           0       -4.783003    2.473804    1.028683
     64          1           0       -3.391278    4.268066   -0.986801
     65          1           0       -6.381118    2.914471   -0.488775
     66          1           0       -5.572310    1.966387   -1.768020
     67          1           0       -5.270174    3.639294   -1.661336
     68          1           0       -2.160738    4.729774    1.472098
     69          1           0       -3.901958    4.409767    1.906409
     70          1           0       -3.061075    6.789442    1.719432
     71          1           0       -4.665233    6.344404    1.149758
     72          1           0       -3.364975    6.737579    0.009184
     73          1           0        3.258082    5.109570    0.199560
     74          1           0        1.574355    5.450006    0.836220
     75          1           0        1.967065    5.590562   -0.875924
     76          1           0        4.461435    0.358091    1.452869
     77          1           0        6.735354    0.572391   -2.893855
     78          1           0        5.619941   -0.769352   -3.496990
     79          1           0        6.705506   -1.058791   -2.194630
 ---------------------------------------------------------------------

 SCF Done:  E(RPBE1PBE) =  -2033.67439310     A.U. after   16 cycles

 Excitation energies and oscillator strengths:

 Excited State   1:      Singlet-A      1.8585 eV  667.14 nm  f=0.3604  <S**2>=0.000
     155 ->158        -0.17008
     156 ->157         0.69191
     156 <-157        -0.10674
 This state for optimization and/or second-order correction.
 Total Energy, E(TD-HF/TD-DFT) =  -2033.60609623
 Copying the excited state density for this state as the 1-particle RhoCI density.

 Excited State   2:      Singlet-A      2.1844 eV  567.59 nm  f=0.1543  <S**2>=0.000
     155 ->157         0.65889
     156 ->158         0.23357

 Excited State   3:      Singlet-A      2.7266 eV  454.73 nm  f=0.0121  <S**2>=0.000
     154 ->157         0.69414

 Excited State   4:      Singlet-A      2.7835 eV  445.42 nm  f=0.0002  <S**2>=0.000
     153 ->157         0.68394
     153 ->159         0.12573

 Excited State   5:      Singlet-A      2.8812 eV  430.32 nm  f=0.0004  <S**2>=0.000
     152 ->157         0.67875
     152 ->159        -0.13746

 The electronic state is 1-A.
 Alpha  occ. eigenvalues --  -46.93870 -19.25834 -19.20151 -19.19169 -19.18801
 Alpha  occ. eigenvalues --  -14.42964 -14.41557 -14.39641 -14.39638 -10.36210
 Alpha  occ. eigenvalues --  -10.32252 -10.31545 -10.30687 -10.29555 -10.29518
 Alpha  occ. eigenvalues --  -10.29254 -10.28783 -10.28777 -10.28216 -10.27819
 Alpha  occ. eigenvalues --  -10.27242 -10.27197 -10.27016 -10.26520 -10.26499
 Alpha  occ. eigenvalues --  -10.26299 -10.26289 -10.26225 -10.26106 -10.25782
 Alpha  occ. eigenvalues --  -10.25685 -10.25628 -10.25145 -10.25128 -10.24750
 Alpha  occ. eigenvalues --  -10.24391 -10.24135 -10.23840 -10.23700 -10.23674
 Alpha  occ. eigenvalues --  -10.23399 -10.22968 -10.22639  -3.15672  -1.88539
 Alpha  occ. eigenvalues --   -1.88020  -1.87895  -1.10354  -1.04766  -1.04641
 Alpha  occ. eigenvalues --   -1.02384  -0.99682  -0.98777  -0.97063  -0.96268
 Alpha  occ. eigenvalues --   -0.87054  -0.83783  -0.83643  -0.82498  -0.82027
 Alpha  occ. eigenvalues --   -0.81722  -0.79959  -0.78730  -0.78224  -0.77160
 Alpha  occ. eigenvalues --   -0.76382  -0.75273  -0.75127  -0.72265  -0.71489
 Alpha  occ. eigenvalues --   -0.71194  -0.70527  -0.69873  -0.68033  -0.66744
 Alpha  occ. eigenvalues --   -0.63786  -0.63564  -0.62427  -0.61544  -0.60083
 Alpha  occ. eigenvalues --   -0.59905  -0.59776  -0.59329  -0.57611  -0.54825
 Alpha  occ. eigenvalues --   -0.54398  -0.54031  -0.53694  -0.52461  -0.51511
 Alpha  occ. eigenvalues --   -0.51155  -0.50518  -0.50029  -0.49359  -0.48517
 Alpha  occ. eigenvalues --   -0.48301  -0.47833  -0.47404  -0.47344  -0.47040
 Alpha  occ. eigenvalues --   -0.46714  -0.46148  -0.45964  -0.45695  -0.44983
 Alpha  occ. eigenvalues --   -0.44820  -0.44324  -0.44189  -0.43655  -0.43550
 Alpha  occ. eigenvalues --   -0.43362  -0.42976  -0.42684  -0.42354  -0.41941
 Alpha  occ. eigenvalues --   -0.41776  -0.41465  -0.41350  -0.40818  -0.40770
 Alpha  occ. eigenvalues --   -0.40522  -0.40375  -0.40176  -0.39984  -0.39458
 Alpha  occ. eigenvalues --   -0.39327  -0.39039  -0.38689  -0.38504  -0.37792
 Alpha  occ. eigenvalues --   -0.37552  -0.37297  -0.37049  -0.36439  -0.36404
 Alpha  occ. eigenvalues --   -0.36048  -0.35324  -0.34966  -0.34678  -0.34420
 Alpha  occ. eigenvalues --   -0.33386  -0.32886  -0.32467  -0.32221  -0.31794
 Alpha  occ. eigenvalues --   -0.30946  -0.29792  -0.29370  -0.28779  -0.27449
 Alpha  occ. eigenvalues --   -0.26119  -0.25828  -0.25572  -0.25040  -0.21591
 Alpha  occ. eigenvalues --   -0.19777
 Alpha virt. eigenvalues --   -0.12157  -0.05876  -0.04153  -0.02243  -0.00413
 Alpha virt. eigenvalues --    0.00356   0.00607   0.01760   0.02316   0.03370
 Alpha virt. eigenvalues --    0.04232   0.05387   0.05880   0.06421   0.06730

 Mulliken charges:
               1
     1  Mg  12.002305
     2  C    6.021932
     3  C    6.002694
     4  C    5.969673
     5  C    5.996448
     6  N    7.014952
     7  C    5.971072
     8  C    6.010208
     9  C    5.995770
    10  C    6.027132
    11  C    5.996005
    12  C    5.998787
    13  C    6.001732
    14  H    0.996557
    15  N    6.989633
    16  C    6.035414
    17  C    6.018040
    18  C    6.010662
    19  C    6.039611
    20  C    5.998563
    21  C    6.011067
    22  O    8.019736
    23  C    5.994582
    24  N    6.990878
    25  C    6.033757
    26  C    5.991036
    27  C    6.003815
    28  C    5.976950
    29  C    5.998025
    30  C    6.004059
    31  C    6.000695
    32  N    7.002564
    33  C    5.965117
    34  C    5.975200
    35  C    5.998237
    36  C    5.969779
    37  C    5.999543
    38  C    5.983285
    39  O    7.969372
    40  C    5.996494
    41  C    5.995179
    42  O    7.993200
    43  O    8.002110
    44  C    6.002683
    45  H    1.012968
    46  H    0.999645
    47  H    0.987029
    48  H    1.002643
    49  H    1.001802
    50  H    1.013767
    51  H    1.000353
    52  H    1.002092
    53  H    0.992015
    54  H    1.004865
    55  H    1.006574
    56  H    0.998864
    57  H    1.015396
    58  H    1.015532
    59  H    1.013259
    60  H    1.013356
    61  H    1.009798
    62  H    1.010190
    63  H    1.000598
    64  H    0.999190
    65  H    0.999666
    66  H    0.994634
    67  H    1.006297
    68  H    1.006327
    69  H    0.989463
    70  H    0.999245
    71  H    0.992850
    72  H    0.999484
    73  H    0.988707
    74  H    0.983550
    75  H    0.981876
    76  H    0.994712
    77  H    1.000109
    78  H    0.993875
    79  H    0.994718
 Sum of Mulliken charges = 312.00000

 Dipole moment (field-independent basis, Debye):
    X=             -5.8466    Y=             -8.2492    Z=             -0.2135  Tot=             10.1132
 Quadrupole moment (field-independent basis, Debye-Ang):
   XX=              5.7315   YY=              0.6261   ZZ=             -0.3787
   XY=              5.8384   XZ=              0.3922   YZ=              0.6556

 Normal termination of Gaussian 16 at Wed Oct 13 19:50:59 2021.
