 Gaussian 16, Revision A.03,
 Gaussian 16:  ES64L-G16RevA.03 25-Dec-2016

 --------------------------------------------------------
 #p PBE1PBE/Def2SVP td=(nstates=5) density=(transition=1)
 --------------------------------------------------------

 --------------------------------
 TDDFT excited states in gaussian
 --------------------------------
 Symbolic Z-matrix:
 Charge =  0 Multiplicity = 1

                         Standard orientation:
 ---------------------------------------------------------------------
 Center     Atomic      Atomic             Coordinates (Angstroms)
 Number     Number       Type             X           Y           Z
 ---------------------------------------------------------------------
      1         12           0       13.557023   -0.551394    0.186477
      2          6           0       11.453923    2.198402   -0.354858
      3          6           0       16.310114    1.535387   -0.589297
      4          6           0       15.586256   -3.268152    0.362308
      5          6           0       10.772958   -2.593453    0.189324
      6          7           0       13.806537    1.611648   -0.226939
      7          6           0       12.772679    2.552358   -0.212856
      8          6           0       13.388073    3.991177   -0.072306
      9          6           0       14.888874    3.729531   -0.243978
     10          6           0       15.023947    2.176113   -0.414558
     11          6           0       15.434000    4.495135   -1.479665
     12          6           0       12.952946    4.577718    1.265091
     13          6           0       12.842902    6.089256    1.380557
     14          1           0       13.470637    6.955635    0.265332
     15          7           0       15.652471   -0.874576   -0.054549
     16          6           0       16.602399    0.104953   -0.401291
     17          6           0       17.924095   -0.485080   -0.521212
     18          6           0       17.801891   -1.890864   -0.185849
     19          6           0       16.302627   -2.064197    0.038161
     20          6           0       19.211076    0.316395   -0.754786
     21          6           0       18.851541   -2.979602   -0.071295
     22          8           0       18.530019   -4.116321    0.248385
     23          6           0       20.280171   -2.597805   -0.142069
     24          7           0       13.185989   -2.645857    0.333797
     25          6           0       14.197815   -3.545252    0.484486
     26          6           0       13.610554   -4.944606    0.805366
     27          6           0       12.047132   -4.731289    0.818053
     28          6           0       11.950943   -3.209197    0.537990
     29          6           0       14.090392   -5.977106   -0.230403
     30          6           0       11.352857   -5.063315    2.165589
     31          6           0       10.679571   -6.428137    2.059477
     32          7           0       11.498565   -0.360054   -0.135683
     33          6           0       10.477964   -1.250095   -0.182392
     34          6           0        9.278188   -0.522486   -0.662901
     35          6           0        9.568190    0.810325   -0.641296
     36          6           0       10.956860    0.847263   -0.355234
     37          6           0        7.955819   -1.235473   -0.890326
     38          6           0        9.057236    2.178441   -0.799821
     39          8           0        7.931078    2.553804   -1.102665
     40          6           0       10.243840    3.083578   -0.530617
     41          6           0       10.291154    4.017721   -1.666514
     42          8           0       10.709305    3.854091   -2.820686
     43          8           0        9.687955    5.190835   -1.261538
     44          6           0        9.562781    6.234796   -2.255321
     45          1           0       17.138709    2.227182   -0.753171
     46          1           0       16.317116   -4.066408    0.507752
     47          1           0        9.956852   -3.315291    0.114998
     48          1           0       12.938679    4.480407   -0.937329
     49          1           0       15.373589    4.220634    0.599749
     50          1           0       15.732166    3.863661   -2.316759
     51          1           0       16.415252    4.870762   -1.190966
     52          1           0       14.716660    5.219304   -1.865316
     53          1           0       13.647443    4.142622    1.984391
     54          1           0       12.002045    4.130035    1.551588
     55          1           0       13.239587    6.392824    2.348422
     56          1           0       11.760545    6.217550    1.417728
     57          1           0       19.041526    1.368437   -0.984830
     58          1           0       19.769133   -0.113425   -1.587681
     59          1           0       19.866937    0.175913    0.103595
     60          1           0       20.513585   -1.968695    0.717269
     61          1           0       20.540443   -2.233885   -1.135983
     62          1           0       20.936176   -3.456083    0.003579
     63          1           0       14.018619   -5.258247    1.765933
     64          1           0       11.679909   -5.284308   -0.047469
     65          1           0       13.317006   -6.514648   -0.778294
     66          1           0       14.573518   -6.683098    0.444731
     67          1           0       14.697980   -5.564370   -1.035263
     68          1           0       10.473935   -4.432956    2.301828
     69          1           0       12.026575   -5.049537    3.022546
     70          1           0       10.986550   -6.936218    2.973525
     71          1           0       11.093159   -7.072712    1.284246
     72          1           0        9.592513   -6.409559    1.976792
     73          1           0        8.009266   -2.324395   -0.903258
     74          1           0        7.463981   -0.923082   -1.810711
     75          1           0        7.329784   -1.076656   -0.011576
     76          1           0       10.061188    3.594913    0.413958
     77          1           0        9.106755    5.792173   -3.141257
     78          1           0       10.515687    6.680513   -2.541481
     79          1           0        8.721684    6.837139   -1.913725
     80         12           0      -13.252742   -0.732724   -0.117784
     81          6           0      -11.906980    2.235663    0.995554
     82          6           0      -15.566968    1.167192   -2.067901
     83          6           0      -14.818286   -3.494736   -0.944244
     84          6           0      -11.082338   -2.535358    1.932436
     85          7           0      -13.614277    1.453047   -0.442273
     86          6           0      -12.924924    2.468203    0.086713
     87          6           0      -13.446943    3.808224   -0.526892
     88          6           0      -14.716923    3.391907   -1.401581
     89          6           0      -14.673767    1.858061   -1.260595
     90          6           0      -16.078124    3.818974   -0.886910
     91          6           0      -12.388042    4.629339   -1.277994
     92          6           0      -12.363459    6.071571   -0.800441
     93          1           0      -11.890923    7.204144   -1.723535
     94          7           0      -14.907781   -1.097156   -1.402469
     95          6           0      -15.678231   -0.240217   -2.134325
     96          6           0      -16.628638   -0.908072   -2.906080
     97          6           0      -16.539785   -2.291982   -2.523679
     98          6           0      -15.367404   -2.357720   -1.584127
     99          6           0      -17.574936   -0.219819   -3.879065
    100          6           0      -17.437576   -3.453070   -2.918895
    101          8           0      -17.286079   -4.544683   -2.336847
    102          6           0      -18.548516   -3.291825   -3.874488
    103          7           0      -12.946404   -2.674894    0.401979
    104          6           0      -13.692634   -3.713578   -0.115762
    105          6           0      -13.294549   -5.137939    0.422495
    106          6           0      -11.914235   -4.771080    1.117355
    107          6           0      -11.981359   -3.234131    1.179024
    108          6           0      -14.240709   -5.947713    1.394337
    109          6           0      -10.575398   -5.426733    0.547282
    110          6           0      -10.037730   -4.809900   -0.716892
    111          7           0      -11.901044   -0.320783    1.284784
    112          6           0      -11.074741   -1.109958    2.061999
    113          6           0      -10.217898   -0.347439    2.874626
    114          6           0      -10.498075    0.955912    2.448266
    115          6           0      -11.532747    0.946587    1.467933
    116          6           0       -9.223909   -0.964868    3.763286
    117          6           0      -10.153568    2.283345    2.785442
    118          8           0       -9.404826    2.661264    3.688764
    119          6           0      -11.040899    3.237819    1.828051
    120          6           0      -11.829028    4.136523    2.652916
    121          8           0      -12.815077    3.855184    3.294905
    122          8           0      -11.255185    5.331931    2.712256
    123          6           0      -11.811189    6.328653    3.576672
    124          1           0      -16.302017    1.756459   -2.619326
    125          1           0      -15.235159   -4.487592   -1.123865
    126          1           0      -10.423161   -3.137969    2.560843
    127          1           0      -13.793296    4.307476    0.377472
    128          1           0      -14.595727    3.919034   -2.348576
    129          1           0      -16.048596    4.468695   -0.011700
    130          1           0      -16.648932    2.948017   -0.565988
    131          1           0      -16.678698    4.208060   -1.709671
    132          1           0      -12.484060    4.621336   -2.363867
    133          1           0      -11.421094    4.160121   -1.098007
    134          1           0      -11.626518    6.105033    0.002810
    135          1           0      -13.377694    6.293240   -0.468873
    136          1           0      -17.283118    0.814462   -4.061581
    137          1           0      -18.552406   -0.122608   -3.406107
    138          1           0      -17.724658   -0.822572   -4.774040
    139          1           0      -19.287021   -4.084254   -3.747837
    140          1           0      -18.126847   -3.417977   -4.872157
    141          1           0      -19.029922   -2.323971   -3.736561
    142          1           0      -12.976103   -5.808320   -0.376441
    143          1           0      -11.910932   -5.196279    2.120222
    144          1           0      -15.137823   -5.351080    1.554837
    145          1           0      -13.809866   -5.933037    2.396255
    146          1           0      -14.506384   -6.970493    1.125493
    147          1           0      -10.837386   -6.448562    0.273911
    148          1           0       -9.780038   -5.525960    1.284982
    149          1           0       -8.954171   -4.917609   -0.682503
    150          1           0      -10.288678   -3.787007   -0.994828
    151          1           0      -10.454160   -5.389678   -1.540645
    152          1           0       -8.789567   -1.922578    3.477633
    153          1           0       -9.465003   -0.963916    4.825604
    154          1           0       -8.430500   -0.218708    3.728607
    155          1           0      -10.354450    3.815739    1.209564
    156          1           0      -12.572708    6.930757    3.079713
    157          1           0      -11.001547    7.013273    3.828737
    158          1           0      -12.260846    5.853488    4.448655
 ---------------------------------------------------------------------

 SCF Done:  E(RPBE1PBE) =  -4067.38769775     A.U. after   16 cycles

 Excitation energies and oscillator strengths:

 Excited State   1:      Singlet-A      1.7981 eV  689.53 nm  f=0.0000  <S**2>=0.000
     312 -> 313        0.70710
 This state for optimization and/or second-order correction.
 Total Energy, E(TD-HF/TD-DFT) =  -4067.32161859
 Copying the excited state density for this state as the 1-particle RhoCI density.

 Excited State   2:      Singlet-A      1.8262 eV  678.93 nm  f=0.4216  <S**2>=0.000
     310 -> 315       -0.16135
     312 -> 314        0.69335
     312 <- 314       -0.11128

 Excited State   3:      Singlet-A      1.8681 eV  663.67 nm  f=0.3675  <S**2>=0.000
     309 -> 316        0.16520
     311 -> 313        0.69196
     311 <- 313       -0.11095

 Excited State   4:      Singlet-A      2.0279 eV  611.40 nm  f=0.0000  <S**2>=0.000
     311 -> 314        0.70709

 Excited State   5:      Singlet-A      2.2008 eV  563.37 nm  f=0.1117  <S**2>=0.000
     310 -> 314        0.65552
     312 -> 315        0.24488

 The electronic state is 1-A.
 Alpha  occ. eigenvalues --  -46.92501 -46.91050 -19.25359 -19.25136 -19.20052
 Alpha  occ. eigenvalues --  -19.19620 -19.19214 -19.18854 -19.18748 -19.18372
 Alpha  occ. eigenvalues --  -14.41786 -14.41699 -14.41625 -14.41246 -14.39674
 Alpha  occ. eigenvalues --  -14.39281 -14.38917 -14.38618 -10.36396 -10.35166
 Alpha  occ. eigenvalues --  -10.32644 -10.32389 -10.31894 -10.31640 -10.29562
 Alpha  occ. eigenvalues --  -10.29170 -10.28867 -10.28848 -10.28818 -10.28628
 Alpha  occ. eigenvalues --  -10.28532 -10.28509 -10.28356 -10.28333 -10.28196
 Alpha  occ. eigenvalues --  -10.27994 -10.27890 -10.27339 -10.26954 -10.26935
 Alpha  occ. eigenvalues --  -10.26745 -10.26738 -10.26526 -10.26486 -10.26345
 Alpha  occ. eigenvalues --  -10.26079 -10.26063 -10.25924 -10.25844 -10.25827
 Alpha  occ. eigenvalues --  -10.25788 -10.25738 -10.25676 -10.25567 -10.25524
 Alpha  occ. eigenvalues --  -10.25496 -10.25494 -10.25445 -10.25430 -10.25356
 Alpha  occ. eigenvalues --  -10.25206 -10.25147 -10.25009 -10.24939 -10.24862
 Alpha  occ. eigenvalues --  -10.24776 -10.24400 -10.24370 -10.24206 -10.24101
 Alpha  occ. eigenvalues --  -10.23965 -10.23866 -10.23846 -10.23775 -10.23616
 Alpha  occ. eigenvalues --  -10.23609 -10.23479 -10.23169 -10.23050 -10.22998
 Alpha  occ. eigenvalues --  -10.22957 -10.22731 -10.22663 -10.22467 -10.22396
 Alpha  occ. eigenvalues --  -10.22326  -3.14482  -3.13409  -1.87336  -1.86814
 Alpha  occ. eigenvalues --   -1.86736  -1.86250  -1.85802  -1.85637  -1.12637
 Alpha  occ. eigenvalues --   -1.10575  -1.04988  -1.04838  -1.03593  -1.03116
 Alpha  occ. eigenvalues --   -1.02515  -1.01696  -0.99233  -0.99144  -0.98316
 Alpha  occ. eigenvalues --   -0.97882  -0.97383  -0.97193  -0.97157  -0.96162
 Alpha  occ. eigenvalues --   -0.87806  -0.86391  -0.83612  -0.83504  -0.83067
 Alpha  occ. eigenvalues --   -0.82972  -0.82566  -0.82195  -0.81893  -0.81839
 Alpha  occ. eigenvalues --   -0.81442  -0.81050  -0.81017  -0.79940  -0.78811
 Alpha  occ. eigenvalues --   -0.78577  -0.78129  -0.78077  -0.77177  -0.77016
 Alpha  occ. eigenvalues --   -0.76475  -0.76423  -0.75504  -0.75243  -0.74921
 Alpha  occ. eigenvalues --   -0.74367  -0.72552  -0.72245  -0.71611  -0.71603
 Alpha  occ. eigenvalues --   -0.71169  -0.71109  -0.70279  -0.70220  -0.69577
 Alpha  occ. eigenvalues --   -0.68890  -0.67870  -0.67004  -0.65836  -0.65440
 Alpha  occ. eigenvalues --   -0.63951  -0.63461  -0.63253  -0.62872  -0.62333
 Alpha  occ. eigenvalues --   -0.62115  -0.61416  -0.61415  -0.59800  -0.59791
 Alpha  occ. eigenvalues --   -0.59377  -0.59299  -0.59159  -0.59094  -0.58843
 Alpha  occ. eigenvalues --   -0.58452  -0.56846  -0.56732  -0.54894  -0.54556
 Alpha  occ. eigenvalues --   -0.54539  -0.54227  -0.53570  -0.53529  -0.53314
 Alpha  occ. eigenvalues --   -0.53109  -0.52990  -0.52780  -0.52246  -0.52156
 Alpha  occ. eigenvalues --   -0.51080  -0.50556  -0.50514  -0.50295  -0.49631
 Alpha  occ. eigenvalues --   -0.49615  -0.49298  -0.49114  -0.48871  -0.48164
 Alpha  occ. eigenvalues --   -0.48066  -0.48012  -0.47855  -0.47747  -0.47723
 Alpha  occ. eigenvalues --   -0.47505  -0.47437  -0.47257  -0.46868  -0.46749
 Alpha  occ. eigenvalues --   -0.46585  -0.46511  -0.46354  -0.46333  -0.46002
 Alpha  occ. eigenvalues --   -0.45822  -0.45397  -0.44876  -0.44813  -0.44743
 Alpha  occ. eigenvalues --   -0.44469  -0.44316  -0.44236  -0.44138  -0.44025
 Alpha  occ. eigenvalues --   -0.44005  -0.43852  -0.43763  -0.43696  -0.43641
 Alpha  occ. eigenvalues --   -0.43494  -0.43248  -0.43030  -0.42860  -0.42770
 Alpha  occ. eigenvalues --   -0.42481  -0.42397  -0.42061  -0.41955  -0.41692
 Alpha  occ. eigenvalues --   -0.41582  -0.41456  -0.41192  -0.41067  -0.41058
 Alpha  occ. eigenvalues --   -0.40802  -0.40751  -0.40567  -0.40185  -0.40156
 Alpha  occ. eigenvalues --   -0.39971  -0.39825  -0.39674  -0.39650  -0.39465
 Alpha  occ. eigenvalues --   -0.39263  -0.39219  -0.39160  -0.39150  -0.39023
 Alpha  occ. eigenvalues --   -0.38617  -0.38401  -0.38357  -0.38236  -0.38161
 Alpha  occ. eigenvalues --   -0.38017  -0.37937  -0.37806  -0.37657  -0.37477
 Alpha  occ. eigenvalues --   -0.37330  -0.37328  -0.37255  -0.36818  -0.36738
 Alpha  occ. eigenvalues --   -0.36369  -0.36289  -0.36267  -0.36142  -0.36059
 Alpha  occ. eigenvalues --   -0.35893  -0.35825  -0.35810  -0.35343  -0.35235
 Alpha  occ. eigenvalues --   -0.34802  -0.34083  -0.33865  -0.33762  -0.33454
 Alpha  occ. eigenvalues --   -0.33065  -0.32977  -0.32929  -0.32743  -0.32689
 Alpha  occ. eigenvalues --   -0.32148  -0.31572  -0.31552  -0.31293  -0.31240
 Alpha  occ. eigenvalues --   -0.31112  -0.30891  -0.29389  -0.29367  -0.29070
 Alpha  occ. eigenvalues --   -0.28818  -0.28414  -0.28233  -0.27056  -0.26906
 Alpha  occ. eigenvalues --   -0.26417  -0.26135  -0.25917  -0.25808  -0.25524
 Alpha  occ. eigenvalues --   -0.25447  -0.25384  -0.25216  -0.21042  -0.20711
 Alpha  occ. eigenvalues --   -0.19042  -0.18556
 Alpha virt. eigenvalues --   -0.11446  -0.11097  -0.05033  -0.04984  -0.04016
 Alpha virt. eigenvalues --   -0.03661  -0.02419  -0.01855  -0.00407   0.00309
 Alpha virt. eigenvalues --    0.00591   0.01109   0.01296   0.01505   0.01823

 Mulliken charges:
               1
     1  Mg  12.000000
     2  C    6.000000
     3  C    6.000000
     4  C    6.000000
     5  C    6.000000
     6  N    7.000000
     7  C    6.000000
     8  C    6.000000
     9  C    6.000000
    10  C    6.000000
    11  C    6.000000
    12  C    6.000000
    13  C    6.000000
    14  H    1.000000
    15  N    7.000000
    16  C    6.000000
    17  C    6.000000
    18  C    6.000000
    19  C    6.000000
    20  C    6.000000
    21  C    6.000000
    22  O    8.000000
    23  C    6.000000
    24  N    7.000000
    25  C    6.000000
    26  C    6.000000
    27  C    6.000000
    28  C    6.000000
    29  C    6.000000
    30  C    6.000000
    31  C    6.000000
    32  N    7.000000
    33  C    6.000000
    34  C    6.000000
    35  C    6.000000
    36  C    6.000000
    37  C    6.000000
    38  C    6.000000
    39  O    8.000000
    40  C    6.000000
    41  C    6.000000
    42  O    8.000000
    43  O    8.000000
    44  C    6.000000
    45  H    1.000000
    46  H    1.000000
    47  H    1.000000
    48  H    1.000000
    49  H    1.000000
    50  H    1.000000
    51  H    1.000000
    52  H    1.000000
    53  H    1.000000
    54  H    1.000000
    55  H    1.000000
    56  H    1.000000
    57  H    1.000000
    58  H    1.000000
    59  H    1.000000
    60  H    1.000000
    61  H    1.000000
    62  H    1.000000
    63  H    1.000000
    64  H    1.000000
    65  H    1.000000
    66  H    1.000000
    67  H    1.000000
    68  H    1.000000
    69  H    1.000000
    70  H    1.000000
    71  H    1.000000
    72  H    1.000000
    73  H    1.000000
    74  H    1.000000
    75  H    1.000000
    76  H    1.000000
    77  H    1.000000
    78  H    1.000000
    79  H    1.000000
    80  Mg  12.000000
    81  C    6.000000
    82  C    6.000000
    83  C    6.000000
    84  C    6.000000
    85  N    7.000000
    86  C    6.000000
    87  C    6.000000
    88  C    6.000000
    89  C    6.000000
    90  C    6.000000
    91  C    6.000000
    92  C    6.000000
    93  H    1.000000
    94  N    7.000000
    95  C    6.000000
    96  C    6.000000
    97  C    6.000000
    98  C    6.000000
    99  C    6.000000
   100  C    6.000000
   101  O    8.000000
   102  C    6.000000
   103  N    7.000000
   104  C    6.000000
   105  C    6.000000
   106  C    6.000000
   107  C    6.000000
   108  C    6.000000
   109  C    6.000000
   110  C    6.000000
   111  N    7.000000
   112  C    6.000000
   113  C    6.000000
   114  C    6.000000
   115  C    6.000000
   116  C    6.000000
   117  C    6.000000
   118  O    8.000000
   119  C    6.000000
   120  C    6.000000
   121  O    8.000000
   122  O    8.000000
   123  C    6.000000
   124  H    1.000000
   125  H    1.000000
   126  H    1.000000
   127  H    1.000000
   128  H    1.000000
   129  H    1.000000
   130  H    1.000000
   131  H    1.000000
   132  H    1.000000
   133  H    1.000000
   134  H    1.000000
   135  H    1.000000
   136  H    1.000000
   137  H    1.000000
   138  H    1.000000
   139  H    1.000000
   140  H    1.000000
   141  H    1.000000
   142  H    1.000000
   143  H    1.000000
   144  H    1.000000
   145  H    1.000000
   146  H    1.000000
   147  H    1.000000
   148  H    1.000000
   149  H    1.000000
   150  H    1.000000
   151  H    1.000000
   152  H    1.000000
   153  H    1.000000
   154  H    1.000000
   155  H    1.000000
   156  H    1.000000
   157  H    1.000000
   158  H    1.000000
 Sum of Mulliken charges = 624.00000

 Dipole moment (field-independent basis, Debye):
    X=              0.0000    Y=             -0.0000    Z=              0.0000  Tot=              0.0000
 Quadrupole moment (field-independent basis, Debye-Ang):
   XX=              0.0000   YY=             -0.0000   ZZ=             -0.0000
   XY=             -0.0000   XZ=             -0.0000   YZ=              0.0000

 Normal termination of Gaussian 16 at Fri Oct 15 02:38:05 2021.
