 Gaussian 16, Revision A.03,
 Gaussian 16:  ES64L-G16RevA.03 25-Dec-2016

 --------------------------------------------------------
 #p PBE1PBE/Def2SVP td=(nstates=5) density=(transition=1)
 --------------------------------------------------------

 --------------------------------
 TDDFT excited states in gaussian
 --------------------------------
 Symbolic Z-matrix:
 Charge =  0 Multiplicity = 1

                         Standard orientation:
 ---------------------------------------------------------------------
 Center     Atomic      Atomic             Coordinates (Angstroms)
 Number     Number       Type             X           Y           Z
 ---------------------------------------------------------------------
      1         12           0       19.653241    0.407447    0.505221
      2          6           0       17.211444   -1.530869   -1.259824
      3          6           0       20.343508    1.943627   -2.594336
      4          6           0       22.367745    1.729413    1.765396
      5          6           0       19.059206   -1.459033    3.284761
      6          7           0       18.811192    0.236663   -1.643083
      7          6           0       17.769601   -0.547413   -2.011333
      8          6           0       17.377872   -0.195668   -3.437047
      9          6           0       18.322733    0.936631   -3.929287
     10          6           0       19.191688    1.086085   -2.665657
     11          6           0       19.135442    0.564619   -5.294260
     12          6           0       15.866004    0.276345   -3.560685
     13          6           0       15.038896   -0.362461   -4.676823
     14          1           0       15.705080   -0.776734   -6.049930
     15          7           0       21.192665    1.634254   -0.328351
     16          6           0       21.253645    2.140837   -1.541619
     17          6           0       22.456461    2.920880   -1.620449
     18          6           0       23.042508    3.036680   -0.334464
     19          6           0       22.237836    2.101457    0.407153
     20          6           0       22.819911    3.755997   -2.847089
     21          6           0       24.130267    3.915400    0.263047
     22          8           0       24.527282    3.792602    1.407301
     23          6           0       24.661051    5.006540   -0.625560
     24          7           0       20.762790   -0.111482    2.147323
     25          6           0       21.771476    0.756923    2.568657
     26          6           0       22.138869    0.582140    4.067315
     27          6           0       20.933797   -0.327813    4.515804
     28          6           0       20.180623   -0.665552    3.229185
     29          6           0       23.538042   -0.031888    4.219770
     30          6           0       19.901488    0.411674    5.491905
     31          6           0       19.910064    0.052905    6.940082
     32          7           0       18.355445   -1.062430    0.983257
     33          6           0       18.255059   -1.756480    2.169663
     34          6           0       17.300106   -2.859516    2.101625
     35          6           0       16.840358   -2.813885    0.737173
     36          6           0       17.592045   -1.806390    0.087711
     37          6           0       16.824130   -3.627011    3.281598
     38          6           0       15.884321   -3.356817   -0.215590
     39          8           0       15.036330   -4.243281   -0.006023
     40          6           0       16.105714   -2.545048   -1.615382
     41          6           0       16.513869   -3.560397   -2.573308
     42          8           0       17.468815   -4.289277   -2.415960
     43          8           0       15.711979   -3.574922   -3.644629
     44          6           0       15.878410   -4.565640   -4.753923
     45          1           0       20.549149    2.503698   -3.508838
     46          1           0       22.964538    2.408030    2.379463
     47          1           0       18.845232   -1.973401    4.223673
     48          1           0       17.557594   -1.082689   -4.044516
     49          1           0       17.770161    1.825858   -4.233146
     50          1           0       18.616650   -0.212889   -5.855090
     51          1           0       20.120605    0.246593   -4.952082
     52          1           0       19.251105    1.458290   -5.907293
     53          1           0       15.721649    1.354189   -3.621029
     54          1           0       15.331151    0.002342   -2.651394
     55          1           0       14.179403    0.253357   -4.942503
     56          1           0       14.608339   -1.234101   -4.183896
     57          1           0       22.530562    4.804557   -2.775144
     58          1           0       22.480066    3.284492   -3.769694
     59          1           0       23.905384    3.707960   -2.930936
     60          1           0       23.910180    5.529861   -1.218298
     61          1           0       25.418293    4.686616   -1.339970
     62          1           0       24.988429    5.839033   -0.002704
     63          1           0       22.124651    1.572845    4.520811
     64          1           0       21.346167   -1.201525    5.020633
     65          1           0       24.115633   -0.075236    3.296504
     66          1           0       23.488740   -1.063306    4.567065
     67          1           0       24.100238    0.537840    4.960392
     68          1           0       18.851844    0.291042    5.224017
     69          1           0       19.983377    1.496886    5.443381
     70          1           0       20.201152    0.914486    7.539594
     71          1           0       20.659091   -0.737581    6.990452
     72          1           0       18.919178   -0.269926    7.259353
     73          1           0       15.777202   -3.909262    3.175652
     74          1           0       17.073717   -3.026091    4.155876
     75          1           0       17.421104   -4.539233    3.319582
     76          1           0       15.184709   -2.077950   -1.961590
     77          1           0       15.946072   -5.569527   -4.334305
     78          1           0       16.779363   -4.389500   -5.342110
     79          1           0       15.119507   -4.484380   -5.531613
     80         12           0      -19.498600   -0.586755   -0.425823
     81          6           0      -19.020613    2.870996    0.309824
     82          6           0      -16.408968   -1.041870    0.696244
     83          6           0      -20.161552   -3.886276   -0.117342
     84          6           0      -22.970631    0.196400   -0.604331
     85          7           0      -17.920151    0.726149    0.264414
     86          6           0      -17.884166    2.129462    0.414189
     87          6           0      -16.506201    2.656963    0.924391
     88          6           0      -15.680493    1.340410    0.978222
     89          6           0      -16.693495    0.263964    0.534315
     90          6           0      -14.439225    1.537964    0.092251
     91          6           0      -16.482059    3.438763    2.308243
     92          6           0      -16.106211    4.915064    2.255364
     93          1           0      -14.919510    5.377321    3.125380
     94          7           0      -18.454467   -2.231542    0.094423
     95          6           0      -17.137618   -2.199262    0.552823
     96          6           0      -16.636095   -3.504927    0.705674
     97          6           0      -17.631739   -4.391867    0.339841
     98          6           0      -18.801651   -3.571594    0.099368
     99          6           0      -15.200729   -3.963205    1.160194
    100          6           0      -17.425662   -5.887734    0.292850
    101          8           0      -16.370309   -6.426145    0.449369
    102          6           0      -18.714435   -6.749329   -0.131889
    103          7           0      -21.304149   -1.699826   -0.294728
    104          6           0      -21.290509   -3.065342   -0.209635
    105          6           0      -22.794315   -3.531835   -0.041543
    106          6           0      -23.688016   -2.310675   -0.315198
    107          6           0      -22.598366   -1.174646   -0.397033
    108          6           0      -23.153124   -4.789450   -0.780899
    109          6           0      -24.588015   -2.059986    0.888384
    110          6           0      -25.857924   -1.286372    0.652096
    111          7           0      -20.749706    1.201130   -0.445724
    112          6           0      -22.112528    1.344056   -0.552975
    113          6           0      -22.462397    2.717952   -0.563290
    114          6           0      -21.274759    3.439361   -0.296268
    115          6           0      -20.291422    2.425764   -0.117255
    116          6           0      -23.815191    3.301550   -0.653384
    117          6           0      -20.611162    4.729586   -0.065254
    118          8           0      -21.089580    5.868991   -0.145223
    119          6           0      -19.109269    4.436148    0.315353
    120          6           0      -18.255590    4.888144   -0.750760
    121          8           0      -18.165195    4.247325   -1.824610
    122          8           0      -17.702810    6.051969   -0.356067
    123          6           0      -16.621849    6.645931   -1.189585
    124          1           0      -15.382992   -1.224942    1.023363
    125          1           0      -20.325939   -4.965183   -0.077074
    126          1           0      -24.004058    0.504344   -0.774629
    127          1           0      -16.069356    3.322454    0.179882
    128          1           0      -15.359885    1.068368    1.983401
    129          1           0      -13.957999    0.564288    0.004840
    130          1           0      -13.698536    2.247479    0.460883
    131          1           0      -14.695404    1.881438   -0.910625
    132          1           0      -15.648032    2.987531    2.845770
    133          1           0      -17.417330    3.278931    2.844842
    134          1           0      -16.997266    5.484744    2.521376
    135          1           0      -15.819229    5.174175    1.235635
    136          1           0      -15.362975   -4.654012    1.987829
    137          1           0      -14.594046   -3.125021    1.502602
    138          1           0      -14.563909   -4.377807    0.378786
    139          1           0      -18.360981   -7.775516   -0.227894
    140          1           0      -19.021923   -6.281021   -1.067199
    141          1           0      -19.392541   -6.561421    0.700501
    142          1           0      -22.855952   -3.786053    1.017192
    143          1           0      -24.316806   -2.350028   -1.204625
    144          1           0      -24.210280   -4.742823   -1.040910
    145          1           0      -22.937966   -5.609108   -0.095067
    146          1           0      -22.517683   -5.005187   -1.639044
    147          1           0      -24.070558   -1.573773    1.715896
    148          1           0      -24.880868   -2.986268    1.382650
    149          1           0      -26.086337   -1.157901   -0.405776
    150          1           0      -25.736325   -0.302810    1.106337
    151          1           0      -26.678395   -1.704100    1.235480
    152          1           0      -24.497096    2.655216   -1.206888
    153          1           0      -23.687134    4.252530   -1.171002
    154          1           0      -24.164261    3.380658    0.376430
    155          1           0      -18.810285    4.790615    1.301804
    156          1           0      -16.822774    7.706417   -1.030761
    157          1           0      -16.647552    6.338892   -2.234717
    158          1           0      -15.645487    6.533827   -0.716947
 ---------------------------------------------------------------------

 SCF Done:  E(RPBE1PBE) =  -4067.37052974     A.U. after   16 cycles

 Excitation energies and oscillator strengths:

 Excited State   1:      Singlet-A      1.8475 eV  671.09 nm  f=0.3851  <S**2>=0.000
     310 -> 316        0.16124
     312 -> 314        0.69482
     312 <- 314       -0.11625
 This state for optimization and/or second-order correction.
 Total Energy, E(TD-HF/TD-DFT) =  -4067.30263569
 Copying the excited state density for this state as the 1-particle RhoCI density.

 Excited State   2:      Singlet-A      1.8689 eV  663.39 nm  f=0.3740  <S**2>=0.000
     309 -> 315        0.16685
     311 -> 313        0.69375
     311 <- 313       -0.10948

 Excited State   3:      Singlet-A      1.9175 eV  646.58 nm  f=0.0000  <S**2>=0.000
     312 -> 313        0.70711

 Excited State   4:      Singlet-A      2.0085 eV  617.30 nm  f=0.0000  <S**2>=0.000
     311 -> 314        0.70710

 Excited State   5:      Singlet-A      2.2073 eV  561.70 nm  f=0.1243  <S**2>=0.000
     310 -> 314        0.66029
     312 -> 316       -0.23223

 The electronic state is 1-A.
 Alpha  occ. eigenvalues --  -46.92047 -46.91943 -19.27168 -19.25851 -19.19941
 Alpha  occ. eigenvalues --  -19.19736 -19.19726 -19.19284 -19.19147 -19.18693
 Alpha  occ. eigenvalues --  -14.41971 -14.41777 -14.41387 -14.41287 -14.39104
 Alpha  occ. eigenvalues --  -14.39096 -14.38731 -14.38248 -10.36516 -10.35438
 Alpha  occ. eigenvalues --  -10.32902 -10.32707 -10.32667 -10.32506 -10.30078
 Alpha  occ. eigenvalues --  -10.29726 -10.29483 -10.29248 -10.29096 -10.28543
 Alpha  occ. eigenvalues --  -10.28504 -10.28446 -10.28266 -10.27983 -10.27976
 Alpha  occ. eigenvalues --  -10.27336 -10.27334 -10.27040 -10.26937 -10.26698
 Alpha  occ. eigenvalues --  -10.26685 -10.26527 -10.26247 -10.26191 -10.26180
 Alpha  occ. eigenvalues --  -10.26046 -10.25933 -10.25915 -10.25868 -10.25831
 Alpha  occ. eigenvalues --  -10.25701 -10.25667 -10.25655 -10.25650 -10.25629
 Alpha  occ. eigenvalues --  -10.25528 -10.25442 -10.25396 -10.25075 -10.25042
 Alpha  occ. eigenvalues --  -10.25035 -10.24733 -10.24715 -10.24630 -10.24546
 Alpha  occ. eigenvalues --  -10.24348 -10.24300 -10.24096 -10.23951 -10.23924
 Alpha  occ. eigenvalues --  -10.23847 -10.23587 -10.23554 -10.23536 -10.23498
 Alpha  occ. eigenvalues --  -10.23444 -10.23439 -10.23343 -10.23342 -10.23303
 Alpha  occ. eigenvalues --  -10.23267 -10.23039 -10.22981 -10.22836 -10.22653
 Alpha  occ. eigenvalues --  -10.22464  -3.14252  -3.14115  -1.87057  -1.86931
 Alpha  occ. eigenvalues --   -1.86632  -1.86486  -1.86469  -1.86365  -1.11430
 Alpha  occ. eigenvalues --   -1.11289  -1.06604  -1.05578  -1.03553  -1.03190
 Alpha  occ. eigenvalues --   -1.02206  -1.02147  -0.99363  -0.98681  -0.98170
 Alpha  occ. eigenvalues --   -0.97873  -0.97757  -0.97485  -0.96587  -0.96381
 Alpha  occ. eigenvalues --   -0.86634  -0.86512  -0.83973  -0.83571  -0.82977
 Alpha  occ. eigenvalues --   -0.82951  -0.82605  -0.82363  -0.81647  -0.81461
 Alpha  occ. eigenvalues --   -0.81292  -0.81028  -0.80833  -0.80773  -0.79054
 Alpha  occ. eigenvalues --   -0.78579  -0.78533  -0.78432  -0.77536  -0.76935
 Alpha  occ. eigenvalues --   -0.76161  -0.76009  -0.75618  -0.75503  -0.75047
 Alpha  occ. eigenvalues --   -0.74516  -0.72590  -0.72094  -0.71992  -0.71655
 Alpha  occ. eigenvalues --   -0.71190  -0.70912  -0.70577  -0.70574  -0.69441
 Alpha  occ. eigenvalues --   -0.69240  -0.67265  -0.66966  -0.66174  -0.65900
 Alpha  occ. eigenvalues --   -0.63548  -0.63186  -0.63033  -0.62251  -0.62227
 Alpha  occ. eigenvalues --   -0.62074  -0.61625  -0.61339  -0.60076  -0.60003
 Alpha  occ. eigenvalues --   -0.59973  -0.59603  -0.59520  -0.59233  -0.59156
 Alpha  occ. eigenvalues --   -0.59036  -0.57021  -0.56855  -0.55058  -0.54650
 Alpha  occ. eigenvalues --   -0.54229  -0.53911  -0.53753  -0.53447  -0.53115
 Alpha  occ. eigenvalues --   -0.53033  -0.52829  -0.52609  -0.52009  -0.51828
 Alpha  occ. eigenvalues --   -0.50941  -0.50695  -0.50567  -0.50198  -0.49770
 Alpha  occ. eigenvalues --   -0.49581  -0.49290  -0.48896  -0.48875  -0.48438
 Alpha  occ. eigenvalues --   -0.48135  -0.47987  -0.47760  -0.47582  -0.47447
 Alpha  occ. eigenvalues --   -0.47422  -0.47039  -0.46937  -0.46897  -0.46745
 Alpha  occ. eigenvalues --   -0.46708  -0.46252  -0.46110  -0.45918  -0.45846
 Alpha  occ. eigenvalues --   -0.45807  -0.45184  -0.45156  -0.45047  -0.45025
 Alpha  occ. eigenvalues --   -0.44818  -0.44762  -0.44539  -0.44494  -0.44354
 Alpha  occ. eigenvalues --   -0.43798  -0.43759  -0.43717  -0.43573  -0.43387
 Alpha  occ. eigenvalues --   -0.43219  -0.43090  -0.43069  -0.42946  -0.42814
 Alpha  occ. eigenvalues --   -0.42697  -0.42439  -0.42209  -0.42040  -0.42000
 Alpha  occ. eigenvalues --   -0.41666  -0.41459  -0.41298  -0.41123  -0.41007
 Alpha  occ. eigenvalues --   -0.40933  -0.40861  -0.40781  -0.40686  -0.40317
 Alpha  occ. eigenvalues --   -0.40049  -0.40046  -0.39910  -0.39899  -0.39569
 Alpha  occ. eigenvalues --   -0.39502  -0.39284  -0.39105  -0.39091  -0.38884
 Alpha  occ. eigenvalues --   -0.38677  -0.38446  -0.38390  -0.38317  -0.38172
 Alpha  occ. eigenvalues --   -0.38123  -0.37901  -0.37780  -0.37666  -0.37666
 Alpha  occ. eigenvalues --   -0.37389  -0.37375  -0.37258  -0.37165  -0.36817
 Alpha  occ. eigenvalues --   -0.36592  -0.36582  -0.36527  -0.36428  -0.36312
 Alpha  occ. eigenvalues --   -0.36210  -0.35929  -0.35533  -0.35463  -0.35209
 Alpha  occ. eigenvalues --   -0.35195  -0.35095  -0.34678  -0.34210  -0.34081
 Alpha  occ. eigenvalues --   -0.33389  -0.33363  -0.33171  -0.32935  -0.32622
 Alpha  occ. eigenvalues --   -0.32209  -0.32017  -0.31771  -0.31497  -0.31282
 Alpha  occ. eigenvalues --   -0.31215  -0.31067  -0.29670  -0.29420  -0.29113
 Alpha  occ. eigenvalues --   -0.28755  -0.28586  -0.28343  -0.27390  -0.26903
 Alpha  occ. eigenvalues --   -0.26479  -0.26151  -0.25854  -0.25778  -0.25585
 Alpha  occ. eigenvalues --   -0.25514  -0.25069  -0.24752  -0.21171  -0.20784
 Alpha  occ. eigenvalues --   -0.18875  -0.18621
 Alpha virt. eigenvalues --   -0.11236  -0.11159  -0.05250  -0.04729  -0.04067
 Alpha virt. eigenvalues --   -0.03717  -0.02347  -0.01680  -0.01014  -0.00519
 Alpha virt. eigenvalues --    0.00002   0.00558   0.00680   0.01089   0.01386

 Mulliken charges:
               1
     1  Mg  12.002063
     2  C    5.981088
     3  C    6.007459
     4  C    6.024741
     5  C    5.994395
     6  N    6.991803
     7  C    6.024081
     8  C    5.990635
     9  C    6.013061
    10  C    5.969271
    11  C    6.000647
    12  C    5.998972
    13  C    5.999263
    14  H    1.006697
    15  N    7.004072
    16  C    5.967183
    17  C    5.974179
    18  C    5.988934
    19  C    5.967718
    20  C    6.002911
    21  C    5.986147
    22  O    7.973654
    23  C    6.007280
    24  N    7.008658
    25  C    5.958423
    26  C    6.009974
    27  C    5.991955
    28  C    6.026039
    29  C    6.003070
    30  C    5.992090
    31  C    5.999762
    32  N    7.002811
    33  C    6.028928
    34  C    6.037777
    35  C    5.998676
    36  C    6.031495
    37  C    5.997450
    38  C    6.015353
    39  O    8.026839
    40  C    6.006317
    41  C    6.004934
    42  O    8.002501
    43  O    8.002003
    44  C    5.998043
    45  H    0.989503
    46  H    0.994620
    47  H    1.011305
    48  H    0.999589
    49  H    0.994720
    50  H    0.987423
    51  H    1.001555
    52  H    0.999750
    53  H    1.007928
    54  H    0.992413
    55  H    1.002037
    56  H    0.994016
    57  H    0.979517
    58  H    0.983566
    59  H    0.984028
    60  H    0.995214
    61  H    0.990746
    62  H    0.986243
    63  H    1.000390
    64  H    1.002794
    65  H    1.004634
    66  H    0.988802
    67  H    0.997538
    68  H    0.994948
    69  H    1.012748
    70  H    1.006732
    71  H    1.002501
    72  H    0.998139
    73  H    1.017083
    74  H    1.017338
    75  H    1.022485
    76  H    1.008707
    77  H    1.000581
    78  H    1.006393
    79  H    1.004660
    80  Mg  12.000000
    81  C    5.999302
    82  C    6.000084
    83  C    6.000649
    84  C    5.999851
    85  N    6.999443
    86  C    6.001006
    87  C    5.999585
    88  C    6.000507
    89  C    5.998937
    90  C    6.000116
    91  C    5.999938
    92  C    5.999935
    93  H    1.000176
    94  N    7.000102
    95  C    5.998884
    96  C    5.999181
    97  C    5.999677
    98  C    5.998839
    99  C    6.000088
   100  C    5.999669
   101  O    7.999308
   102  C    5.999906
   103  N    7.000213
   104  C    5.999037
   105  C    6.000107
   106  C    5.999803
   107  C    6.001039
   108  C    6.000009
   109  C    5.999711
   110  C    5.999973
   111  N    7.000065
   112  C    6.001063
   113  C    6.001025
   114  C    6.000135
   115  C    6.001026
   116  C    5.999937
   117  C    6.000689
   118  O    8.001103
   119  C    6.000076
   120  C    6.000060
   121  O    8.000201
   122  O    8.000042
   123  C    5.999935
   124  H    0.999434
   125  H    0.999795
   126  H    1.000376
   127  H    1.000050
   128  H    0.999856
   129  H    1.000093
   130  H    0.999558
   131  H    0.999688
   132  H    1.000234
   133  H    0.999946
   134  H    0.999881
   135  H    0.999975
   136  H    0.999432
   137  H    0.999352
   138  H    0.999279
   139  H    0.999568
   140  H    0.999778
   141  H    0.999745
   142  H    1.000012
   143  H    1.000150
   144  H    0.999773
   145  H    1.000142
   146  H    1.000074
   147  H    1.000072
   148  H    1.000441
   149  H    1.000028
   150  H    0.999837
   151  H    1.000239
   152  H    1.000627
   153  H    1.000546
   154  H    1.000760
   155  H    1.000377
   156  H    1.000123
   157  H    1.000118
   158  H    1.000206
 Sum of Mulliken charges = 624.00000

 Dipole moment (field-independent basis, Debye):
    X=             -7.0572    Y=             -6.9667    Z=              3.4043  Tot=             10.4846
 Quadrupole moment (field-independent basis, Debye-Ang):
   XX=           -262.1533   YY=             -1.0491   ZZ=              3.8544
   XY=           -150.2323   XZ=             67.7914   YZ=              0.0069

 Normal termination of Gaussian 16 at Thu Oct 14 12:54:05 2021.
