 Gaussian 16, Revision A.03,
 Gaussian 16:  ES64L-G16RevA.03 25-Dec-2016

 --------------------------------------------------------
 #p PBE1PBE/Def2SVP td=(nstates=5) density=(transition=1)
 --------------------------------------------------------

 --------------------------------
 TDDFT excited states in gaussian
 --------------------------------
 Symbolic Z-matrix:
 Charge =  0 Multiplicity = 1

                         Standard orientation:
 ---------------------------------------------------------------------
 Center     Atomic      Atomic             Coordinates (Angstroms)
 Number     Number       Type             X           Y           Z
 ---------------------------------------------------------------------
      1         12           0       20.362011   -0.052059   -0.649250
      2          6           0       17.786639    0.791322    1.721060
      3          6           0       20.874416   -2.895200    1.169495
      4          6           0       22.956479   -0.678239   -2.681023
      5          6           0       19.998018    3.045606   -1.999488
      6          7           0       19.340483   -0.987199    1.284566
      7          6           0       18.307064   -0.436248    1.985232
      8          6           0       17.859759   -1.447451    2.971500
      9          6           0       18.921409   -2.580239    2.907792
     10          6           0       19.856210   -2.166675    1.738353
     11          6           0       19.724280   -2.701410    4.242023
     12          6           0       16.447598   -1.950317    2.805123
     13          6           0       15.829928   -2.803457    3.901288
     14          1           0       14.493311   -2.411402    4.374232
     15          7           0       21.634762   -1.608169   -0.807216
     16          6           0       21.760837   -2.677035    0.122525
     17          6           0       22.755953   -3.607770   -0.442355
     18          6           0       23.385300   -2.914152   -1.472751
     19          6           0       22.689498   -1.627450   -1.655551
     20          6           0       23.050686   -4.938007    0.218781
     21          6           0       24.544879   -3.354870   -2.392027
     22          8           0       25.182768   -2.581441   -3.130692
     23          6           0       24.879732   -4.790545   -2.399511
     24          7           0       21.415059    1.053671   -2.118184
     25          6           0       22.428325    0.629595   -2.845206
     26          6           0       22.954519    1.690840   -3.850165
     27          6           0       21.839666    2.735785   -3.767141
     28          6           0       21.015745    2.237203   -2.602113
     29          6           0       24.350492    2.252501   -3.416381
     30          6           0       21.005795    2.946305   -5.010813
     31          6           0       20.675316    4.402924   -5.381840
     32          7           0       19.093111    1.527567   -0.288221
     33          6           0       19.070477    2.735130   -0.951203
     34          6           0       17.970097    3.611237   -0.447358
     35          6           0       17.516834    2.830944    0.597138
     36          6           0       18.227624    1.629444    0.704241
     37          6           0       17.442113    4.879447   -1.037168
     38          6           0       16.525930    2.825456    1.663230
     39          8           0       15.672012    3.673901    1.894898
     40          6           0       16.644310    1.500384    2.450644
     41          6           0       16.724879    1.858047    3.843882
     42          8           0       17.722085    2.322862    4.446917
     43          8           0       15.597100    1.464026    4.497586
     44          6           0       15.590628    1.481917    5.944078
     45          1           0       20.992784   -3.848072    1.689075
     46          1           0       23.892619   -0.801371   -3.229317
     47          1           0       20.120523    4.076451   -2.337756
     48          1           0       17.950918   -0.914837    3.917226
     49          1           0       18.476858   -3.556431    2.713309
     50          1           0       19.860734   -3.640621    4.779017
     51          1           0       19.199578   -2.034916    4.926365
     52          1           0       20.710463   -2.236480    4.231789
     53          1           0       16.364470   -2.614658    1.944816
     54          1           0       15.780224   -1.174391    2.431111
     55          1           0       16.460219   -2.804203    4.789314
     56          1           0       15.584550   -3.749872    3.420126
     57          1           0       24.112339   -5.156002    0.332958
     58          1           0       22.600013   -5.793126   -0.284568
     59          1           0       22.712187   -5.021965    1.251776
     60          1           0       23.963124   -5.356522   -2.566254
     61          1           0       25.247962   -4.945887   -1.386020
     62          1           0       25.511908   -4.952437   -3.271802
     63          1           0       22.990067    1.194972   -4.820795
     64          1           0       22.144409    3.739660   -3.472771
     65          1           0       24.286659    3.298001   -3.116248
     66          1           0       25.059190    2.234238   -4.244356
     67          1           0       24.653364    1.641747   -2.565746
     68          1           0       20.070264    2.389342   -4.970011
     69          1           0       21.497560    2.328710   -5.761675
     70          1           0       20.545181    4.427317   -6.463331
     71          1           0       21.387122    5.120723   -4.973000
     72          1           0       19.741092    4.547442   -4.839624
     73          1           0       16.530326    4.756363   -1.621927
     74          1           0       18.294088    5.336142   -1.540017
     75          1           0       17.318690    5.617330   -0.243481
     76          1           0       15.659586    1.042951    2.355282
     77          1           0       16.553808    1.711715    6.400462
     78          1           0       15.158438    0.562373    6.337783
     79          1           0       14.913660    2.239353    6.340046
     80         12           0      -20.540498    0.261028    0.118339
     81          6           0      -18.541054   -2.552016   -0.279337
     82          6           0      -17.707747    1.764834    1.707563
     83          6           0      -22.126811    3.140054    0.128363
     84          6           0      -22.874884   -1.179475   -2.080142
     85          7           0      -18.354691   -0.303195    0.529689
     86          6           0      -17.838507   -1.565300    0.338845
     87          6           0      -16.377914   -1.611644    0.795778
     88          6           0      -16.275173   -0.321553    1.655625
     89          6           0      -17.494270    0.469238    1.259698
     90          6           0      -16.209997   -0.465636    3.226855
     91          6           0      -15.380722   -1.649075   -0.373932
     92          6           0      -13.963725   -1.865495   -0.001867
     93          1           0      -13.006009   -2.430810   -1.119138
     94          7           0      -20.001186    2.225346    0.813806
     95          6           0      -18.817462    2.623922    1.454147
     96          6           0      -18.933630    4.019124    1.775112
     97          6           0      -20.173103    4.479220    1.195341
     98          6           0      -20.849289    3.234540    0.690441
     99          6           0      -17.796017    4.826325    2.459333
    100          6           0      -20.615551    5.945130    1.243706
    101          8           0      -20.015929    6.778375    1.902620
    102          6           0      -21.811353    6.359783    0.474545
    103          7           0      -22.372450    0.798791   -0.670725
    104          6           0      -22.818076    2.045857   -0.484397
    105          6           0      -24.143446    2.269421   -1.319362
    106          6           0      -24.397861    0.920269   -2.095419
    107          6           0      -23.073591    0.103580   -1.625028
    108          6           0      -25.383510    2.815619   -0.564008
    109          6           0      -24.404286    1.172799   -3.618307
    110          6           0      -25.279878    0.215071   -4.435492
    111          7           0      -20.751385   -1.504556   -0.998703
    112          6           0      -21.787033   -2.008982   -1.734309
    113          6           0      -21.477329   -3.402262   -2.076840
    114          6           0      -20.285518   -3.662734   -1.455456
    115          6           0      -19.837691   -2.498104   -0.874306
    116          6           0      -22.391983   -4.369762   -2.834935
    117          6           0      -19.283699   -4.667304   -1.260954
    118          8           0      -19.221278   -5.823977   -1.597989
    119          6           0      -18.112569   -3.989623   -0.474034
    120          6           0      -18.010504   -4.665929    0.848327
    121          8           0      -18.901443   -4.888696    1.620372
    122          8           0      -16.651874   -4.889249    1.131489
    123          6           0      -16.372333   -5.466438    2.415487
    124          1           0      -16.828704    2.100386    2.260932
    125          1           0      -22.777519    4.015671    0.071377
    126          1           0      -23.613010   -1.683801   -2.707462
    127          1           0      -16.304699   -2.466857    1.466238
    128          1           0      -15.451936    0.348997    1.411652
    129          1           0      -15.340542    0.128260    3.507897
    130          1           0      -16.408150   -1.447604    3.657316
    131          1           0      -17.052352    0.103288    3.620110
    132          1           0      -15.289131   -0.724617   -0.944744
    133          1           0      -15.683260   -2.410617   -1.092783
    134          1           0      -13.966470   -2.542591    0.852318
    135          1           0      -13.553099   -0.929778    0.377102
    136          1           0      -17.461481    5.362249    1.570519
    137          1           0      -16.918716    4.253974    2.761444
    138          1           0      -17.961510    5.518325    3.285280
    139          1           0      -21.649458    5.950994   -0.522835
    140          1           0      -21.805847    7.446690    0.391082
    141          1           0      -22.634713    5.900709    1.022300
    142          1           0      -23.903351    3.056148   -2.035123
    143          1           0      -25.288202    0.370748   -1.791430
    144          1           0      -25.520446    3.858212   -0.852732
    145          1           0      -25.243607    2.641715    0.502381
    146          1           0      -26.283546    2.321239   -0.929497
    147          1           0      -23.359250    1.093353   -3.916703
    148          1           0      -24.653245    2.196527   -3.898488
    149          1           0      -25.960977    0.891790   -4.952632
    150          1           0      -25.778120   -0.556988   -3.849029
    151          1           0      -24.685009   -0.276953   -5.205096
    152          1           0      -21.920118   -4.979917   -3.604389
    153          1           0      -23.142997   -3.691920   -3.241347
    154          1           0      -22.956845   -4.905734   -2.072036
    155          1           0      -17.214076   -4.145495   -1.071244
    156          1           0      -16.040596   -6.487445    2.226592
    157          1           0      -17.154031   -5.487639    3.175208
    158          1           0      -15.568387   -4.882844    2.863212
 ---------------------------------------------------------------------

 SCF Done:  E(RPBE1PBE) =  -4067.39001618     A.U. after   16 cycles

 Excitation energies and oscillator strengths:

 Excited State   1:      Singlet-A      1.8455 eV  671.81 nm  f=0.0000  <S**2>=0.000
     312 -> 313        0.70711
 This state for optimization and/or second-order correction.
 Total Energy, E(TD-HF/TD-DFT) =  -4067.32219486
 Copying the excited state density for this state as the 1-particle RhoCI density.

 Excited State   2:      Singlet-A      1.9036 eV  651.32 nm  f=0.3658  <S**2>=0.000
     309 -> 315       -0.17015
     311 -> 313        0.69308
     311 <- 313       -0.10639

 Excited State   3:      Singlet-A      1.9171 eV  646.72 nm  f=0.3854  <S**2>=0.000
     310 -> 316       -0.19062
     312 -> 314        0.68752

 Excited State   4:      Singlet-A      2.2427 eV  552.84 nm  f=0.0000  <S**2>=0.000
     311 -> 314        0.70710

 Excited State   5:      Singlet-A      2.3025 eV  538.48 nm  f=0.1139  <S**2>=0.000
     309 -> 313        0.64642
     311 -> 315        0.26952

 The electronic state is 1-A.
 Alpha  occ. eigenvalues --  -46.93037 -46.91912 -19.25832 -19.25669 -19.20743
 Alpha  occ. eigenvalues --  -19.19225 -19.19100 -19.18952 -19.18869 -19.18705
 Alpha  occ. eigenvalues --  -14.42219 -14.41787 -14.41419 -14.40629 -14.39728
 Alpha  occ. eigenvalues --  -14.39435 -14.39272 -14.38895 -10.36573 -10.36134
 Alpha  occ. eigenvalues --  -10.32342 -10.31801 -10.31658 -10.31485 -10.29889
 Alpha  occ. eigenvalues --  -10.29062 -10.28925 -10.28606 -10.28532 -10.28495
 Alpha  occ. eigenvalues --  -10.28470 -10.28448 -10.28448 -10.28416 -10.28272
 Alpha  occ. eigenvalues --  -10.28228 -10.28160 -10.28052 -10.27830 -10.27296
 Alpha  occ. eigenvalues --  -10.26895 -10.26648 -10.26327 -10.26149 -10.26137
 Alpha  occ. eigenvalues --  -10.26093 -10.26085 -10.26067 -10.25978 -10.25921
 Alpha  occ. eigenvalues --  -10.25904 -10.25837 -10.25786 -10.25749 -10.25598
 Alpha  occ. eigenvalues --  -10.25472 -10.25469 -10.25395 -10.25253 -10.25235
 Alpha  occ. eigenvalues --  -10.25178 -10.25026 -10.24975 -10.24957 -10.24933
 Alpha  occ. eigenvalues --  -10.24705 -10.24676 -10.24510 -10.24231 -10.23986
 Alpha  occ. eigenvalues --  -10.23963 -10.23925 -10.23886 -10.23735 -10.23717
 Alpha  occ. eigenvalues --  -10.23690 -10.23604 -10.23498 -10.23493 -10.23422
 Alpha  occ. eigenvalues --  -10.23334 -10.23244 -10.23187 -10.23119 -10.22362
 Alpha  occ. eigenvalues --  -10.21930  -3.15041  -3.14096  -1.87887  -1.87419
 Alpha  occ. eigenvalues --   -1.87250  -1.86946  -1.86461  -1.86332  -1.11421
 Alpha  occ. eigenvalues --   -1.10903  -1.05278  -1.04662  -1.04242  -1.03731
 Alpha  occ. eigenvalues --   -1.03720  -1.00755  -1.00446  -0.99327  -0.99290
 Alpha  occ. eigenvalues --   -0.98436  -0.98291  -0.97692  -0.97452  -0.96823
 Alpha  occ. eigenvalues --   -0.87757  -0.87566  -0.84439  -0.83654  -0.83596
 Alpha  occ. eigenvalues --   -0.83478  -0.83108  -0.82792  -0.82448  -0.81877
 Alpha  occ. eigenvalues --   -0.81406  -0.80989  -0.80872  -0.80191  -0.79416
 Alpha  occ. eigenvalues --   -0.78996  -0.78353  -0.78352  -0.77331  -0.77228
 Alpha  occ. eigenvalues --   -0.76766  -0.76760  -0.75681  -0.75605  -0.75288
 Alpha  occ. eigenvalues --   -0.75230  -0.72951  -0.72094  -0.72049  -0.71776
 Alpha  occ. eigenvalues --   -0.71706  -0.71267  -0.70888  -0.70544  -0.69832
 Alpha  occ. eigenvalues --   -0.69618  -0.67784  -0.67481  -0.66485  -0.66424
 Alpha  occ. eigenvalues --   -0.63942  -0.63777  -0.63667  -0.63421  -0.62512
 Alpha  occ. eigenvalues --   -0.62307  -0.61054  -0.60950  -0.60867  -0.60497
 Alpha  occ. eigenvalues --   -0.60116  -0.59865  -0.59671  -0.59426  -0.59134
 Alpha  occ. eigenvalues --   -0.59116  -0.57313  -0.57157  -0.54938  -0.54704
 Alpha  occ. eigenvalues --   -0.54548  -0.54516  -0.54078  -0.53869  -0.53419
 Alpha  occ. eigenvalues --   -0.53338  -0.53111  -0.52870  -0.52246  -0.52243
 Alpha  occ. eigenvalues --   -0.51105  -0.51075  -0.50411  -0.50269  -0.50107
 Alpha  occ. eigenvalues --   -0.49936  -0.49486  -0.48984  -0.48964  -0.48606
 Alpha  occ. eigenvalues --   -0.48587  -0.48456  -0.48152  -0.47956  -0.47825
 Alpha  occ. eigenvalues --   -0.47760  -0.47525  -0.47482  -0.47332  -0.46663
 Alpha  occ. eigenvalues --   -0.46565  -0.46505  -0.46314  -0.46247  -0.46130
 Alpha  occ. eigenvalues --   -0.45808  -0.45465  -0.45437  -0.45325  -0.45050
 Alpha  occ. eigenvalues --   -0.44974  -0.44884  -0.44874  -0.44606  -0.44522
 Alpha  occ. eigenvalues --   -0.44256  -0.43965  -0.43762  -0.43651  -0.43356
 Alpha  occ. eigenvalues --   -0.43296  -0.43044  -0.43007  -0.42873  -0.42771
 Alpha  occ. eigenvalues --   -0.42586  -0.42409  -0.42244  -0.42032  -0.42028
 Alpha  occ. eigenvalues --   -0.41921  -0.41916  -0.41766  -0.41720  -0.41295
 Alpha  occ. eigenvalues --   -0.41127  -0.41107  -0.40978  -0.40871  -0.40863
 Alpha  occ. eigenvalues --   -0.40567  -0.40404  -0.40130  -0.39968  -0.39892
 Alpha  occ. eigenvalues --   -0.39861  -0.39366  -0.39344  -0.39042  -0.38781
 Alpha  occ. eigenvalues --   -0.38651  -0.38577  -0.38526  -0.38391  -0.38194
 Alpha  occ. eigenvalues --   -0.38137  -0.38043  -0.38024  -0.37797  -0.37637
 Alpha  occ. eigenvalues --   -0.37362  -0.37262  -0.37223  -0.37165  -0.36935
 Alpha  occ. eigenvalues --   -0.36830  -0.36679  -0.36606  -0.36480  -0.36398
 Alpha  occ. eigenvalues --   -0.36389  -0.36091  -0.35997  -0.35754  -0.35470
 Alpha  occ. eigenvalues --   -0.35226  -0.35056  -0.34912  -0.34748  -0.34655
 Alpha  occ. eigenvalues --   -0.33754  -0.33737  -0.33046  -0.32928  -0.32686
 Alpha  occ. eigenvalues --   -0.32138  -0.31958  -0.31516  -0.31139  -0.31082
 Alpha  occ. eigenvalues --   -0.31005  -0.30607  -0.30151  -0.29570  -0.29254
 Alpha  occ. eigenvalues --   -0.29086  -0.28593  -0.28201  -0.27396  -0.27182
 Alpha  occ. eigenvalues --   -0.26211  -0.26028  -0.25890  -0.25803  -0.25753
 Alpha  occ. eigenvalues --   -0.25604  -0.25418  -0.25122  -0.21557  -0.21022
 Alpha  occ. eigenvalues --   -0.19275  -0.18619
 Alpha virt. eigenvalues --   -0.11511  -0.10708  -0.05480  -0.05253  -0.03520
 Alpha virt. eigenvalues --   -0.03319  -0.01930  -0.01723  -0.00734  -0.00145
 Alpha virt. eigenvalues --    0.00290   0.00367   0.00669   0.01433   0.01824

 Mulliken charges:
               1
     1  Mg  12.000000
     2  C    6.000000
     3  C    6.000000
     4  C    6.000000
     5  C    6.000000
     6  N    7.000000
     7  C    6.000000
     8  C    6.000000
     9  C    6.000000
    10  C    6.000000
    11  C    6.000000
    12  C    6.000000
    13  C    6.000000
    14  H    1.000000
    15  N    7.000000
    16  C    6.000000
    17  C    6.000000
    18  C    6.000000
    19  C    6.000000
    20  C    6.000000
    21  C    6.000000
    22  O    8.000000
    23  C    6.000000
    24  N    7.000000
    25  C    6.000000
    26  C    6.000000
    27  C    6.000000
    28  C    6.000000
    29  C    6.000000
    30  C    6.000000
    31  C    6.000000
    32  N    7.000000
    33  C    6.000000
    34  C    6.000000
    35  C    6.000000
    36  C    6.000000
    37  C    6.000000
    38  C    6.000000
    39  O    8.000000
    40  C    6.000000
    41  C    6.000000
    42  O    8.000000
    43  O    8.000000
    44  C    6.000000
    45  H    1.000000
    46  H    1.000000
    47  H    1.000000
    48  H    1.000000
    49  H    1.000000
    50  H    1.000000
    51  H    1.000000
    52  H    1.000000
    53  H    1.000000
    54  H    1.000000
    55  H    1.000000
    56  H    1.000000
    57  H    1.000000
    58  H    1.000000
    59  H    1.000000
    60  H    1.000000
    61  H    1.000000
    62  H    1.000000
    63  H    1.000000
    64  H    1.000000
    65  H    1.000000
    66  H    1.000000
    67  H    1.000000
    68  H    1.000000
    69  H    1.000000
    70  H    1.000000
    71  H    1.000000
    72  H    1.000000
    73  H    1.000000
    74  H    1.000000
    75  H    1.000000
    76  H    1.000000
    77  H    1.000000
    78  H    1.000000
    79  H    1.000000
    80  Mg  12.000000
    81  C    6.000000
    82  C    6.000000
    83  C    6.000000
    84  C    6.000000
    85  N    7.000000
    86  C    6.000000
    87  C    6.000000
    88  C    6.000000
    89  C    6.000000
    90  C    6.000000
    91  C    6.000000
    92  C    6.000000
    93  H    1.000000
    94  N    7.000000
    95  C    6.000000
    96  C    6.000000
    97  C    6.000000
    98  C    6.000000
    99  C    6.000000
   100  C    6.000000
   101  O    8.000000
   102  C    6.000000
   103  N    7.000000
   104  C    6.000000
   105  C    6.000000
   106  C    6.000000
   107  C    6.000000
   108  C    6.000000
   109  C    6.000000
   110  C    6.000000
   111  N    7.000000
   112  C    6.000000
   113  C    6.000000
   114  C    6.000000
   115  C    6.000000
   116  C    6.000000
   117  C    6.000000
   118  O    8.000000
   119  C    6.000000
   120  C    6.000000
   121  O    8.000000
   122  O    8.000000
   123  C    6.000000
   124  H    1.000000
   125  H    1.000000
   126  H    1.000000
   127  H    1.000000
   128  H    1.000000
   129  H    1.000000
   130  H    1.000000
   131  H    1.000000
   132  H    1.000000
   133  H    1.000000
   134  H    1.000000
   135  H    1.000000
   136  H    1.000000
   137  H    1.000000
   138  H    1.000000
   139  H    1.000000
   140  H    1.000000
   141  H    1.000000
   142  H    1.000000
   143  H    1.000000
   144  H    1.000000
   145  H    1.000000
   146  H    1.000000
   147  H    1.000000
   148  H    1.000000
   149  H    1.000000
   150  H    1.000000
   151  H    1.000000
   152  H    1.000000
   153  H    1.000000
   154  H    1.000000
   155  H    1.000000
   156  H    1.000000
   157  H    1.000000
   158  H    1.000000
 Sum of Mulliken charges = 624.00000

 Dipole moment (field-independent basis, Debye):
    X=             -0.0000    Y=             -0.0000    Z=             -0.0000  Tot=              0.0000
 Quadrupole moment (field-independent basis, Debye-Ang):
   XX=              0.0000   YY=             -0.0000   ZZ=              0.0000
   XY=              0.0000   XZ=              0.0000   YZ=             -0.0000

 Normal termination of Gaussian 16 at Fri Oct 15 06:23:27 2021.
