 Gaussian 16, Revision A.03,
 Gaussian 16:  ES64L-G16RevA.03 25-Dec-2016

 --------------------------------------------------------
 #p PBE1PBE/Def2SVP td=(nstates=5) density=(transition=1)
 --------------------------------------------------------

 --------------------------------
 TDDFT excited states in gaussian
 --------------------------------
 Symbolic Z-matrix:
 Charge =  0 Multiplicity = 1

                         Standard orientation:
 ---------------------------------------------------------------------
 Center     Atomic      Atomic             Coordinates (Angstroms)
 Number     Number       Type             X           Y           Z
 ---------------------------------------------------------------------
      1         12           0      -30.251913   -0.422883   -0.198642
      2          6           0      -27.107535    0.832659   -1.140288
      3          6           0      -28.688374   -3.247023    0.985305
      4          6           0      -33.099091   -1.166796    1.313219
      5          6           0      -31.706997    2.651929   -1.221433
      6          7           0      -28.143522   -0.993383    0.131385
      7          6           0      -26.985596   -0.324279   -0.342548
      8          6           0      -25.788220   -1.182366   -0.341092
      9          6           0      -26.349562   -2.541265    0.263138
     10          6           0      -27.835003   -2.272900    0.446233
     11          6           0      -25.957038   -3.775509   -0.584557
     12          6           0      -24.684483   -0.716016    0.558467
     13          6           0      -25.102135   -0.081429    1.893393
     14          1           0      -24.250301   -0.290405    3.205604
     15          7           0      -30.868692   -2.020600    0.977923
     16          6           0      -30.109840   -3.105246    1.225609
     17          6           0      -30.924326   -4.086834    1.897218
     18          6           0      -32.234270   -3.549474    1.945559
     19          6           0      -32.141370   -2.196632    1.373510
     20          6           0      -30.444553   -5.399102    2.456716
     21          6           0      -33.469238   -4.259860    2.498924
     22          8           0      -33.392517   -5.380528    2.963339
     23          6           0      -34.849383   -3.695197    2.661674
     24          7           0      -32.045303    0.689212    0.239584
     25          6           0      -33.129819    0.123401    0.855247
     26          6           0      -34.413391    0.998227    0.671901
     27          6           0      -33.821398    2.333494    0.127622
     28          6           0      -32.455053    1.872585   -0.330492
     29          6           0      -35.472547    0.430019   -0.303312
     30          6           0      -33.519173    3.465692    1.219042
     31          6           0      -33.971472    4.844231    0.898574
     32          7           0      -29.648389    1.296076   -1.077038
     33          6           0      -30.363526    2.313323   -1.576041
     34          6           0      -29.535608    3.088399   -2.575384
     35          6           0      -28.253304    2.466729   -2.442460
     36          6           0      -28.341281    1.483881   -1.416330
     37          6           0      -29.907755    4.261673   -3.470482
     38          6           0      -26.881827    2.607148   -2.838746
     39          8           0      -26.347413    3.416344   -3.580466
     40          6           0      -26.087106    1.513589   -2.017021
     41          6           0      -25.175921    2.256239   -1.061862
     42          8           0      -25.487902    2.909216   -0.121501
     43          8           0      -23.873478    1.956040   -1.399869
     44          6           0      -22.892547    2.370473   -0.391731
     45          1           0      -28.216517   -4.213103    1.175354
     46          1           0      -34.091947   -1.469326    1.650254
     47          1           0      -32.253856    3.505141   -1.628132
     48          1           0      -25.420273   -1.236166   -1.365694
     49          1           0      -26.086021   -2.748812    1.300185
     50          1           0      -25.588290   -4.440232    0.196843
     51          1           0      -25.191927   -3.446859   -1.287994
     52          1           0      -26.812069   -4.255646   -1.060885
     53          1           0      -23.916182   -0.132894    0.050051
     54          1           0      -24.016068   -1.503901    0.906382
     55          1           0      -26.123199   -0.427480    2.057489
     56          1           0      -25.174656    0.973418    1.627972
     57          1           0      -30.829583   -5.559371    3.464320
     58          1           0      -29.357154   -5.449002    2.401711
     59          1           0      -30.874448   -6.143326    1.785900
     60          1           0      -34.942365   -2.885635    3.384882
     61          1           0      -35.358092   -4.529106    3.145550
     62          1           0      -35.382110   -3.583611    1.716691
     63          1           0      -34.884384    1.102714    1.649237
     64          1           0      -34.386419    2.749903   -0.706718
     65          1           0      -35.512958    1.072607   -1.182643
     66          1           0      -36.399044    0.173007    0.209895
     67          1           0      -35.124572   -0.537068   -0.664528
     68          1           0      -32.461030    3.486365    1.478804
     69          1           0      -34.049919    3.117084    2.105142
     70          1           0      -34.627872    5.265369    1.659793
     71          1           0      -34.461103    4.927477   -0.071975
     72          1           0      -33.137034    5.543744    0.856562
     73          1           0      -29.235717    5.076966   -3.202542
     74          1           0      -30.985436    4.410119   -3.391810
     75          1           0      -29.609614    3.964342   -4.475789
     76          1           0      -25.529623    0.835059   -2.662319
     77          1           0      -23.294021    2.364537    0.621529
     78          1           0      -22.635578    3.386018   -0.693116
     79          1           0      -21.998790    1.779635   -0.590412
     80         12           0       29.257592    0.526737    0.654741
     81          6           0       29.296945   -2.506006   -1.289407
     82          6           0       27.694077    2.075439   -1.857776
     83          6           0       30.058176    3.422008    2.140412
     84          6           0       31.302996   -1.143092    2.963907
     85          7           0       28.642400   -0.132806   -1.324742
     86          6           0       28.569889   -1.434067   -1.850433
     87          6           0       27.704316   -1.474211   -3.167144
     88          6           0       27.277334    0.015642   -3.333244
     89          6           0       27.856764    0.699330   -2.066270
     90          6           0       27.699681    0.719972   -4.597579
     91          6           0       26.490265   -2.546139   -3.087882
     92          6           0       26.426052   -3.548059   -4.247271
     93          1           0       25.068925   -3.518102   -5.043930
     94          7           0       28.797690    2.482620    0.268855
     95          6           0       28.155899    2.944338   -0.809156
     96          6           0       28.036318    4.403116   -0.781540
     97          6           0       28.823817    4.787989    0.358048
     98          6           0       29.288587    3.545812    0.984203
     99          6           0       27.291580    5.173372   -1.785681
    100          6           0       29.159688    6.268873    0.719975
    101          8           0       29.776277    6.563272    1.730266
    102          6           0       28.731681    7.425981   -0.125180
    103          7           0       30.463859    1.024443    2.265225
    104          6           0       30.532637    2.317359    2.772987
    105          6           0       31.372323    2.357808    4.091878
    106          6           0       31.449758    0.839605    4.501015
    107          6           0       30.998719    0.180067    3.197966
    108          6           0       32.715400    3.158037    4.078148
    109          6           0       30.520930    0.451199    5.683849
    110          6           0       31.030200   -0.524935    6.714152
    111          7           0       30.180408   -1.401669    0.811375
    112          6           0       30.971123   -1.914330    1.800270
    113          6           0       31.199504   -3.398972    1.520078
    114          6           0       30.523298   -3.677652    0.356974
    115          6           0       29.978688   -2.419829   -0.074939
    116          6           0       31.940103   -4.306396    2.475871
    117          6           0       30.178440   -4.677874   -0.637575
    118          8           0       30.529303   -5.874832   -0.576853
    119          6           0       29.403349   -3.910418   -1.866465
    120          6           0       30.164604   -3.878016   -3.175276
    121          8           0       31.330194   -3.437890   -3.225725
    122          8           0       29.491473   -4.540962   -4.202315
    123          6           0       30.373166   -4.878894   -5.313611
    124          1           0       27.090656    2.618546   -2.587814
    125          1           0       30.216657    4.403305    2.591772
    126          1           0       31.839116   -1.624201    3.785185
    127          1           0       28.426379   -1.812047   -3.910251
    128          1           0       26.195867   -0.024071   -3.470522
    129          1           0       28.314011    0.099579   -5.250260
    130          1           0       28.396855    1.440693   -4.171597
    131          1           0       26.859724    1.081731   -5.191392
    132          1           0       25.609674   -1.905650   -3.047136
    133          1           0       26.516462   -3.038586   -2.116180
    134          1           0       26.660568   -4.525557   -3.825848
    135          1           0       27.205193   -3.306714   -4.971445
    136          1           0       27.785754    5.968733   -2.342742
    137          1           0       26.618971    5.798587   -1.199584
    138          1           0       26.599328    4.597800   -2.400568
    139          1           0       27.641860    7.383426   -0.129600
    140          1           0       29.064499    7.207659   -1.140292
    141          1           0       29.182282    8.305936    0.332174
    142          1           0       30.715682    2.868228    4.796471
    143          1           0       32.470964    0.495051    4.662155
    144          1           0       32.716229    3.657976    3.109826
    145          1           0       33.600748    2.551225    4.265824
    146          1           0       32.692278    4.010657    4.757956
    147          1           0       29.712000    0.019940    5.094461
    148          1           0       30.098241    1.294628    6.230183
    149          1           0       30.715825   -0.122315    7.677118
    150          1           0       32.118200   -0.594481    6.737834
    151          1           0       30.435837   -1.429827    6.585257
    152          1           0       32.275173   -3.688808    3.308988
    153          1           0       32.845172   -4.654315    1.978472
    154          1           0       31.306171   -5.151763    2.742660
    155          1           0       28.414098   -4.354817   -1.976015
    156          1           0       30.578801   -5.941051   -5.438961
    157          1           0       31.332883   -4.362299   -5.294215
    158          1           0       29.866938   -4.534350   -6.214979
 ---------------------------------------------------------------------

 SCF Done:  E(RPBE1PBE) =  -4067.35567817     A.U. after   16 cycles

 Excitation energies and oscillator strengths:

 Excited State   1:      Singlet-A      1.8294 eV  677.74 nm  f=0.3577  <S**2>=0.000
     309 -> 315        0.16661
     311 -> 313        0.69538
     311 <- 313       -0.11481
 This state for optimization and/or second-order correction.
 Total Energy, E(TD-HF/TD-DFT) =  -4067.28844944
 Copying the excited state density for this state as the 1-particle RhoCI density.

 Excited State   2:      Singlet-A      1.8518 eV  669.54 nm  f=0.4106  <S**2>=0.000
     310 -> 316        0.16669
     312 -> 314        0.69629
     312 <- 314       -0.11426

 Excited State   3:      Singlet-A      1.9018 eV  651.93 nm  f=0.0000  <S**2>=0.000
     312 -> 313        0.70711

 Excited State   4:      Singlet-A      2.0556 eV  603.16 nm  f=0.0000  <S**2>=0.000
     311 -> 314        0.70711

 Excited State   5:      Singlet-A      2.2899 eV  541.44 nm  f=0.0917  <S**2>=0.000
     310 -> 314        0.64383
     312 -> 316       -0.28547

 The electronic state is 1-A.
 Alpha  occ. eigenvalues --  -46.91974 -46.91817 -19.27245 -19.25271 -19.20976
 Alpha  occ. eigenvalues --  -19.20603 -19.20043 -19.19371 -19.18883 -19.18435
 Alpha  occ. eigenvalues --  -14.42074 -14.41895 -14.41422 -14.41242 -14.39277
 Alpha  occ. eigenvalues --  -14.39261 -14.39131 -14.39082 -10.37746 -10.36251
 Alpha  occ. eigenvalues --  -10.33560 -10.32201 -10.32149 -10.31737 -10.29295
 Alpha  occ. eigenvalues --  -10.29009 -10.28906 -10.28808 -10.28678 -10.28626
 Alpha  occ. eigenvalues --  -10.28502 -10.28449 -10.28364 -10.28265 -10.28078
 Alpha  occ. eigenvalues --  -10.28018 -10.27975 -10.27617 -10.27597 -10.27448
 Alpha  occ. eigenvalues --  -10.27383 -10.27085 -10.26729 -10.26501 -10.26479
 Alpha  occ. eigenvalues --  -10.26406 -10.26371 -10.26340 -10.26158 -10.26130
 Alpha  occ. eigenvalues --  -10.26085 -10.25946 -10.25945 -10.25809 -10.25780
 Alpha  occ. eigenvalues --  -10.25653 -10.25528 -10.25363 -10.25356 -10.25216
 Alpha  occ. eigenvalues --  -10.25122 -10.25073 -10.24880 -10.24731 -10.24640
 Alpha  occ. eigenvalues --  -10.24626 -10.24456 -10.24155 -10.24133 -10.24092
 Alpha  occ. eigenvalues --  -10.24065 -10.24052 -10.23980 -10.23609 -10.23539
 Alpha  occ. eigenvalues --  -10.23536 -10.23469 -10.23305 -10.23061 -10.22994
 Alpha  occ. eigenvalues --  -10.22945 -10.22925 -10.22908 -10.22850 -10.22807
 Alpha  occ. eigenvalues --  -10.22790  -3.14196  -3.14043  -1.86998  -1.86865
 Alpha  occ. eigenvalues --   -1.86575  -1.86437  -1.86401  -1.86294  -1.12006
 Alpha  occ. eigenvalues --   -1.10999  -1.05128  -1.04967  -1.04714  -1.03792
 Alpha  occ. eigenvalues --   -1.03652  -1.02646  -0.99223  -0.98693  -0.98581
 Alpha  occ. eigenvalues --   -0.97995  -0.97922  -0.97271  -0.97246  -0.96532
 Alpha  occ. eigenvalues --   -0.87548  -0.86885  -0.84155  -0.83749  -0.83443
 Alpha  occ. eigenvalues --   -0.83011  -0.82709  -0.82389  -0.81853  -0.81635
 Alpha  occ. eigenvalues --   -0.81576  -0.80646  -0.80398  -0.80119  -0.79018
 Alpha  occ. eigenvalues --   -0.78581  -0.78471  -0.77921  -0.77007  -0.76983
 Alpha  occ. eigenvalues --   -0.76174  -0.75902  -0.75503  -0.75166  -0.74816
 Alpha  occ. eigenvalues --   -0.74557  -0.72825  -0.72302  -0.71912  -0.71807
 Alpha  occ. eigenvalues --   -0.71213  -0.71142  -0.70485  -0.70366  -0.69516
 Alpha  occ. eigenvalues --   -0.69147  -0.67179  -0.66856  -0.66101  -0.65455
 Alpha  occ. eigenvalues --   -0.63948  -0.63422  -0.63299  -0.63039  -0.62793
 Alpha  occ. eigenvalues --   -0.62193  -0.61534  -0.61197  -0.60303  -0.59756
 Alpha  occ. eigenvalues --   -0.59631  -0.59482  -0.59416  -0.59071  -0.58911
 Alpha  occ. eigenvalues --   -0.58897  -0.57144  -0.56667  -0.54920  -0.54526
 Alpha  occ. eigenvalues --   -0.54280  -0.54085  -0.53531  -0.53416  -0.53294
 Alpha  occ. eigenvalues --   -0.53137  -0.52902  -0.52700  -0.52019  -0.51957
 Alpha  occ. eigenvalues --   -0.51121  -0.50862  -0.50543  -0.49977  -0.49933
 Alpha  occ. eigenvalues --   -0.49678  -0.49650  -0.49324  -0.49206  -0.48695
 Alpha  occ. eigenvalues --   -0.48378  -0.48166  -0.47706  -0.47622  -0.47577
 Alpha  occ. eigenvalues --   -0.47229  -0.46898  -0.46888  -0.46779  -0.46630
 Alpha  occ. eigenvalues --   -0.46436  -0.46268  -0.46203  -0.46050  -0.45954
 Alpha  occ. eigenvalues --   -0.45924  -0.45782  -0.45716  -0.45544  -0.45317
 Alpha  occ. eigenvalues --   -0.44903  -0.44628  -0.44237  -0.44140  -0.44007
 Alpha  occ. eigenvalues --   -0.43952  -0.43947  -0.43861  -0.43533  -0.43433
 Alpha  occ. eigenvalues --   -0.43404  -0.43301  -0.43206  -0.43081  -0.42986
 Alpha  occ. eigenvalues --   -0.42804  -0.42619  -0.42236  -0.41912  -0.41898
 Alpha  occ. eigenvalues --   -0.41815  -0.41703  -0.41612  -0.41520  -0.41465
 Alpha  occ. eigenvalues --   -0.41181  -0.41110  -0.40813  -0.40704  -0.40691
 Alpha  occ. eigenvalues --   -0.40609  -0.40438  -0.40258  -0.40093  -0.39983
 Alpha  occ. eigenvalues --   -0.39487  -0.39320  -0.39174  -0.39105  -0.38894
 Alpha  occ. eigenvalues --   -0.38861  -0.38853  -0.38709  -0.38609  -0.38429
 Alpha  occ. eigenvalues --   -0.38426  -0.38043  -0.37924  -0.37839  -0.37667
 Alpha  occ. eigenvalues --   -0.37617  -0.37465  -0.37386  -0.37179  -0.37048
 Alpha  occ. eigenvalues --   -0.37013  -0.36727  -0.36636  -0.36584  -0.36076
 Alpha  occ. eigenvalues --   -0.36005  -0.35666  -0.35664  -0.35528  -0.35280
 Alpha  occ. eigenvalues --   -0.35081  -0.34800  -0.34429  -0.34067  -0.34043
 Alpha  occ. eigenvalues --   -0.33433  -0.33303  -0.32846  -0.32819  -0.32470
 Alpha  occ. eigenvalues --   -0.32267  -0.32262  -0.32100  -0.31523  -0.31465
 Alpha  occ. eigenvalues --   -0.31143  -0.30754  -0.29918  -0.29823  -0.29644
 Alpha  occ. eigenvalues --   -0.29419  -0.28677  -0.28548  -0.27092  -0.27009
 Alpha  occ. eigenvalues --   -0.26366  -0.26097  -0.25885  -0.25614  -0.25514
 Alpha  occ. eigenvalues --   -0.25441  -0.25259  -0.25140  -0.21235  -0.21069
 Alpha  occ. eigenvalues --   -0.18713  -0.18457
 Alpha virt. eigenvalues --   -0.11246  -0.10937  -0.05327  -0.04852  -0.04289
 Alpha virt. eigenvalues --   -0.04011  -0.02263  -0.01915  -0.01700  -0.01334
 Alpha virt. eigenvalues --   -0.00809   0.00358   0.00872   0.01004   0.01288

 Mulliken charges:
               1
     1  Mg  12.001987
     2  C    6.027566
     3  C    5.992200
     4  C    5.978635
     5  C    6.007286
     6  N    7.006584
     7  C    5.960497
     8  C    6.013899
     9  C    5.991483
    10  C    6.029020
    11  C    5.998125
    12  C    6.003502
    13  C    6.005647
    14  H    0.991539
    15  N    6.991951
    16  C    6.039876
    17  C    6.022058
    18  C    6.005472
    19  C    6.042661
    20  C    5.997275
    21  C    6.010644
    22  O    8.018414
    23  C    5.996378
    24  N    6.996094
    25  C    6.032704
    26  C    5.993687
    27  C    6.005460
    28  C    5.976712
    29  C    6.000174
    30  C    6.007192
    31  C    6.000254
    32  N    7.001202
    33  C    5.965858
    34  C    5.960919
    35  C    6.005130
    36  C    5.962836
    37  C    6.000385
    38  C    5.985012
    39  O    7.975087
    40  C    5.998012
    41  C    5.997300
    42  O    7.996297
    43  O    7.997976
    44  C    6.001218
    45  H    1.012241
    46  H    1.007577
    47  H    0.988884
    48  H    0.998691
    49  H    0.998143
    50  H    1.000133
    51  H    1.012242
    52  H    0.998209
    53  H    1.003496
    54  H    0.991440
    55  H    0.990518
    56  H    1.006640
    57  H    1.015863
    58  H    1.017113
    59  H    1.017415
    60  H    1.010489
    61  H    1.010683
    62  H    1.011133
    63  H    0.999612
    64  H    1.000249
    65  H    1.012025
    66  H    1.000082
    67  H    0.995345
    68  H    1.000764
    69  H    0.986116
    70  H    0.994713
    71  H    0.999427
    72  H    1.002947
    73  H    0.981728
    74  H    0.982684
    75  H    0.981374
    76  H    0.990256
    77  H    0.996042
    78  H    0.998631
    79  H    0.994887
    80  Mg  12.000017
    81  C    6.000221
    82  C    5.999875
    83  C    5.999820
    84  C    6.000128
    85  N    7.000030
    86  C    5.999703
    87  C    6.000071
    88  C    5.999902
    89  C    6.000230
    90  C    6.000004
    91  C    6.000032
    92  C    6.000019
    93  H    0.999947
    94  N    6.999962
    95  C    6.000253
    96  C    6.000231
    97  C    6.000029
    98  C    6.000317
    99  C    5.999897
   100  C    6.000099
   101  O    8.000160
   102  C    5.999976
   103  N    6.999990
   104  C    6.000256
   105  C    5.999939
   106  C    6.000068
   107  C    5.999797
   108  C    6.000011
   109  C    5.999998
   110  C    6.000019
   111  N    6.999987
   112  C    5.999720
   113  C    5.999758
   114  C    5.999992
   115  C    5.999772
   116  C    6.000064
   117  C    5.999858
   118  O    7.999797
   119  C    5.999947
   120  C    5.999971
   121  O    7.999964
   122  O    7.999975
   123  C    6.000034
   124  H    1.000082
   125  H    1.000072
   126  H    0.999919
   127  H    0.999989
   128  H    1.000058
   129  H    1.000082
   130  H    0.999954
   131  H    1.000034
   132  H    0.999939
   133  H    1.000029
   134  H    1.000016
   135  H    0.999987
   136  H    1.000176
   137  H    1.000161
   138  H    1.000144
   139  H    1.000052
   140  H    1.000036
   141  H    1.000100
   142  H    1.000003
   143  H    0.999996
   144  H    0.999965
   145  H    1.000065
   146  H    1.000010
   147  H    1.000012
   148  H    0.999922
   149  H    0.999963
   150  H    0.999984
   151  H    1.000020
   152  H    0.999859
   153  H    0.999844
   154  H    0.999853
   155  H    0.999937
   156  H    0.999966
   157  H    0.999971
   158  H    0.999961
 Sum of Mulliken charges = 624.00000

 Dipole moment (field-independent basis, Debye):
    X=             -3.3461    Y=             -8.2604    Z=              4.8662  Tot=             10.1543
 Quadrupole moment (field-independent basis, Debye-Ang):
   XX=            197.4890   YY=              8.1041   ZZ=             -3.9173
   XY=            255.7705   XZ=           -148.0029   YZ=             -0.1801

 Normal termination of Gaussian 16 at Thu Oct 14 00:16:48 2021.
