 Gaussian 16, Revision A.03,
 Gaussian 16:  ES64L-G16RevA.03 25-Dec-2016

 --------------------------------------------------------
 #p PBE1PBE/Def2SVP td=(nstates=5) density=(transition=1)
 --------------------------------------------------------

 --------------------------------
 TDDFT excited states in gaussian
 --------------------------------
 Symbolic Z-matrix:
 Charge =  0 Multiplicity = 1

                         Standard orientation:
 ---------------------------------------------------------------------
 Center     Atomic      Atomic             Coordinates (Angstroms)
 Number     Number       Type             X           Y           Z
 ---------------------------------------------------------------------
      1         12           0      -28.277370   -0.700861   -0.113425
      2          6           0      -26.274814    2.325267   -0.917060
      3          6           0      -29.063857    0.973981    2.715048
      4          6           0      -29.711526   -3.436279    0.599533
      5          6           0      -26.509400   -2.281719   -2.768437
      6          7           0      -27.675695    1.369937    0.777792
      7          6           0      -27.030256    2.446785    0.193857
      8          6           0      -27.171963    3.767559    0.959034
      9          6           0      -27.669305    3.196500    2.322812
     10          6           0      -28.175522    1.746898    1.960305
     11          6           0      -26.644784    3.165601    3.412908
     12          6           0      -28.069730    4.875903    0.313670
     13          6           0      -27.725704    6.302946    0.581841
     14          1           0      -28.917009    7.241627    0.744573
     15          7           0      -29.328175   -1.186862    1.462423
     16          6           0      -29.618355   -0.336538    2.549881
     17          6           0      -30.582233   -1.002327    3.377849
     18          6           0      -30.877051   -2.235120    2.648484
     19          6           0      -29.976388   -2.295838    1.554433
     20          6           0      -31.260043   -0.382082    4.655235
     21          6           0      -31.932793   -3.229591    3.023657
     22          8           0      -32.093935   -4.301085    2.390144
     23          6           0      -32.899438   -3.011916    4.129918
     24          7           0      -28.051882   -2.635439   -0.818117
     25          6           0      -28.799264   -3.644044   -0.365257
     26          6           0      -28.566915   -4.993026   -1.118467
     27          6           0      -27.899214   -4.423471   -2.425275
     28          6           0      -27.403279   -3.021435   -1.977089
     29          6           0      -27.598997   -5.943955   -0.343437
     30          6           0      -28.935463   -4.278253   -3.617672
     31          6           0      -29.779230   -5.498731   -4.041800
     32          7           0      -26.750878   -0.122874   -1.585218
     33          6           0      -26.210582   -0.879481   -2.618832
     34          6           0      -25.237682   -0.091752   -3.339016
     35          6           0      -25.260497    1.171160   -2.733595
     36          6           0      -26.130393    1.096621   -1.611230
     37          6           0      -24.491874   -0.493575   -4.566877
     38          6           0      -24.693416    2.511554   -2.801900
     39          8           0      -23.920162    3.069061   -3.569507
     40          6           0      -25.460404    3.308240   -1.623588
     41          6           0      -24.416739    3.950541   -0.843251
     42          8           0      -23.516844    3.390079   -0.197997
     43          8           0      -24.308957    5.240695   -1.277306
     44          6           0      -23.304635    6.086595   -0.716724
     45          1           0      -29.392143    1.624742    3.528404
     46          1           0      -30.187811   -4.396771    0.806148
     47          1           0      -26.011460   -2.816526   -3.580384
     48          1           0      -26.167226    4.169677    1.090784
     49          1           0      -28.577908    3.706087    2.642164
     50          1           0      -26.351464    2.123869    3.542912
     51          1           0      -27.098837    3.480906    4.352223
     52          1           0      -25.735314    3.746623    3.261274
     53          1           0      -29.072719    4.741724    0.717772
     54          1           0      -28.122868    4.666963   -0.754460
     55          1           0      -27.159439    6.596977   -0.301667
     56          1           0      -26.954898    6.412175    1.344873
     57          1           0      -32.297697   -0.072777    4.533451
     58          1           0      -30.664014    0.432841    5.065156
     59          1           0      -31.184462   -1.212861    5.357899
     60          1           0      -32.378062   -3.169772    5.074377
     61          1           0      -33.676765   -3.763849    3.991346
     62          1           0      -33.318092   -2.016943    3.982421
     63          1           0      -29.554719   -5.439190   -1.238544
     64          1           0      -27.034300   -4.974957   -2.792657
     65          1           0      -28.198784   -6.795276   -0.020588
     66          1           0      -27.052086   -5.495035    0.485060
     67          1           0      -26.918851   -6.253814   -1.138111
     68          1           0      -28.384399   -4.021311   -4.522019
     69          1           0      -29.545306   -3.406697   -3.380467
     70          1           0      -30.812374   -5.173244   -3.921190
     71          1           0      -29.544133   -6.255599   -3.292932
     72          1           0      -29.600893   -5.793409   -5.075839
     73          1           0      -25.003662   -1.393441   -4.908848
     74          1           0      -23.477844   -0.723512   -4.239930
     75          1           0      -24.420380    0.290122   -5.321050
     76          1           0      -26.130348    4.048360   -2.060814
     77          1           0      -22.732989    5.576806    0.059112
     78          1           0      -23.854220    6.901023   -0.244580
     79          1           0      -22.698661    6.550204   -1.493857
     80         12           0       28.150501   -0.522441    0.302800
     81          6           0       26.193467    2.289304    0.881231
     82          6           0       29.891906    1.308168   -2.018735
     83          6           0       29.932602   -3.374686   -0.474187
     84          6           0       26.004911   -2.471777    2.238546
     85          7           0       28.095760    1.585342   -0.389639
     86          6           0       27.306952    2.582222    0.046528
     87          6           0       27.669634    3.983377   -0.498317
     88          6           0       28.722491    3.604673   -1.626121
     89          6           0       28.917033    2.031430   -1.384580
     90          6           0       28.135725    3.999959   -3.028057
     91          6           0       28.279891    4.827023    0.735416
     92          6           0       27.622919    6.208507    1.026086
     93          1           0       26.833183    6.810810   -0.191818
     94          7           0       29.642604   -1.035762   -1.085285
     95          6           0       30.288850   -0.085875   -1.903075
     96          6           0       31.442260   -0.709507   -2.515981
     97          6           0       31.446672   -2.056548   -2.132337
     98          6           0       30.343725   -2.209490   -1.112686
     99          6           0       32.223351   -0.009664   -3.637271
    100          6           0       32.407665   -3.181097   -2.601138
    101          8           0       32.366022   -4.365300   -2.218338
    102          6           0       33.553806   -2.804821   -3.555816
    103          7           0       27.901131   -2.626573    0.777586
    104          6           0       28.858723   -3.593644    0.344668
    105          6           0       28.397101   -5.014880    0.729131
    106          6           0       27.294507   -4.673046    1.836567
    107          6           0       27.077323   -3.149481    1.641657
    108          6           0       27.945865   -5.756324   -0.518419
    109          6           0       27.826435   -4.977294    3.300307
    110          6           0       29.168541   -4.440830    3.904913
    111          7           0       26.423609   -0.230494    1.283462
    112          6           0       25.627322   -1.106932    2.027043
    113          6           0       24.521626   -0.385557    2.568516
    114          6           0       24.712830    0.932691    2.195783
    115          6           0       25.827030    0.984837    1.322181
    116          6           0       23.345445   -0.946846    3.341120
    117          6           0       24.178757    2.231329    2.313822
    118          8           0       23.156303    2.544194    2.835540
    119          6           0       25.060479    3.141724    1.362403
    120          6           0       24.153676    3.570910    0.242272
    121          8           0       24.207180    3.122448   -0.883833
    122          8           0       23.300258    4.473072    0.741073
    123          6           0       22.117584    4.635363   -0.068599
    124          1           0       30.504339    1.902456   -2.699706
    125          1           0       30.341024   -4.290069   -0.905916
    126          1           0       25.316470   -3.070976    2.838972
    127          1           0       26.831546    4.559111   -0.890581
    128          1           0       29.704515    4.063520   -1.508999
    129          1           0       28.278310    3.258788   -3.814821
    130          1           0       28.721319    4.902428   -3.201058
    131          1           0       27.104760    4.310118   -2.859392
    132          1           0       29.358767    4.873108    0.588567
    133          1           0       28.158265    4.207592    1.624356
    134          1           0       28.500461    6.803748    1.276149
    135          1           0       26.944476    6.225738    1.878520
    136          1           0       32.203392   -0.674069   -4.501510
    137          1           0       33.271350    0.076158   -3.347030
    138          1           0       31.782985    0.965453   -3.843098
    139          1           0       33.102205   -2.621700   -4.531694
    140          1           0       34.144717   -3.712968   -3.673776
    141          1           0       34.205254   -2.076284   -3.073790
    142          1           0       29.252503   -5.450007    1.246721
    143          1           0       26.436312   -5.333775    1.719372
    144          1           0       28.453903   -5.421500   -1.422941
    145          1           0       26.873602   -5.634434   -0.669990
    146          1           0       28.194691   -6.815122   -0.449774
    147          1           0       27.805523   -6.058220    3.439447
    148          1           0       27.080973   -4.486596    3.926140
    149          1           0       29.961035   -5.145876    3.653585
    150          1           0       29.007256   -4.414114    4.983220
    151          1           0       29.424501   -3.408016    3.666371
    152          1           0       23.654937   -1.444444    4.260379
    153          1           0       22.916226   -1.681304    2.659924
    154          1           0       22.654865   -0.209547    3.752896
    155          1           0       25.472919    4.061367    1.777824
    156          1           0       21.226221    4.901496    0.499023
    157          1           0       21.845031    3.910981   -0.835988
    158          1           0       22.180371    5.472391   -0.764308
 ---------------------------------------------------------------------

 SCF Done:  E(RPBE1PBE) =  -4067.37716301     A.U. after   16 cycles

 Excitation energies and oscillator strengths:

 Excited State   1:      Singlet-A      1.7302 eV  716.58 nm  f=0.0000  <S**2>=0.000
     312 -> 313        0.70711
 This state for optimization and/or second-order correction.
 Total Energy, E(TD-HF/TD-DFT) =  -4067.31357896
 Copying the excited state density for this state as the 1-particle RhoCI density.

 Excited State   2:      Singlet-A      1.8204 eV  681.10 nm  f=0.3652  <S**2>=0.000
     309 -> 316       -0.15127
     311 -> 313        0.70061
     311 <- 313       -0.12604

 Excited State   3:      Singlet-A      1.8555 eV  668.18 nm  f=0.3745  <S**2>=0.000
     310 -> 315       -0.16980
     312 -> 314        0.69319
     312 <- 314       -0.10777

 Excited State   4:      Singlet-A      2.1986 eV  563.93 nm  f=0.0000  <S**2>=0.000
     311 -> 314        0.70711

 Excited State   5:      Singlet-A      2.2281 eV  556.47 nm  f=0.1209  <S**2>=0.000
     310 -> 314        0.65665
     312 -> 315        0.24644

 The electronic state is 1-A.
 Alpha  occ. eigenvalues --  -46.92326 -46.91459 -19.26678 -19.25372 -19.20163
 Alpha  occ. eigenvalues --  -19.20032 -19.19545 -19.19333 -19.18983 -19.17793
 Alpha  occ. eigenvalues --  -14.41696 -14.41666 -14.41084 -14.40921 -14.39405
 Alpha  occ. eigenvalues --  -14.39302 -14.39212 -14.38632 -10.36195 -10.36031
 Alpha  occ. eigenvalues --  -10.33044 -10.32426 -10.31726 -10.31227 -10.29174
 Alpha  occ. eigenvalues --  -10.29116 -10.28567 -10.28484 -10.28437 -10.28371
 Alpha  occ. eigenvalues --  -10.28315 -10.28276 -10.28219 -10.28194 -10.27990
 Alpha  occ. eigenvalues --  -10.27723 -10.27658 -10.27648 -10.27609 -10.27550
 Alpha  occ. eigenvalues --  -10.27359 -10.26854 -10.26711 -10.26388 -10.26361
 Alpha  occ. eigenvalues --  -10.26321 -10.26253 -10.26059 -10.26022 -10.26009
 Alpha  occ. eigenvalues --  -10.25765 -10.25729 -10.25650 -10.25600 -10.25570
 Alpha  occ. eigenvalues --  -10.25519 -10.25503 -10.25454 -10.25318 -10.25245
 Alpha  occ. eigenvalues --  -10.25240 -10.25120 -10.25027 -10.24905 -10.24711
 Alpha  occ. eigenvalues --  -10.24699 -10.24589 -10.24568 -10.24270 -10.24246
 Alpha  occ. eigenvalues --  -10.24137 -10.24047 -10.23578 -10.23495 -10.23484
 Alpha  occ. eigenvalues --  -10.23465 -10.23321 -10.23181 -10.23180 -10.23148
 Alpha  occ. eigenvalues --  -10.23078 -10.22994 -10.22905 -10.22868 -10.22767
 Alpha  occ. eigenvalues --  -10.22123  -3.14564  -3.13639  -1.87373  -1.86934
 Alpha  occ. eigenvalues --   -1.86810  -1.86481  -1.85991  -1.85885  -1.12823
 Alpha  occ. eigenvalues --   -1.11217  -1.06565  -1.04885  -1.03765  -1.03189
 Alpha  occ. eigenvalues --   -1.02277  -1.01708  -0.99666  -0.98668  -0.98600
 Alpha  occ. eigenvalues --   -0.98345  -0.97876  -0.97273  -0.97163  -0.95973
 Alpha  occ. eigenvalues --   -0.87972  -0.86997  -0.83747  -0.83129  -0.82920
 Alpha  occ. eigenvalues --   -0.82375  -0.82329  -0.82014  -0.81802  -0.81307
 Alpha  occ. eigenvalues --   -0.81159  -0.80796  -0.80540  -0.80353  -0.78986
 Alpha  occ. eigenvalues --   -0.78305  -0.78170  -0.77611  -0.77417  -0.76519
 Alpha  occ. eigenvalues --   -0.76367  -0.75471  -0.75467  -0.75172  -0.75103
 Alpha  occ. eigenvalues --   -0.74181  -0.72895  -0.72041  -0.71743  -0.71603
 Alpha  occ. eigenvalues --   -0.71363  -0.70994  -0.70548  -0.70081  -0.69827
 Alpha  occ. eigenvalues --   -0.69331  -0.67766  -0.67331  -0.65624  -0.65364
 Alpha  occ. eigenvalues --   -0.63648  -0.63216  -0.63050  -0.63038  -0.62557
 Alpha  occ. eigenvalues --   -0.62298  -0.61410  -0.60849  -0.60244  -0.60089
 Alpha  occ. eigenvalues --   -0.59590  -0.59500  -0.59052  -0.59004  -0.58975
 Alpha  occ. eigenvalues --   -0.58373  -0.56895  -0.56577  -0.55407  -0.54428
 Alpha  occ. eigenvalues --   -0.54348  -0.53970  -0.53906  -0.53523  -0.53315
 Alpha  occ. eigenvalues --   -0.52896  -0.52733  -0.52575  -0.52359  -0.51809
 Alpha  occ. eigenvalues --   -0.50672  -0.50399  -0.50284  -0.50141  -0.49490
 Alpha  occ. eigenvalues --   -0.49421  -0.49206  -0.49013  -0.48734  -0.48480
 Alpha  occ. eigenvalues --   -0.48238  -0.47841  -0.47784  -0.47742  -0.47308
 Alpha  occ. eigenvalues --   -0.47044  -0.47012  -0.46996  -0.46788  -0.46500
 Alpha  occ. eigenvalues --   -0.46453  -0.46359  -0.46190  -0.46015  -0.45768
 Alpha  occ. eigenvalues --   -0.45546  -0.45529  -0.45068  -0.44893  -0.44546
 Alpha  occ. eigenvalues --   -0.44415  -0.44401  -0.44387  -0.44351  -0.44037
 Alpha  occ. eigenvalues --   -0.44033  -0.43858  -0.43803  -0.43511  -0.43442
 Alpha  occ. eigenvalues --   -0.43261  -0.42987  -0.42949  -0.42802  -0.42582
 Alpha  occ. eigenvalues --   -0.42513  -0.42429  -0.42285  -0.42157  -0.41949
 Alpha  occ. eigenvalues --   -0.41671  -0.41328  -0.41256  -0.41049  -0.41010
 Alpha  occ. eigenvalues --   -0.40915  -0.40886  -0.40722  -0.40400  -0.40243
 Alpha  occ. eigenvalues --   -0.40088  -0.39920  -0.39728  -0.39646  -0.39632
 Alpha  occ. eigenvalues --   -0.39523  -0.39485  -0.39257  -0.39219  -0.38928
 Alpha  occ. eigenvalues --   -0.38787  -0.38490  -0.38448  -0.38363  -0.38141
 Alpha  occ. eigenvalues --   -0.38133  -0.37877  -0.37862  -0.37737  -0.37638
 Alpha  occ. eigenvalues --   -0.37514  -0.37467  -0.37232  -0.37034  -0.36853
 Alpha  occ. eigenvalues --   -0.36849  -0.36611  -0.36376  -0.36197  -0.36132
 Alpha  occ. eigenvalues --   -0.35701  -0.35682  -0.35626  -0.35519  -0.35157
 Alpha  occ. eigenvalues --   -0.34694  -0.34475  -0.34363  -0.34216  -0.34071
 Alpha  occ. eigenvalues --   -0.33552  -0.33107  -0.32764  -0.32656  -0.32450
 Alpha  occ. eigenvalues --   -0.32242  -0.32063  -0.31915  -0.31521  -0.31493
 Alpha  occ. eigenvalues --   -0.31184  -0.30675  -0.29831  -0.29587  -0.29166
 Alpha  occ. eigenvalues --   -0.29084  -0.28661  -0.28240  -0.27211  -0.27114
 Alpha  occ. eigenvalues --   -0.26267  -0.26121  -0.25743  -0.25564  -0.25494
 Alpha  occ. eigenvalues --   -0.25449  -0.25146  -0.24714  -0.21236  -0.20661
 Alpha  occ. eigenvalues --   -0.19302  -0.18588
 Alpha virt. eigenvalues --   -0.11994  -0.10984  -0.04900  -0.04420  -0.03925
 Alpha virt. eigenvalues --   -0.03611  -0.02232  -0.01893  -0.01018  -0.00463
 Alpha virt. eigenvalues --   -0.00309   0.00568   0.00938   0.01528   0.01635

 Mulliken charges:
               1
     1  Mg  12.000000
     2  C    6.000000
     3  C    6.000000
     4  C    6.000000
     5  C    6.000000
     6  N    7.000000
     7  C    6.000000
     8  C    6.000000
     9  C    6.000000
    10  C    6.000000
    11  C    6.000000
    12  C    6.000000
    13  C    6.000000
    14  H    1.000000
    15  N    7.000000
    16  C    6.000000
    17  C    6.000000
    18  C    6.000000
    19  C    6.000000
    20  C    6.000000
    21  C    6.000000
    22  O    8.000000
    23  C    6.000000
    24  N    7.000000
    25  C    6.000000
    26  C    6.000000
    27  C    6.000000
    28  C    6.000000
    29  C    6.000000
    30  C    6.000000
    31  C    6.000000
    32  N    7.000000
    33  C    6.000000
    34  C    6.000000
    35  C    6.000000
    36  C    6.000000
    37  C    6.000000
    38  C    6.000000
    39  O    8.000000
    40  C    6.000000
    41  C    6.000000
    42  O    8.000000
    43  O    8.000000
    44  C    6.000000
    45  H    1.000000
    46  H    1.000000
    47  H    1.000000
    48  H    1.000000
    49  H    1.000000
    50  H    1.000000
    51  H    1.000000
    52  H    1.000000
    53  H    1.000000
    54  H    1.000000
    55  H    1.000000
    56  H    1.000000
    57  H    1.000000
    58  H    1.000000
    59  H    1.000000
    60  H    1.000000
    61  H    1.000000
    62  H    1.000000
    63  H    1.000000
    64  H    1.000000
    65  H    1.000000
    66  H    1.000000
    67  H    1.000000
    68  H    1.000000
    69  H    1.000000
    70  H    1.000000
    71  H    1.000000
    72  H    1.000000
    73  H    1.000000
    74  H    1.000000
    75  H    1.000000
    76  H    1.000000
    77  H    1.000000
    78  H    1.000000
    79  H    1.000000
    80  Mg  12.000000
    81  C    6.000000
    82  C    6.000000
    83  C    6.000000
    84  C    6.000000
    85  N    7.000000
    86  C    6.000000
    87  C    6.000000
    88  C    6.000000
    89  C    6.000000
    90  C    6.000000
    91  C    6.000000
    92  C    6.000000
    93  H    1.000000
    94  N    7.000000
    95  C    6.000000
    96  C    6.000000
    97  C    6.000000
    98  C    6.000000
    99  C    6.000000
   100  C    6.000000
   101  O    8.000000
   102  C    6.000000
   103  N    7.000000
   104  C    6.000000
   105  C    6.000000
   106  C    6.000000
   107  C    6.000000
   108  C    6.000000
   109  C    6.000000
   110  C    6.000000
   111  N    7.000000
   112  C    6.000000
   113  C    6.000000
   114  C    6.000000
   115  C    6.000000
   116  C    6.000000
   117  C    6.000000
   118  O    8.000000
   119  C    6.000000
   120  C    6.000000
   121  O    8.000000
   122  O    8.000000
   123  C    6.000000
   124  H    1.000000
   125  H    1.000000
   126  H    1.000000
   127  H    1.000000
   128  H    1.000000
   129  H    1.000000
   130  H    1.000000
   131  H    1.000000
   132  H    1.000000
   133  H    1.000000
   134  H    1.000000
   135  H    1.000000
   136  H    1.000000
   137  H    1.000000
   138  H    1.000000
   139  H    1.000000
   140  H    1.000000
   141  H    1.000000
   142  H    1.000000
   143  H    1.000000
   144  H    1.000000
   145  H    1.000000
   146  H    1.000000
   147  H    1.000000
   148  H    1.000000
   149  H    1.000000
   150  H    1.000000
   151  H    1.000000
   152  H    1.000000
   153  H    1.000000
   154  H    1.000000
   155  H    1.000000
   156  H    1.000000
   157  H    1.000000
   158  H    1.000000
 Sum of Mulliken charges = 624.00000

 Dipole moment (field-independent basis, Debye):
    X=              0.0000    Y=             -0.0000    Z=             -0.0000  Tot=              0.0000
 Quadrupole moment (field-independent basis, Debye-Ang):
   XX=             -0.0000   YY=             -0.0000   ZZ=              0.0000
   XY=             -0.0000   XZ=              0.0000   YZ=             -0.0000

 Normal termination of Gaussian 16 at Thu Oct 14 02:11:14 2021.
