 Gaussian 16, Revision A.03,
 Gaussian 16:  ES64L-G16RevA.03 25-Dec-2016

 --------------------------------------------------------
 #p PBE1PBE/Def2SVP td=(nstates=5) density=(transition=1)
 --------------------------------------------------------

 --------------------------------
 TDDFT excited states in gaussian
 --------------------------------
 Symbolic Z-matrix:
 Charge =  0 Multiplicity = 1

                         Standard orientation:
 ---------------------------------------------------------------------
 Center     Atomic      Atomic             Coordinates (Angstroms)
 Number     Number       Type             X           Y           Z
 ---------------------------------------------------------------------
      1         12           0      -25.987116   -0.347248    0.528792
      2          6           0      -24.887743    2.046400   -1.738184
      3          6           0      -26.867372   -2.347152   -2.035393
      4          6           0      -27.738587   -2.284433    2.677931
      5          6           0      -25.816001    2.105017    3.080431
      6          7           0      -25.771700   -0.124917   -1.576814
      7          6           0      -25.164024    0.836659   -2.354392
      8          6           0      -25.254745    0.457566   -3.858236
      9          6           0      -26.364288   -0.638426   -3.828396
     10          6           0      -26.261424   -1.155836   -2.401143
     11          6           0      -27.813942   -0.113767   -4.121369
     12          6           0      -23.829567    0.150492   -4.353384
     13          6           0      -23.516158    0.706683   -5.690088
     14          1           0      -22.090648    0.836181   -5.985498
     15          7           0      -26.932889   -2.170356    0.349923
     16          6           0      -27.131016   -2.857904   -0.804423
     17          6           0      -27.520822   -4.204840   -0.470819
     18          6           0      -27.778418   -4.186488    0.947434
     19          6           0      -27.560659   -2.801074    1.373911
     20          6           0      -27.726683   -5.277691   -1.479297
     21          6           0      -28.351608   -5.281285    1.905244
     22          8           0      -28.503224   -5.098704    3.114857
     23          6           0      -28.617486   -6.679181    1.420717
     24          7           0      -26.967924    0.055577    2.500901
     25          6           0      -27.533679   -1.026981    3.228210
     26          6           0      -27.816532   -0.699377    4.657011
     27          6           0      -26.980111    0.617457    4.758433
     28          6           0      -26.488167    0.924971    3.346570
     29          6           0      -29.338916   -0.549037    4.993152
     30          6           0      -25.755425    0.506413    5.738412
     31          6           0      -24.813668   -0.701862    5.502741
     32          7           0      -25.370179    1.626932    0.711236
     33          6           0      -25.308853    2.482341    1.822195
     34          6           0      -24.771483    3.706645    1.359014
     35          6           0      -24.574560    3.553362   -0.007719
     36          6           0      -24.960795    2.296474   -0.338750
     37          6           0      -24.441676    4.888529    2.214018
     38          6           0      -24.199978    4.239425   -1.154063
     39          8           0      -23.823720    5.418724   -1.282629
     40          6           0      -24.350472    3.323646   -2.406070
     41          6           0      -22.899748    3.250607   -2.976712
     42          8           0      -21.939847    2.672722   -2.436403
     43          8           0      -22.876398    3.945225   -4.181263
     44          6           0      -21.547741    4.240287   -4.805892
     45          1           0      -27.193293   -2.857751   -2.944058
     46          1           0      -28.150059   -2.819102    3.537408
     47          1           0      -25.545918    2.823180    3.857519
     48          1           0      -25.542053    1.325783   -4.450370
     49          1           0      -26.081010   -1.450336   -4.497559
     50          1           0      -27.898634    0.938780   -4.393199
     51          1           0      -28.426102   -0.159608   -3.221576
     52          1           0      -28.218155   -0.663068   -4.971405
     53          1           0      -23.796213   -0.929325   -4.491328
     54          1           0      -23.132855    0.502342   -3.592050
     55          1           0      -23.920942    1.718868   -5.687924
     56          1           0      -24.065191    0.136039   -6.438849
     57          1           0      -27.228914   -5.041894   -2.419704
     58          1           0      -28.788336   -5.526206   -1.498391
     59          1           0      -27.227519   -6.186209   -1.142173
     60          1           0      -29.377994   -7.060464    2.102530
     61          1           0      -27.729525   -7.302607    1.527934
     62          1           0      -29.023385   -6.691930    0.408715
     63          1           0      -27.403513   -1.418562    5.365711
     64          1           0      -27.636249    1.422727    5.090343
     65          1           0      -29.886205   -0.352206    4.070893
     66          1           0      -29.612539    0.247379    5.685396
     67          1           0      -29.816983   -1.420368    5.441665
     68          1           0      -26.177038    0.540509    6.743137
     69          1           0      -25.249170    1.463645    5.614317
     70          1           0      -23.788307   -0.399606    5.288785
     71          1           0      -25.236056   -1.268569    4.672496
     72          1           0      -24.759091   -1.366502    6.364414
     73          1           0      -24.994410    5.724784    1.786020
     74          1           0      -23.359787    5.019696    2.194267
     75          1           0      -24.778221    4.826892    3.249003
     76          1           0      -24.987456    3.836305   -3.126367
     77          1           0      -21.001621    4.843138   -4.080695
     78          1           0      -21.541273    4.777998   -5.753959
     79          1           0      -21.207530    3.207371   -4.880186
     80         12           0       26.543547    0.181468   -0.054605
     81          6           0       23.831069   -1.823860   -0.885425
     82          6           0       24.238546    2.919390   -0.102540
     83          6           0       28.882892    2.118790    1.202189
     84          6           0       28.395318   -2.730362    0.616154
     85          7           0       24.283259    0.464115   -0.331218
     86          6           0       23.431548   -0.530307   -0.757236
     87          6           0       22.013272    0.023821   -0.917559
     88          6           0       22.272441    1.555791   -0.928981
     89          6           0       23.670255    1.685341   -0.383420
     90          6           0       22.152154    2.330841   -2.299602
     91          6           0       21.059198   -0.427605    0.200461
     92          6           0       19.635260   -0.066502    0.012968
     93          1           0       18.568349   -0.919059    0.800333
     94          7           0       26.577691    2.260530    0.501645
     95          6           0       25.549398    3.208013    0.379213
     96          6           0       26.054088    4.473303    0.834658
     97          6           0       27.379363    4.231892    1.353773
     98          6           0       27.679041    2.801655    0.998820
     99          6           0       25.185731    5.760663    0.885227
    100          6           0       28.219870    5.326594    2.018731
    101          8           0       27.874938    6.496643    2.014358
    102          6           0       29.492387    4.953518    2.678279
    103          7           0       28.461133   -0.251079    0.580711
    104          6           0       29.240975    0.745090    1.014264
    105          6           0       30.584065    0.153022    1.605295
    106          6           0       30.452607   -1.414372    1.490426
    107          6           0       28.945805   -1.498880    0.886814
    108          6           0       31.920091    0.723699    1.061221
    109          6           0       30.546894   -2.062424    2.888332
    110          6           0       31.122681   -3.483552    2.911938
    111          7           0       26.255590   -1.898083   -0.100303
    112          6           0       27.112849   -2.948954    0.069717
    113          6           0       26.423403   -4.180113   -0.334492
    114          6           0       25.200141   -3.767220   -0.790044
    115          6           0       25.095799   -2.411031   -0.579073
    116          6           0       27.033225   -5.585136   -0.371674
    117          6           0       23.951984   -4.229611   -1.318186
    118          8           0       23.566823   -5.325900   -1.642503
    119          6           0       23.013564   -2.980686   -1.416142
    120          6           0       22.709227   -2.760422   -2.856736
    121          8           0       23.491707   -2.713589   -3.765021
    122          8           0       21.340233   -2.467786   -2.983801
    123          6           0       20.894355   -2.148887   -4.310240
    124          1           0       23.485344    3.697923   -0.237087
    125          1           0       29.756311    2.635787    1.606202
    126          1           0       28.966226   -3.652274    0.745954
    127          1           0       21.692699   -0.268362   -1.916623
    128          1           0       21.676545    2.144747   -0.232621
    129          1           0       21.484528    3.161657   -2.072294
    130          1           0       22.058253    1.741312   -3.211994
    131          1           0       23.117256    2.809669   -2.464485
    132          1           0       21.240403    0.013313    1.181070
    133          1           0       21.140362   -1.505341    0.342302
    134          1           0       19.436190   -0.131748   -1.056711
    135          1           0       19.503648    0.985856    0.264002
    136          1           0       25.026953    5.770447    1.964028
    137          1           0       24.178705    5.674395    0.476609
    138          1           0       25.532322    6.734672    0.539365
    139          1           0       29.231620    4.109202    3.316415
    140          1           0       29.797094    5.775622    3.326091
    141          1           0       30.145284    4.702457    1.841979
    142          1           0       30.585293    0.437543    2.657885
    143          1           0       31.146607   -1.888796    0.797334
    144          1           0       32.350947    1.363303    1.832182
    145          1           0       31.725093    1.211036    0.106506
    146          1           0       32.646237   -0.081784    0.951826
    147          1           0       29.525671   -2.051124    3.268371
    148          1           0       31.079686   -1.458935    3.623475
    149          1           0       31.973601   -3.388528    3.587351
    150          1           0       31.374483   -3.887873    1.931439
    151          1           0       30.420732   -4.167645    3.388942
    152          1           0       26.415598   -6.391760    0.021899
    153          1           0       27.950303   -5.443668    0.200704
    154          1           0       27.414140   -5.718167   -1.384371
    155          1           0       22.114292   -3.230555   -0.853006
    156          1           0       20.288007   -2.992349   -4.640544
    157          1           0       21.629564   -1.922896   -5.082945
    158          1           0       20.284815   -1.248567   -4.237774
 ---------------------------------------------------------------------

 SCF Done:  E(RPBE1PBE) =  -4067.38487322     A.U. after   16 cycles

 Excitation energies and oscillator strengths:

 Excited State   1:      Singlet-A      1.8237 eV  679.85 nm  f=0.3592  <S**2>=0.000
     310 -> 316        0.15432
     312 -> 314        0.69685
     312 <- 314       -0.11765
 This state for optimization and/or second-order correction.
 Total Energy, E(TD-HF/TD-DFT) =  -4067.31785378
 Copying the excited state density for this state as the 1-particle RhoCI density.

 Excited State   2:      Singlet-A      1.9036 eV  651.32 nm  f=0.3836  <S**2>=0.000
     309 -> 315       -0.17024
     311 -> 313        0.69344
     311 <- 313       -0.10646

 Excited State   3:      Singlet-A      1.9257 eV  643.83 nm  f=0.0000  <S**2>=0.000
     312 -> 313        0.70711

 Excited State   4:      Singlet-A      2.0682 eV  599.49 nm  f=0.0000  <S**2>=0.000
     311 -> 314        0.70711

 Excited State   5:      Singlet-A      2.2325 eV  555.36 nm  f=0.1213  <S**2>=0.000
     310 -> 314        0.65176
     312 -> 316       -0.24373

 The electronic state is 1-A.
 Alpha  occ. eigenvalues --  -46.93037 -46.91711 -19.25666 -19.25402 -19.20741
 Alpha  occ. eigenvalues --  -19.20226 -19.18990 -19.18950 -19.18707 -19.17860
 Alpha  occ. eigenvalues --  -14.42219 -14.41787 -14.41548 -14.40925 -14.39728
 Alpha  occ. eigenvalues --  -14.39025 -14.38895 -14.38156 -10.37068 -10.36571
 Alpha  occ. eigenvalues --  -10.32466 -10.31803 -10.31484 -10.30732 -10.29889
 Alpha  occ. eigenvalues --  -10.29170 -10.29062 -10.28925 -10.28662 -10.28605
 Alpha  occ. eigenvalues --  -10.28532 -10.28491 -10.28448 -10.28369 -10.28130
 Alpha  occ. eigenvalues --  -10.28005 -10.27861 -10.27296 -10.26953 -10.26944
 Alpha  occ. eigenvalues --  -10.26896 -10.26326 -10.26149 -10.26137 -10.26085
 Alpha  occ. eigenvalues --  -10.26065 -10.26009 -10.25978 -10.25934 -10.25904
 Alpha  occ. eigenvalues --  -10.25768 -10.25748 -10.25715 -10.25511 -10.25471
 Alpha  occ. eigenvalues --  -10.25468 -10.25394 -10.25327 -10.25253 -10.25236
 Alpha  occ. eigenvalues --  -10.25178 -10.24997 -10.24985 -10.24844 -10.24676
 Alpha  occ. eigenvalues --  -10.24478 -10.24272 -10.24231 -10.24188 -10.24019
 Alpha  occ. eigenvalues --  -10.23986 -10.23963 -10.23925 -10.23902 -10.23738
 Alpha  occ. eigenvalues --  -10.23715 -10.23591 -10.23356 -10.23297 -10.23246
 Alpha  occ. eigenvalues --  -10.23234 -10.23118 -10.23096 -10.22977 -10.21929
 Alpha  occ. eigenvalues --  -10.21388  -3.15041  -3.13885  -1.87887  -1.87419
 Alpha  occ. eigenvalues --   -1.87250  -1.86705  -1.86263  -1.86110  -1.11419
 Alpha  occ. eigenvalues --   -1.09143  -1.05277  -1.04664  -1.04229  -1.03718
 Alpha  occ. eigenvalues --   -1.02615  -1.01441  -0.99443  -0.99290  -0.98596
 Alpha  occ. eigenvalues --   -0.98436  -0.98291  -0.98162  -0.97452  -0.96852
 Alpha  occ. eigenvalues --   -0.87756  -0.86885  -0.83653  -0.83478  -0.83459
 Alpha  occ. eigenvalues --   -0.83308  -0.83108  -0.82891  -0.82448  -0.82111
 Alpha  occ. eigenvalues --   -0.81433  -0.80872  -0.80843  -0.80191  -0.79416
 Alpha  occ. eigenvalues --   -0.78884  -0.78352  -0.77795  -0.77331  -0.76767
 Alpha  occ. eigenvalues --   -0.76461  -0.75795  -0.75680  -0.75250  -0.75229
 Alpha  occ. eigenvalues --   -0.74719  -0.72550  -0.72093  -0.71706  -0.71365
 Alpha  occ. eigenvalues --   -0.71268  -0.71212  -0.70543  -0.70330  -0.69832
 Alpha  occ. eigenvalues --   -0.69823  -0.67783  -0.67674  -0.66485  -0.66470
 Alpha  occ. eigenvalues --   -0.64131  -0.63776  -0.63421  -0.63186  -0.62306
 Alpha  occ. eigenvalues --   -0.61977  -0.61054  -0.60937  -0.60497  -0.60115
 Alpha  occ. eigenvalues --   -0.59851  -0.59425  -0.59116  -0.59077  -0.59022
 Alpha  occ. eigenvalues --   -0.58557  -0.57311  -0.56155  -0.54705  -0.54548
 Alpha  occ. eigenvalues --   -0.54453  -0.54307  -0.53868  -0.53760  -0.53337
 Alpha  occ. eigenvalues --   -0.53111  -0.53104  -0.52243  -0.52167  -0.51350
 Alpha  occ. eigenvalues --   -0.51105  -0.50557  -0.50410  -0.50139  -0.49936
 Alpha  occ. eigenvalues --   -0.49872  -0.49484  -0.49456  -0.49300  -0.48964
 Alpha  occ. eigenvalues --   -0.48605  -0.48152  -0.48059  -0.47825  -0.47645
 Alpha  occ. eigenvalues --   -0.47547  -0.47526  -0.47426  -0.47331  -0.47015
 Alpha  occ. eigenvalues --   -0.46564  -0.46485  -0.46314  -0.46131  -0.46110
 Alpha  occ. eigenvalues --   -0.46025  -0.45464  -0.45326  -0.45055  -0.44974
 Alpha  occ. eigenvalues --   -0.44938  -0.44875  -0.44521  -0.44132  -0.44031
 Alpha  occ. eigenvalues --   -0.43965  -0.43828  -0.43761  -0.43589  -0.43364
 Alpha  occ. eigenvalues --   -0.43357  -0.43179  -0.42873  -0.42771  -0.42734
 Alpha  occ. eigenvalues --   -0.42652  -0.42332  -0.42244  -0.42058  -0.42028
 Alpha  occ. eigenvalues --   -0.41920  -0.41766  -0.41670  -0.41323  -0.41128
 Alpha  occ. eigenvalues --   -0.41106  -0.41041  -0.40871  -0.40698  -0.40567
 Alpha  occ. eigenvalues --   -0.40534  -0.40263  -0.40129  -0.39862  -0.39373
 Alpha  occ. eigenvalues --   -0.39366  -0.39159  -0.39041  -0.38940  -0.38651
 Alpha  occ. eigenvalues --   -0.38521  -0.38392  -0.38307  -0.38219  -0.38193
 Alpha  occ. eigenvalues --   -0.38024  -0.37967  -0.37842  -0.37797  -0.37636
 Alpha  occ. eigenvalues --   -0.37584  -0.37259  -0.37165  -0.37107  -0.36829
 Alpha  occ. eigenvalues --   -0.36779  -0.36681  -0.36538  -0.36398  -0.36378
 Alpha  occ. eigenvalues --   -0.35967  -0.35758  -0.35484  -0.35470  -0.35225
 Alpha  occ. eigenvalues --   -0.35101  -0.34874  -0.34748  -0.34654  -0.33998
 Alpha  occ. eigenvalues --   -0.33737  -0.33202  -0.33046  -0.33023  -0.32686
 Alpha  occ. eigenvalues --   -0.32392  -0.31957  -0.31912  -0.31622  -0.31513
 Alpha  occ. eigenvalues --   -0.31139  -0.30994  -0.30150  -0.29569  -0.29297
 Alpha  occ. eigenvalues --   -0.29254  -0.29103  -0.28709  -0.27396  -0.26989
 Alpha  occ. eigenvalues --   -0.26028  -0.25804  -0.25651  -0.25603  -0.25313
 Alpha  occ. eigenvalues --   -0.25123  -0.25025  -0.24795  -0.21557  -0.21161
 Alpha  occ. eigenvalues --   -0.19274  -0.18839
 Alpha virt. eigenvalues --   -0.11511  -0.11422  -0.05480  -0.05129  -0.03662
 Alpha virt. eigenvalues --   -0.03319  -0.02016  -0.01723  -0.00735  -0.00505
 Alpha virt. eigenvalues --    0.00292   0.00383   0.00671   0.00732   0.01824

 Mulliken charges:
               1
     1  Mg  12.002439
     2  C    5.975390
     3  C    6.003129
     4  C    6.032080
     5  C    6.016643
     6  N    6.979239
     7  C    6.032383
     8  C    5.996883
     9  C    6.006530
    10  C    5.976429
    11  C    6.003330
    12  C    5.994123
    13  C    6.000583
    14  H    0.998670
    15  N    7.006623
    16  C    5.964785
    17  C    5.980402
    18  C    5.987335
    19  C    5.962245
    20  C    6.003336
    21  C    5.987486
    22  O    7.970748
    23  C    6.004968
    24  N    7.016503
    25  C    5.958247
    26  C    6.014791
    27  C    5.992772
    28  C    6.017944
    29  C    5.999519
    30  C    5.992249
    31  C    5.994611
    32  N    6.998088
    33  C    6.026911
    34  C    6.030801
    35  C    5.999880
    36  C    6.027455
    37  C    5.997084
    38  C    6.014521
    39  O    8.029040
    40  C    6.003681
    41  C    6.003311
    42  O    8.003472
    43  O    8.001562
    44  C    5.999428
    45  H    0.985970
    46  H    0.996004
    47  H    1.015950
    48  H    0.998509
    49  H    0.998729
    50  H    0.984175
    51  H    1.000595
    52  H    0.996708
    53  H    1.011873
    54  H    0.994338
    55  H    0.996276
    56  H    1.005448
    57  H    0.985589
    58  H    0.981522
    59  H    0.982665
    60  H    0.987039
    61  H    0.989373
    62  H    0.996052
    63  H    0.999193
    64  H    1.002806
    65  H    1.000465
    66  H    0.990764
    67  H    1.003457
    68  H    1.009703
    69  H    0.993497
    70  H    0.997318
    71  H    1.013355
    72  H    1.006737
    73  H    1.017422
    74  H    1.018760
    75  H    1.016151
    76  H    1.008104
    77  H    0.999103
    78  H    1.004344
    79  H    1.004356
    80  Mg  11.999995
    81  C    5.999852
    82  C    6.000010
    83  C    6.000195
    84  C    5.999962
    85  N    6.999999
    86  C    6.000148
    87  C    5.999991
    88  C    6.000016
    89  C    5.999930
    90  C    5.999997
    91  C    6.000010
    92  C    6.000009
    93  H    0.999976
    94  N    7.000002
    95  C    5.999923
    96  C    5.999942
    97  C    5.999962
    98  C    5.999846
    99  C    6.000000
   100  C    5.999967
   101  O    7.999923
   102  C    5.999993
   103  N    7.000019
   104  C    5.999838
   105  C    6.000019
   106  C    5.999979
   107  C    6.000120
   108  C    6.000003
   109  C    5.999991
   110  C    5.999993
   111  N    7.000037
   112  C    6.000062
   113  C    6.000068
   114  C    5.999973
   115  C    6.000111
   116  C    6.000011
   117  C    6.000065
   118  O    8.000099
   119  C    6.000012
   120  C    6.000004
   121  O    8.000022
   122  O    8.000009
   123  C    6.000002
   124  H    0.999931
   125  H    0.999967
   126  H    1.000050
   127  H    0.999994
   128  H    0.999966
   129  H    0.999956
   130  H    0.999970
   131  H    1.000012
   132  H    1.000004
   133  H    0.999992
   134  H    0.999998
   135  H    0.999986
   136  H    0.999947
   137  H    0.999937
   138  H    0.999945
   139  H    0.999990
   140  H    0.999969
   141  H    0.999991
   142  H    1.000002
   143  H    1.000021
   144  H    1.000004
   145  H    1.000002
   146  H    1.000001
   147  H    0.999995
   148  H    1.000028
   149  H    1.000026
   150  H    1.000007
   151  H    1.000004
   152  H    1.000062
   153  H    1.000051
   154  H    1.000072
   155  H    1.000022
   156  H    1.000014
   157  H    1.000012
   158  H    0.999986
 Sum of Mulliken charges = 624.00000

 Dipole moment (field-independent basis, Debye):
    X=              3.8798    Y=              9.2822    Z=              1.6326  Tot=             10.1920
 Quadrupole moment (field-independent basis, Debye-Ang):
   XX=           -202.6036   YY=             -5.4962   ZZ=              3.1793
   XY=           -245.6142   XZ=            -42.1962   YZ=              4.5853

 Normal termination of Gaussian 16 at Thu Oct 14 17:11:41 2021.
