 Gaussian 16, Revision A.03,
 Gaussian 16:  ES64L-G16RevA.03 25-Dec-2016

 --------------------------------------------------------
 #p PBE1PBE/Def2SVP td=(nstates=5) density=(transition=1)
 --------------------------------------------------------

 --------------------------------
 TDDFT excited states in gaussian
 --------------------------------
 Symbolic Z-matrix:
 Charge =  0 Multiplicity = 1

                         Standard orientation:
 ---------------------------------------------------------------------
 Center     Atomic      Atomic             Coordinates (Angstroms)
 Number     Number       Type             X           Y           Z
 ---------------------------------------------------------------------
      1         12           0       28.394998    0.345188   -0.227762
      2          6           0       26.271089   -2.312516   -0.102798
      3          6           0       25.898220    2.232612    1.266553
      4          6           0       30.617170    2.852178   -0.005172
      5          6           0       31.047302   -1.794770   -1.106187
      6          7           0       26.400599   -0.087809    0.734974
      7          6           0       25.759427   -1.265037    0.592110
      8          6           0       24.455703   -1.293308    1.302660
      9          6           0       24.190091    0.334610    1.411445
     10          6           0       25.593559    0.905687    1.118745
     11          6           0       23.063906    0.828685    0.456149
     12          6           0       24.627498   -1.946612    2.664806
     13          6           0       25.722188   -1.368372    3.676255
     14          1           0       25.418221   -1.266500    5.165759
     15          7           0       28.287297    2.263956    0.519382
     16          6           0       27.117074    2.919782    0.978457
     17          6           0       27.442987    4.298834    1.127267
     18          6           0       28.781527    4.521400    0.828739
     19          6           0       29.313838    3.222561    0.383494
     20          6           0       26.348712    5.243650    1.580782
     21          6           0       29.561353    5.803705    0.995455
     22          8           0       28.911618    6.780318    1.445219
     23          6           0       30.974841    5.945773    0.891031
     24          7           0       30.578741    0.431856   -0.311464
     25          6           0       31.239540    1.623321   -0.247733
     26          6           0       32.760391    1.433534   -0.461496
     27          6           0       32.865561   -0.088116   -0.815769
     28          6           0       31.423302   -0.542272   -0.667342
     29          6           0       33.343203    2.357149   -1.509742
     30          6           0       33.902432   -0.849606    0.170421
     31          6           0       34.812311   -1.859267   -0.538582
     32          7           0       28.697472   -1.703498   -0.575474
     33          6           0       29.734411   -2.399525   -1.109276
     34          6           0       29.223181   -3.690269   -1.482772
     35          6           0       27.823350   -3.749052   -1.159491
     36          6           0       27.574424   -2.513654   -0.584793
     37          6           0       30.053715   -4.864947   -1.872146
     38          6           0       26.626322   -4.523054   -1.081456
     39          8           0       26.512141   -5.680809   -1.503268
     40          6           0       25.589881   -3.619955   -0.438751
     41          6           0       24.448762   -3.470574   -1.374341
     42          8           0       23.864894   -4.463884   -1.760867
     43          8           0       24.104497   -2.182217   -1.648559
     44          6           0       22.964295   -2.021895   -2.553077
     45          1           0       25.044081    2.880988    1.472169
     46          1           0       31.258647    3.723374   -0.152276
     47          1           0       31.772613   -2.479385   -1.551520
     48          1           0       23.623811   -1.817368    0.832003
     49          1           0       23.751907    0.592921    2.376363
     50          1           0       22.273171    1.309821    1.030617
     51          1           0       22.639211   -0.058334   -0.014635
     52          1           0       23.400363    1.495486   -0.338812
     53          1           0       24.756308   -3.015026    2.490380
     54          1           0       23.607197   -1.942814    3.048117
     55          1           0       26.072175   -0.357376    3.467281
     56          1           0       26.511950   -2.114165    3.590683
     57          1           0       26.345355    5.179730    2.669063
     58          1           0       25.390878    4.874085    1.216751
     59          1           0       26.445610    6.283721    1.267949
     60          1           0       31.350814    6.741655    1.534702
     61          1           0       31.332912    6.008288   -0.137385
     62          1           0       31.376081    5.054132    1.370870
     63          1           0       33.173242    1.631941    0.528206
     64          1           0       33.101433   -0.197446   -1.874136
     65          1           0       32.638752    3.095676   -1.891472
     66          1           0       33.911949    1.967955   -2.353797
     67          1           0       33.989857    3.004227   -0.916374
     68          1           0       33.420053   -1.398995    0.978934
     69          1           0       34.524010   -0.150363    0.729423
     70          1           0       35.816645   -1.438295   -0.576790
     71          1           0       34.487171   -1.939315   -1.576094
     72          1           0       34.841484   -2.828897   -0.041282
     73          1           0       30.559816   -4.826920   -2.836027
     74          1           0       29.374437   -5.717389   -1.834099
     75          1           0       30.868637   -5.042023   -1.170174
     76          1           0       25.252666   -4.138679    0.459116
     77          1           0       22.112806   -2.537945   -2.108574
     78          1           0       23.168548   -2.352101   -3.571704
     79          1           0       22.772175   -0.966415   -2.745271
     80         12           0      -28.683209   -0.286311   -0.575805
     81          6           0      -25.312681    0.728617   -0.380800
     82          6           0      -27.785444   -3.140337    1.053831
     83          6           0      -32.007972   -0.910484   -0.088145
     84          6           0      -29.375278    2.994824   -1.782126
     85          7           0      -26.751296   -1.055510    0.382244
     86          6           0      -25.477499   -0.589046    0.226344
     87          6           0      -24.450713   -1.423983    1.010866
     88          6           0      -25.305553   -2.783326    1.073773
     89          6           0      -26.711947   -2.301783    0.817321
     90          6           0      -24.892646   -3.886291    0.062584
     91          6           0      -24.127634   -0.875800    2.473225
     92          6           0      -22.801053   -1.243143    3.120024
     93          1           0      -22.712826   -2.195972    4.331163
     94          7           0      -29.850871   -1.846088    0.333730
     95          6           0      -29.252392   -2.975484    0.811755
     96          6           0      -30.197648   -3.960774    1.101947
     97          6           0      -31.470537   -3.367823    0.757940
     98          6           0      -31.186112   -1.967427    0.334923
     99          6           0      -29.877855   -5.352408    1.634391
    100          6           0      -32.777006   -4.119108    0.879513
    101          8           0      -32.772881   -5.309778    1.285718
    102          6           0      -34.160903   -3.539259    0.419810
    103          7           0      -30.365276    0.892883   -0.907048
    104          6           0      -31.666988    0.382495   -0.652369
    105          6           0      -32.698590    1.261557   -1.303019
    106          6           0      -31.971689    2.605569   -1.525524
    107          6           0      -30.480590    2.160597   -1.487144
    108          6           0      -33.317908    0.848219   -2.657266
    109          6           0      -32.263917    3.667112   -0.339010
    110          6           0      -33.526277    4.512597   -0.415467
    111          7           0      -27.525850    1.430763   -1.164650
    112          6           0      -27.941587    2.666347   -1.637637
    113          6           0      -26.878321    3.533307   -1.805609
    114          6           0      -25.766881    2.793117   -1.367396
    115          6           0      -26.225811    1.527417   -0.965325
    116          6           0      -26.977532    4.928398   -2.336995
    117          6           0      -24.403140    2.802031   -1.274901
    118          8           0      -23.596099    3.619243   -1.671949
    119          6           0      -24.087652    1.572417   -0.397440
    120          6           0      -23.684815    2.140291    0.930725
    121          8           0      -24.375463    2.854236    1.589027
    122          8           0      -22.371922    1.774860    1.233402
    123          6           0      -21.886245    2.425376    2.400415
    124          1           0      -27.517869   -4.147161    1.381919
    125          1           0      -33.075218   -1.136463   -0.145456
    126          1           0      -29.649482    3.925024   -2.283670
    127          1           0      -23.569484   -1.665792    0.417614
    128          1           0      -25.138092   -3.203881    2.064944
    129          1           0      -24.267075   -4.539534    0.671537
    130          1           0      -24.286385   -3.493402   -0.753531
    131          1           0      -25.756084   -4.449130   -0.292461
    132          1           0      -24.864010   -1.243942    3.187656
    133          1           0      -24.281494    0.202902    2.437117
    134          1           0      -22.373621   -0.279996    3.402613
    135          1           0      -22.162745   -1.647415    2.334550
    136          1           0      -30.471639   -6.206211    1.306267
    137          1           0      -29.945525   -5.125249    2.698053
    138          1           0      -28.887134   -5.659254    1.299036
    139          1           0      -34.136961   -3.353129   -0.653573
    140          1           0      -34.247902   -2.641218    1.031096
    141          1           0      -35.042102   -4.111933    0.708698
    142          1           0      -33.476816    1.420691   -0.557306
    143          1           0      -32.235588    3.066299   -2.477532
    144          1           0      -33.055414    1.486238   -3.500961
    145          1           0      -34.328364    0.459459   -2.529293
    146          1           0      -32.792983   -0.073125   -2.909109
    147          1           0      -31.369200    4.284050   -0.420013
    148          1           0      -32.275103    3.170234    0.631271
    149          1           0      -34.076532    4.417453    0.520235
    150          1           0      -34.147857    4.155918   -1.237228
    151          1           0      -33.289554    5.571446   -0.523053
    152          1           0      -26.428478    5.554578   -1.634358
    153          1           0      -28.000411    5.307013   -2.336763
    154          1           0      -26.523291    5.040758   -3.321595
    155          1           0      -23.253019    1.040224   -0.852493
    156          1           0      -21.374236    3.345343    2.119590
    157          1           0      -21.078689    1.884469    2.895211
    158          1           0      -22.681767    2.667376    3.103103
 ---------------------------------------------------------------------

 SCF Done:  E(RPBE1PBE) =  -4067.35270768     A.U. after   16 cycles

 Excitation energies and oscillator strengths:

 Excited State   1:      Singlet-A      1.8621 eV  665.84 nm  f=0.3850  <S**2>=0.000
     309 -> 315       -0.18182
     311 -> 313        0.68866
     311 <- 313       -0.10551
 This state for optimization and/or second-order correction.
 Total Energy, E(TD-HF/TD-DFT) =  -4067.28427819
 Copying the excited state density for this state as the 1-particle RhoCI density.

 Excited State   2:      Singlet-A      1.9142 eV  647.72 nm  f=0.0000  <S**2>=0.000
     312 -> 313        0.70711

 Excited State   3:      Singlet-A      2.1289 eV  582.38 nm  f=0.0000  <S**2>=0.000
     311 -> 314        0.70711

 Excited State   4:      Singlet-A      2.1541 eV  575.57 nm  f=0.1183  <S**2>=0.000
     309 -> 313        0.65689
     311 -> 315        0.24320

 Excited State   5:      Singlet-A      2.4432 eV  507.46 nm  f=0.0000  <S**2>=0.000
     310 -> 313        0.70711

 The electronic state is 1-A.
 Alpha  occ. eigenvalues --  -46.93695 -46.92472 -19.27053 -19.26014 -19.21081
 Alpha  occ. eigenvalues --  -19.19755 -19.18681 -19.18358 -19.18249 -19.18160
 Alpha  occ. eigenvalues --  -14.42502 -14.42338 -14.41571 -14.41482 -14.39443
 Alpha  occ. eigenvalues --  -14.39384 -14.38835 -14.38382 -10.36680 -10.36514
 Alpha  occ. eigenvalues --  -10.32229 -10.31820 -10.31728 -10.30460 -10.30111
 Alpha  occ. eigenvalues --  -10.30099 -10.29974 -10.29453 -10.29239 -10.28738
 Alpha  occ. eigenvalues --  -10.28681 -10.28538 -10.28359 -10.28327 -10.28200
 Alpha  occ. eigenvalues --  -10.28024 -10.27921 -10.27870 -10.27688 -10.27136
 Alpha  occ. eigenvalues --  -10.27049 -10.26585 -10.26579 -10.26260 -10.26245
 Alpha  occ. eigenvalues --  -10.26218 -10.26217 -10.26144 -10.26068 -10.25968
 Alpha  occ. eigenvalues --  -10.25875 -10.25838 -10.25832 -10.25698 -10.25692
 Alpha  occ. eigenvalues --  -10.25689 -10.25664 -10.25608 -10.25498 -10.25462
 Alpha  occ. eigenvalues --  -10.25253 -10.25214 -10.25014 -10.24978 -10.24927
 Alpha  occ. eigenvalues --  -10.24907 -10.24902 -10.24886 -10.24868 -10.24680
 Alpha  occ. eigenvalues --  -10.24487 -10.24174 -10.24056 -10.23991 -10.23985
 Alpha  occ. eigenvalues --  -10.23783 -10.23664 -10.23659 -10.23554 -10.23284
 Alpha  occ. eigenvalues --  -10.23105 -10.23080 -10.22855 -10.22565 -10.22463
 Alpha  occ. eigenvalues --  -10.21875  -3.15574  -3.14507  -1.88412  -1.87940
 Alpha  occ. eigenvalues --   -1.87792  -1.87322  -1.86900  -1.86712  -1.12359
 Alpha  occ. eigenvalues --   -1.12209  -1.04825  -1.04292  -1.03895  -1.02955
 Alpha  occ. eigenvalues --   -1.02885  -1.02058  -1.00333  -0.99561  -0.99345
 Alpha  occ. eigenvalues --   -0.99143  -0.98598  -0.97551  -0.96525  -0.95978
 Alpha  occ. eigenvalues --   -0.88719  -0.88540  -0.83530  -0.83319  -0.83223
 Alpha  occ. eigenvalues --   -0.83041  -0.83026  -0.82985  -0.82086  -0.81929
 Alpha  occ. eigenvalues --   -0.81422  -0.80519  -0.80217  -0.80178  -0.79394
 Alpha  occ. eigenvalues --   -0.78651  -0.78452  -0.77918  -0.77507  -0.77169
 Alpha  occ. eigenvalues --   -0.77054  -0.76154  -0.75792  -0.75262  -0.75010
 Alpha  occ. eigenvalues --   -0.74585  -0.72980  -0.72395  -0.72247  -0.71701
 Alpha  occ. eigenvalues --   -0.71385  -0.71216  -0.70438  -0.70276  -0.70046
 Alpha  occ. eigenvalues --   -0.69281  -0.68069  -0.67003  -0.66693  -0.66550
 Alpha  occ. eigenvalues --   -0.64423  -0.63914  -0.63629  -0.63237  -0.62914
 Alpha  occ. eigenvalues --   -0.62791  -0.61643  -0.61537  -0.60973  -0.60681
 Alpha  occ. eigenvalues --   -0.59823  -0.59795  -0.59755  -0.59285  -0.58905
 Alpha  occ. eigenvalues --   -0.58770  -0.58406  -0.57354  -0.55023  -0.54783
 Alpha  occ. eigenvalues --   -0.54721  -0.54231  -0.54140  -0.53841  -0.53776
 Alpha  occ. eigenvalues --   -0.53553  -0.53229  -0.53004  -0.52712  -0.52674
 Alpha  occ. eigenvalues --   -0.51292  -0.51137  -0.51126  -0.50420  -0.50187
 Alpha  occ. eigenvalues --   -0.49856  -0.49720  -0.49660  -0.49140  -0.48874
 Alpha  occ. eigenvalues --   -0.48445  -0.48431  -0.48158  -0.47809  -0.47794
 Alpha  occ. eigenvalues --   -0.47696  -0.47336  -0.47223  -0.46964  -0.46683
 Alpha  occ. eigenvalues --   -0.46484  -0.46427  -0.46424  -0.46051  -0.46015
 Alpha  occ. eigenvalues --   -0.45785  -0.45782  -0.45537  -0.45475  -0.45150
 Alpha  occ. eigenvalues --   -0.44750  -0.44716  -0.44476  -0.44339  -0.44199
 Alpha  occ. eigenvalues --   -0.44048  -0.43984  -0.43796  -0.43636  -0.43546
 Alpha  occ. eigenvalues --   -0.43365  -0.43357  -0.43189  -0.43096  -0.42764
 Alpha  occ. eigenvalues --   -0.42648  -0.42260  -0.42019  -0.41887  -0.41762
 Alpha  occ. eigenvalues --   -0.41699  -0.41486  -0.41279  -0.41128  -0.41127
 Alpha  occ. eigenvalues --   -0.41084  -0.41012  -0.40789  -0.40749  -0.40542
 Alpha  occ. eigenvalues --   -0.40525  -0.40429  -0.40059  -0.39982  -0.39842
 Alpha  occ. eigenvalues --   -0.39578  -0.39499  -0.39479  -0.39441  -0.39407
 Alpha  occ. eigenvalues --   -0.39305  -0.38657  -0.38626  -0.38410  -0.38329
 Alpha  occ. eigenvalues --   -0.38160  -0.38001  -0.37779  -0.37672  -0.37413
 Alpha  occ. eigenvalues --   -0.37385  -0.37293  -0.37148  -0.37099  -0.37084
 Alpha  occ. eigenvalues --   -0.36771  -0.36646  -0.36399  -0.36202  -0.36089
 Alpha  occ. eigenvalues --   -0.36022  -0.36005  -0.35837  -0.35806  -0.35382
 Alpha  occ. eigenvalues --   -0.35266  -0.35215  -0.34511  -0.34357  -0.34117
 Alpha  occ. eigenvalues --   -0.33663  -0.33485  -0.32823  -0.32806  -0.32683
 Alpha  occ. eigenvalues --   -0.32629  -0.32466  -0.32079  -0.31953  -0.31908
 Alpha  occ. eigenvalues --   -0.31604  -0.31029  -0.30386  -0.30251  -0.29769
 Alpha  occ. eigenvalues --   -0.29185  -0.29012  -0.28558  -0.27371  -0.27082
 Alpha  occ. eigenvalues --   -0.25697  -0.25586  -0.25432  -0.25357  -0.25338
 Alpha  occ. eigenvalues --   -0.25233  -0.24808  -0.24620  -0.21307  -0.21200
 Alpha  occ. eigenvalues --   -0.19628  -0.19256
 Alpha virt. eigenvalues --   -0.11988  -0.11571  -0.05980  -0.05407  -0.04272
 Alpha virt. eigenvalues --   -0.04038  -0.02356  -0.01858  -0.01395  -0.01383
 Alpha virt. eigenvalues --    0.00108   0.00522   0.00754   0.01252   0.01314

 Mulliken charges:
               1
     1  Mg  12.000000
     2  C    5.999998
     3  C    6.000055
     4  C    5.999992
     5  C    5.999929
     6  N    7.000004
     7  C    5.999956
     8  C    6.000018
     9  C    5.999969
    10  C    6.000020
    11  C    5.999981
    12  C    6.000019
    13  C    5.999997
    14  H    0.999982
    15  N    7.000006
    16  C    6.000040
    17  C    6.000038
    18  C    6.000005
    19  C    6.000071
    20  C    5.999990
    21  C    6.000057
    22  O    8.000063
    23  C    5.999992
    24  N    7.000000
    25  C    6.000049
    26  C    5.999984
    27  C    6.000024
    28  C    5.999978
    29  C    6.000004
    30  C    6.000016
    31  C    6.000004
    32  N    6.999987
    33  C    5.999967
    34  C    5.999909
    35  C    6.000024
    36  C    5.999956
    37  C    6.000010
    38  C    5.999942
    39  O    7.999920
    40  C    6.000004
    41  C    5.999992
    42  O    7.999993
    43  O    7.999993
    44  C    5.999999
    45  H    1.000059
    46  H    1.000005
    47  H    0.999963
    48  H    1.000021
    49  H    1.000027
    50  H    1.000041
    51  H    1.000055
    52  H    1.000007
    53  H    1.000012
    54  H    1.000001
    55  H    0.999963
    56  H    1.000008
    57  H    1.000060
    58  H    1.000079
    59  H    1.000069
    60  H    1.000029
    61  H    1.000032
    62  H    1.000011
    63  H    0.999985
    64  H    0.999987
    65  H    0.999997
    66  H    1.000010
    67  H    0.999987
    68  H    0.999998
    69  H    0.999955
    70  H    0.999964
    71  H    1.000011
    72  H    0.999991
    73  H    0.999913
    74  H    0.999950
    75  H    0.999907
    76  H    0.999970
    77  H    1.000005
    78  H    0.999996
    79  H    0.999995
    80  Mg  12.000034
    81  C    5.996879
    82  C    5.974573
    83  C    5.994938
    84  C    6.027611
    85  N    6.989892
    86  C    5.970349
    87  C    6.011104
    88  C    5.988969
    89  C    6.035732
    90  C    5.997182
    91  C    6.001591
    92  C    6.002029
    93  H    0.988544
    94  N    6.994617
    95  C    6.040893
    96  C    6.017297
    97  C    6.012734
    98  C    6.033333
    99  C    6.000135
   100  C    6.009671
   101  O    8.024472
   102  C    5.999400
   103  N    7.014184
   104  C    6.027366
   105  C    5.989152
   106  C    6.006912
   107  C    5.961543
   108  C    6.002765
   109  C    6.001184
   110  C    5.999315
   111  N    6.998421
   112  C    5.964388
   113  C    5.977668
   114  C    5.993060
   115  C    5.981794
   116  C    6.001943
   117  C    5.982474
   118  O    7.966851
   119  C    6.005991
   120  C    5.994895
   121  O    7.996100
   122  O    7.996820
   123  C    6.003483
   124  H    1.004232
   125  H    1.010921
   126  H    0.995457
   127  H    0.998777
   128  H    1.001280
   129  H    1.003524
   130  H    1.010936
   131  H    0.992780
   132  H    0.988629
   133  H    1.005921
   134  H    1.001763
   135  H    0.998505
   136  H    1.012956
   137  H    1.015583
   138  H    1.018292
   139  H    1.009271
   140  H    1.007641
   141  H    1.013164
   142  H    1.001497
   143  H    1.000352
   144  H    1.012881
   145  H    1.000905
   146  H    0.997694
   147  H    1.007267
   148  H    0.990642
   149  H    0.996117
   150  H    0.996087
   151  H    1.002476
   152  H    0.986475
   153  H    0.981817
   154  H    0.983409
   155  H    0.988840
   156  H    0.997064
   157  H    0.993118
   158  H    0.995439
 Sum of Mulliken charges = 624.00000

 Dipole moment (field-independent basis, Debye):
    X=             -6.9065    Y=             -7.5220    Z=              2.1845  Tot=             10.4428
 Quadrupole moment (field-independent basis, Debye-Ang):
   XX=            391.1338   YY=              4.7939   ZZ=             -2.9043
   XY=            218.6426   XZ=            -61.6287   YZ=              1.5198

 Normal termination of Gaussian 16 at Thu Oct 14 22:44:12 2021.
