 Gaussian 16, Revision A.03,
 Gaussian 16:  ES64L-G16RevA.03 25-Dec-2016

 --------------------------------------------------------
 #p PBE1PBE/Def2SVP td=(nstates=5) density=(transition=1)
 --------------------------------------------------------

 --------------------------------
 TDDFT excited states in gaussian
 --------------------------------
 Symbolic Z-matrix:
 Charge =  0 Multiplicity = 1

                         Standard orientation:
 ---------------------------------------------------------------------
 Center     Atomic      Atomic             Coordinates (Angstroms)
 Number     Number       Type             X           Y           Z
 ---------------------------------------------------------------------
      1         12           0       14.719806   -0.204612    0.560685
      2          6           0       12.404243   -1.311595   -1.780660
      3          6           0       16.327527    1.470234   -2.163590
      4          6           0       16.689308    1.313349    2.710600
      5          6           0       12.572762   -1.331098    3.106064
      6          7           0       14.314516    0.132573   -1.672554
      7          6           0       13.336327   -0.525935   -2.383392
      8          6           0       13.401569   -0.129349   -3.860800
      9          6           0       14.812357    0.515240   -3.952507
     10          6           0       15.181999    0.770974   -2.515054
     11          6           0       15.964110   -0.290073   -4.672723
     12          6           0       12.266567    0.818606   -4.281706
     13          6           0       12.174003    1.103888   -5.731946
     14          1           0       10.782177    1.603225   -6.278371
     15          7           0       16.309741    1.227650    0.328712
     16          6           0       16.829589    1.761198   -0.860902
     17          6           0       17.914044    2.638468   -0.518181
     18          6           0       17.949973    2.714772    0.923000
     19          6           0       16.953512    1.689639    1.389418
     20          6           0       18.713956    3.446692   -1.576864
     21          6           0       18.919444    3.628450    1.679512
     22          8           0       19.814039    4.231729    1.110508
     23          6           0       18.770617    3.776050    3.145647
     24          7           0       14.744363   -0.232764    2.626226
     25          6           0       15.697181    0.447263    3.272891
     26          6           0       15.409441    0.420762    4.828608
     27          6           0       14.059063   -0.374650    5.004678
     28          6           0       13.714043   -0.638349    3.438356
     29          6           0       16.555212   -0.051027    5.762030
     30          6           0       12.997614    0.517906    5.682670
     31          6           0       11.956412   -0.229971    6.524259
     32          7           0       12.849470   -1.145170    0.724195
     33          6           0       12.165249   -1.651385    1.793642
     34          6           0       11.028926   -2.432110    1.289943
     35          6           0       11.150489   -2.394568   -0.073212
     36          6           0       12.203427   -1.566713   -0.390426
     37          6           0       10.036209   -3.231892    2.139775
     38          6           0       10.537385   -2.818096   -1.296061
     39          8           0        9.588295   -3.527654   -1.522198
     40          6           0       11.337591   -2.142266   -2.459232
     41          6           0       11.976671   -3.227328   -3.253376
     42          8           0       12.625595   -4.146265   -2.836361
     43          8           0       11.820353   -2.932143   -4.618791
     44          6           0       12.453505   -3.845036   -5.527464
     45          1           0       16.798285    1.861152   -3.067525
     46          1           0       17.271824    1.728618    3.536191
     47          1           0       11.919430   -1.756168    3.871034
     48          1           0       13.424871   -1.065168   -4.417545
     49          1           0       14.854544    1.506797   -4.401854
     50          1           0       16.370103    0.421160   -5.391727
     51          1           0       15.773757   -1.332617   -4.929022
     52          1           0       16.761906   -0.402786   -3.938759
     53          1           0       12.331940    1.834487   -3.891132
     54          1           0       11.310876    0.428895   -3.930989
     55          1           0       12.460396    0.187498   -6.247998
     56          1           0       12.940745    1.831846   -5.996488
     57          1           0       18.256824    4.416096   -1.375855
     58          1           0       18.459700    3.252224   -2.619001
     59          1           0       19.801105    3.527601   -1.577270
     60          1           0       17.712089    3.990851    3.292157
     61          1           0       19.332907    4.655138    3.460920
     62          1           0       19.092096    2.807779    3.530106
     63          1           0       15.252455    1.462435    5.109983
     64          1           0       14.147056   -1.329997    5.521069
     65          1           0       16.955286    0.825654    6.272407
     66          1           0       17.275087   -0.614206    5.169063
     67          1           0       16.145490   -0.660111    6.567762
     68          1           0       12.521082    1.053648    4.862090
     69          1           0       13.414301    1.326825    6.283106
     70          1           0       12.064069    0.230229    7.507063
     71          1           0       12.067086   -1.314410    6.525017
     72          1           0       10.950258    0.006320    6.177746
     73          1           0        8.984542   -3.140890    1.870104
     74          1           0       10.245370   -2.852525    3.140272
     75          1           0       10.436035   -4.244730    2.191222
     76          1           0       10.606737   -1.592463   -3.052373
     77          1           0       11.650691   -4.399638   -6.013357
     78          1           0       13.189157   -4.554790   -5.148330
     79          1           0       12.997987   -3.247252   -6.257917
     80         12           0      -14.384313    0.871002   -0.283214
     81          6           0      -14.309185   -2.589707    0.012990
     82          6           0      -11.041942    0.662717   -1.185903
     83          6           0      -14.286396    4.264745   -0.085312
     84          6           0      -17.666986    0.862382    0.803006
     85          7           0      -12.841758   -0.779133   -0.499536
     86          6           0      -13.037943   -2.145140   -0.364812
     87          6           0      -11.722489   -2.999406   -0.548340
     88          6           0      -10.655645   -1.838573   -0.611488
     89          6           0      -11.547017   -0.548439   -0.737412
     90          6           0       -9.640736   -1.635584    0.517343
     91          6           0      -11.823364   -3.903304   -1.790685
     92          6           0      -12.000566   -5.379802   -1.552542
     93          1           0      -11.278491   -6.330536   -2.523768
     94          7           0      -12.967205    2.304830   -0.767542
     95          6           0      -11.714319    1.976311   -1.182306
     96          6           0      -11.021229    3.262031   -1.394306
     97          6           0      -11.872826    4.305025   -0.997903
     98          6           0      -13.084665    3.693972   -0.610730
     99          6           0       -9.700062    3.312738   -2.048012
    100          6           0      -11.625168    5.783550   -0.930313
    101          8           0      -12.523166    6.627656   -0.657006
    102          6           0      -10.346283    6.388058   -1.133998
    103          7           0      -15.761035    2.319805    0.186316
    104          6           0      -15.507425    3.656981    0.172696
    105          6           0      -16.665374    4.483518    0.573498
    106          6           0      -17.789255    3.410992    0.806751
    107          6           0      -17.020972    2.152796    0.650225
    108          6           0      -16.618361    5.507894    1.745238
    109          6           0      -19.101876    3.576242   -0.107664
    110          6           0      -19.208824    3.005332   -1.552919
    111          7           0      -15.745186   -0.508649    0.337167
    112          6           0      -17.051161   -0.378329    0.712910
    113          6           0      -17.649687   -1.636765    0.819277
    114          6           0      -16.535920   -2.542262    0.628556
    115          6           0      -15.418297   -1.795849    0.312362
    116          6           0      -19.121865   -1.960364    1.067086
    117          6           0      -16.242173   -3.941145    0.504748
    118          8           0      -16.907717   -4.956655    0.516445
    119          6           0      -14.685772   -4.015809    0.321267
    120          6           0      -14.057879   -4.517198    1.559823
    121          8           0      -13.314883   -3.870906    2.330872
    122          8           0      -14.363582   -5.797442    1.864101
    123          6           0      -13.610310   -6.502293    2.956833
    124          1           0       -9.975205    0.595288   -1.406602
    125          1           0      -14.308909    5.350264    0.032881
    126          1           0      -18.740781    0.768687    0.980883
    127          1           0      -11.406225   -3.471379    0.382475
    128          1           0      -10.124408   -1.984773   -1.551923
    129          1           0       -9.866603   -0.720874    1.065936
    130          1           0       -8.696989   -1.390225    0.032503
    131          1           0       -9.539922   -2.467764    1.214915
    132          1           0      -10.861939   -3.797171   -2.294543
    133          1           0      -12.582396   -3.486081   -2.452420
    134          1           0      -13.067620   -5.594084   -1.617908
    135          1           0      -11.734482   -5.731118   -0.555510
    136          1           0       -9.866047    3.876887   -2.964867
    137          1           0       -9.184320    2.384270   -2.296457
    138          1           0       -9.005642    3.873504   -1.422427
    139          1           0       -9.646581    5.771158   -0.570737
    140          1           0      -10.392133    7.461489   -0.954893
    141          1           0      -10.003276    6.245730   -2.158817
    142          1           0      -16.820631    5.023748   -0.359934
    143          1           0      -18.100534    3.438017    1.850346
    144          1           0      -16.732064    6.534357    1.396494
    145          1           0      -15.655777    5.477369    2.256852
    146          1           0      -17.347701    5.303503    2.528985
    147          1           0      -19.164614    4.659261   -0.215782
    148          1           0      -19.866314    3.211051    0.578337
    149          1           0      -18.395854    2.346314   -1.856581
    150          1           0      -19.451163    3.724803   -2.335569
    151          1           0      -20.128083    2.421761   -1.524884
    152          1           0      -19.258092   -2.589575    1.947276
    153          1           0      -19.473032   -2.551873    0.221725
    154          1           0      -19.777421   -1.089974    1.105326
    155          1           0      -14.482666   -4.814432   -0.392417
    156          1           0      -13.922843   -7.513758    2.696911
    157          1           0      -13.887171   -6.212993    3.970082
    158          1           0      -12.540182   -6.332971    2.833471
 ---------------------------------------------------------------------

 SCF Done:  E(RPBE1PBE) =  -4067.38547346     A.U. after   16 cycles

 Excitation energies and oscillator strengths:

 Excited State   1:      Singlet-A      1.8093 eV  685.24 nm  f=0.0000  <S**2>=0.000
     312 -> 313        0.70710
 This state for optimization and/or second-order correction.
 Total Energy, E(TD-HF/TD-DFT) =  -4067.31898137
 Copying the excited state density for this state as the 1-particle RhoCI density.

 Excited State   2:      Singlet-A      1.8654 eV  664.64 nm  f=0.3836  <S**2>=0.000
     310 -> 316        0.17007
     312 -> 314        0.69158
     312 <- 314       -0.10903

 Excited State   3:      Singlet-A      1.9036 eV  651.31 nm  f=0.3705  <S**2>=0.000
     309 -> 315        0.17015
     311 -> 313        0.69334
     311 <- 313       -0.10643

 Excited State   4:      Singlet-A      2.1270 eV  582.91 nm  f=0.0000  <S**2>=0.000
     311 -> 314        0.70710

 Excited State   5:      Singlet-A      2.2250 eV  557.24 nm  f=0.1297  <S**2>=0.000
     310 -> 314        0.65912
     312 -> 316       -0.23838

 The electronic state is 1-A.
 Alpha  occ. eigenvalues --  -46.93091 -46.90897 -19.25727 -19.24631 -19.20800
 Alpha  occ. eigenvalues --  -19.19012 -19.18755 -19.18469 -19.18461 -19.18136
 Alpha  occ. eigenvalues --  -14.42272 -14.41842 -14.41431 -14.41364 -14.39781
 Alpha  occ. eigenvalues --  -14.39149 -14.38950 -14.38020 -10.36630 -10.35486
 Alpha  occ. eigenvalues --  -10.31851 -10.31555 -10.31545 -10.31315 -10.29942
 Alpha  occ. eigenvalues --  -10.29178 -10.29114 -10.28978 -10.28698 -10.28661
 Alpha  occ. eigenvalues --  -10.28587 -10.28551 -10.28545 -10.28504 -10.28215
 Alpha  occ. eigenvalues --  -10.28101 -10.27754 -10.27644 -10.27351 -10.26949
 Alpha  occ. eigenvalues --  -10.26382 -10.26328 -10.26248 -10.26198 -10.26144
 Alpha  occ. eigenvalues --  -10.26131 -10.26027 -10.25960 -10.25940 -10.25919
 Alpha  occ. eigenvalues --  -10.25919 -10.25804 -10.25585 -10.25529 -10.25527
 Alpha  occ. eigenvalues --  -10.25417 -10.25307 -10.25288 -10.25270 -10.25231
 Alpha  occ. eigenvalues --  -10.25217 -10.25069 -10.24914 -10.24885 -10.24802
 Alpha  occ. eigenvalues --  -10.24730 -10.24428 -10.24315 -10.24285 -10.24277
 Alpha  occ. eigenvalues --  -10.24224 -10.24049 -10.24008 -10.23975 -10.23788
 Alpha  occ. eigenvalues --  -10.23775 -10.23737 -10.23459 -10.23408 -10.23387
 Alpha  occ. eigenvalues --  -10.23291 -10.23168 -10.23127 -10.22868 -10.22376
 Alpha  occ. eigenvalues --  -10.21986  -3.15095  -3.13190  -1.87941  -1.87473
 Alpha  occ. eigenvalues --   -1.87303  -1.86042  -1.85568  -1.85418  -1.11478
 Alpha  occ. eigenvalues --   -1.09830  -1.05338  -1.04712  -1.04285  -1.03777
 Alpha  occ. eigenvalues --   -1.02571  -0.99834  -0.99490  -0.99345  -0.98725
 Alpha  occ. eigenvalues --   -0.98490  -0.98345  -0.97823  -0.97506  -0.96835
 Alpha  occ. eigenvalues --   -0.87813  -0.87445  -0.83712  -0.83531  -0.83221
 Alpha  occ. eigenvalues --   -0.83160  -0.82697  -0.82575  -0.82502  -0.81797
 Alpha  occ. eigenvalues --   -0.81286  -0.80927  -0.80421  -0.80245  -0.79470
 Alpha  occ. eigenvalues --   -0.78583  -0.78403  -0.77899  -0.77387  -0.76936
 Alpha  occ. eigenvalues --   -0.76817  -0.76674  -0.75735  -0.75285  -0.75262
 Alpha  occ. eigenvalues --   -0.74835  -0.72845  -0.72149  -0.71792  -0.71760
 Alpha  occ. eigenvalues --   -0.71321  -0.71092  -0.70598  -0.70471  -0.69884
 Alpha  occ. eigenvalues --   -0.69610  -0.67839  -0.67519  -0.66539  -0.65738
 Alpha  occ. eigenvalues --   -0.64459  -0.63832  -0.63472  -0.63080  -0.62393
 Alpha  occ. eigenvalues --   -0.62363  -0.61465  -0.61109  -0.60549  -0.60172
 Alpha  occ. eigenvalues --   -0.59639  -0.59480  -0.59456  -0.59173  -0.59172
 Alpha  occ. eigenvalues --   -0.58869  -0.57369  -0.56032  -0.54757  -0.54603
 Alpha  occ. eigenvalues --   -0.54456  -0.54134  -0.53924  -0.53679  -0.53396
 Alpha  occ. eigenvalues --   -0.53224  -0.53165  -0.52297  -0.52209  -0.51800
 Alpha  occ. eigenvalues --   -0.51159  -0.50735  -0.50467  -0.50078  -0.49990
 Alpha  occ. eigenvalues --   -0.49540  -0.49427  -0.49020  -0.48885  -0.48659
 Alpha  occ. eigenvalues --   -0.48352  -0.48209  -0.47878  -0.47791  -0.47576
 Alpha  occ. eigenvalues --   -0.47388  -0.47223  -0.47059  -0.46977  -0.46621
 Alpha  occ. eigenvalues --   -0.46555  -0.46467  -0.46364  -0.46183  -0.45615
 Alpha  occ. eigenvalues --   -0.45519  -0.45377  -0.45367  -0.45031  -0.44928
 Alpha  occ. eigenvalues --   -0.44920  -0.44754  -0.44579  -0.44306  -0.44165
 Alpha  occ. eigenvalues --   -0.44020  -0.43962  -0.43817  -0.43563  -0.43408
 Alpha  occ. eigenvalues --   -0.43406  -0.43003  -0.42929  -0.42823  -0.42775
 Alpha  occ. eigenvalues --   -0.42558  -0.42379  -0.42297  -0.42081  -0.41975
 Alpha  occ. eigenvalues --   -0.41857  -0.41816  -0.41392  -0.41180  -0.41163
 Alpha  occ. eigenvalues --   -0.41141  -0.40949  -0.40929  -0.40734  -0.40620
 Alpha  occ. eigenvalues --   -0.40390  -0.40186  -0.40139  -0.40030  -0.39915
 Alpha  occ. eigenvalues --   -0.39884  -0.39546  -0.39422  -0.39099  -0.39000
 Alpha  occ. eigenvalues --   -0.38746  -0.38704  -0.38535  -0.38503  -0.38444
 Alpha  occ. eigenvalues --   -0.38251  -0.38141  -0.38076  -0.37849  -0.37725
 Alpha  occ. eigenvalues --   -0.37692  -0.37630  -0.37318  -0.37314  -0.37218
 Alpha  occ. eigenvalues --   -0.36886  -0.36729  -0.36451  -0.36409  -0.36209
 Alpha  occ. eigenvalues --   -0.35956  -0.35597  -0.35520  -0.35282  -0.35131
 Alpha  occ. eigenvalues --   -0.34800  -0.34770  -0.34716  -0.34565  -0.33788
 Alpha  occ. eigenvalues --   -0.33775  -0.33182  -0.33101  -0.32791  -0.32740
 Alpha  occ. eigenvalues --   -0.32020  -0.31874  -0.31573  -0.31552  -0.31430
 Alpha  occ. eigenvalues --   -0.31193  -0.30477  -0.30208  -0.29624  -0.29491
 Alpha  occ. eigenvalues --   -0.29308  -0.28743  -0.27524  -0.27451  -0.26624
 Alpha  occ. eigenvalues --   -0.26085  -0.25855  -0.25663  -0.25596  -0.25173
 Alpha  occ. eigenvalues --   -0.25171  -0.24980  -0.24850  -0.21611  -0.20572
 Alpha  occ. eigenvalues --   -0.19329  -0.18668
 Alpha virt. eigenvalues --   -0.11565  -0.11046  -0.05533  -0.04842  -0.03474
 Alpha virt. eigenvalues --   -0.03375  -0.01993  -0.01778  -0.00788   0.00227
 Alpha virt. eigenvalues --    0.00611   0.00656   0.00884   0.01486   0.01766

 Mulliken charges:
               1
     1  Mg  12.000000
     2  C    6.000000
     3  C    6.000000
     4  C    6.000000
     5  C    6.000000
     6  N    7.000000
     7  C    6.000000
     8  C    6.000000
     9  C    6.000000
    10  C    6.000000
    11  C    6.000000
    12  C    6.000000
    13  C    6.000000
    14  H    1.000000
    15  N    7.000000
    16  C    6.000000
    17  C    6.000000
    18  C    6.000000
    19  C    6.000000
    20  C    6.000000
    21  C    6.000000
    22  O    8.000000
    23  C    6.000000
    24  N    7.000000
    25  C    6.000000
    26  C    6.000000
    27  C    6.000000
    28  C    6.000000
    29  C    6.000000
    30  C    6.000000
    31  C    6.000000
    32  N    7.000000
    33  C    6.000000
    34  C    6.000000
    35  C    6.000000
    36  C    6.000000
    37  C    6.000000
    38  C    6.000000
    39  O    8.000000
    40  C    6.000000
    41  C    6.000000
    42  O    8.000000
    43  O    8.000000
    44  C    6.000000
    45  H    1.000000
    46  H    1.000000
    47  H    1.000000
    48  H    1.000000
    49  H    1.000000
    50  H    1.000000
    51  H    1.000000
    52  H    1.000000
    53  H    1.000000
    54  H    1.000000
    55  H    1.000000
    56  H    1.000000
    57  H    1.000000
    58  H    1.000000
    59  H    1.000000
    60  H    1.000000
    61  H    1.000000
    62  H    1.000000
    63  H    1.000000
    64  H    1.000000
    65  H    1.000000
    66  H    1.000000
    67  H    1.000000
    68  H    1.000000
    69  H    1.000000
    70  H    1.000000
    71  H    1.000000
    72  H    1.000000
    73  H    1.000000
    74  H    1.000000
    75  H    1.000000
    76  H    1.000000
    77  H    1.000000
    78  H    1.000000
    79  H    1.000000
    80  Mg  12.000000
    81  C    6.000000
    82  C    6.000000
    83  C    6.000000
    84  C    6.000000
    85  N    7.000000
    86  C    6.000000
    87  C    6.000000
    88  C    6.000000
    89  C    6.000000
    90  C    6.000000
    91  C    6.000000
    92  C    6.000000
    93  H    1.000000
    94  N    7.000000
    95  C    6.000000
    96  C    6.000000
    97  C    6.000000
    98  C    6.000000
    99  C    6.000000
   100  C    6.000000
   101  O    8.000000
   102  C    6.000000
   103  N    7.000000
   104  C    6.000000
   105  C    6.000000
   106  C    6.000000
   107  C    6.000000
   108  C    6.000000
   109  C    6.000000
   110  C    6.000000
   111  N    7.000000
   112  C    6.000000
   113  C    6.000000
   114  C    6.000000
   115  C    6.000000
   116  C    6.000000
   117  C    6.000000
   118  O    8.000000
   119  C    6.000000
   120  C    6.000000
   121  O    8.000000
   122  O    8.000000
   123  C    6.000000
   124  H    1.000000
   125  H    1.000000
   126  H    1.000000
   127  H    1.000000
   128  H    1.000000
   129  H    1.000000
   130  H    1.000000
   131  H    1.000000
   132  H    1.000000
   133  H    1.000000
   134  H    1.000000
   135  H    1.000000
   136  H    1.000000
   137  H    1.000000
   138  H    1.000000
   139  H    1.000000
   140  H    1.000000
   141  H    1.000000
   142  H    1.000000
   143  H    1.000000
   144  H    1.000000
   145  H    1.000000
   146  H    1.000000
   147  H    1.000000
   148  H    1.000000
   149  H    1.000000
   150  H    1.000000
   151  H    1.000000
   152  H    1.000000
   153  H    1.000000
   154  H    1.000000
   155  H    1.000000
   156  H    1.000000
   157  H    1.000000
   158  H    1.000000
 Sum of Mulliken charges = 624.00000

 Dipole moment (field-independent basis, Debye):
    X=              0.0000    Y=              0.0000    Z=             -0.0000  Tot=              0.0000
 Quadrupole moment (field-independent basis, Debye-Ang):
   XX=             -0.0000   YY=              0.0000   ZZ=              0.0000
   XY=             -0.0000   XZ=              0.0000   YZ=             -0.0000

 Normal termination of Gaussian 16 at Fri Oct 15 15:15:00 2021.
