 Gaussian 16, Revision A.03,
 Gaussian 16:  ES64L-G16RevA.03 25-Dec-2016

 --------------------------------------------------------
 #p PBE1PBE/Def2SVP td=(nstates=5) density=(transition=1)
 --------------------------------------------------------

 --------------------------------
 TDDFT excited states in gaussian
 --------------------------------
 Symbolic Z-matrix:
 Charge =  0 Multiplicity = 1

                         Standard orientation:
 ---------------------------------------------------------------------
 Center     Atomic      Atomic             Coordinates (Angstroms)
 Number     Number       Type             X           Y           Z
 ---------------------------------------------------------------------
      1         12           0      -11.535589    0.052431   -0.335479
      2          6           0       -9.128622   -1.107630    1.969982
      3          6           0      -11.215022    3.248147    1.025518
      4          6           0      -13.016068    1.269924   -3.153328
      5          6           0      -11.300852   -3.167722   -1.886406
      6          7           0      -10.353766    0.913184    1.299426
      7          6           0       -9.441230    0.277084    2.064264
      8          6           0       -8.703438    1.280039    3.009741
      9          6           0       -9.683906    2.537593    2.910000
     10          6           0      -10.545432    2.224671    1.643924
     11          6           0      -10.673415    2.863707    4.051593
     12          6           0       -7.254259    1.537921    2.447952
     13          6           0       -6.172316    1.723531    3.547781
     14          1           0       -5.096614    2.849749    3.264674
     15          7           0      -12.248449    2.011976   -0.912532
     16          6           0      -12.035326    3.139777   -0.165102
     17          6           0      -12.693532    4.197708   -0.832745
     18          6           0      -13.181879    3.722448   -2.086050
     19          6           0      -12.878485    2.252166   -2.098589
     20          6           0      -12.771569    5.621103   -0.333436
     21          6           0      -13.725535    4.544706   -3.204338
     22          8           0      -13.741592    5.764352   -3.160173
     23          6           0      -14.213305    4.017575   -4.452153
     24          7           0      -11.976473   -0.854538   -2.313070
     25          6           0      -12.755625   -0.128442   -3.225944
     26          6           0      -13.214197   -1.010593   -4.344789
     27          6           0      -12.624253   -2.428695   -4.002898
     28          6           0      -11.926726   -2.172479   -2.678120
     29          6           0      -14.745570   -0.963555   -4.421907
     30          6           0      -11.841539   -3.094647   -5.196592
     31          6           0      -12.316391   -4.441717   -5.650368
     32          7           0      -10.468498   -1.836082   -0.036126
     33          6           0      -10.543237   -3.024178   -0.720802
     34          6           0       -9.791189   -4.079408   -0.006906
     35          6           0       -9.182365   -3.303806    1.015167
     36          6           0       -9.685173   -2.016316    0.998677
     37          6           0       -9.558460   -5.531867   -0.392365
     38          6           0       -8.171652   -3.368078    2.037174
     39          8           0       -7.432874   -4.308510    2.368313
     40          6           0       -8.076139   -2.007139    2.726295
     41          6           0       -8.284520   -2.128476    4.181274
     42          8           0       -7.475269   -1.790943    4.967257
     43          8           0       -9.558958   -2.475955    4.524852
     44          6           0       -9.768371   -2.324143    5.981084
     45          1           0      -11.198678    4.243728    1.474882
     46          1           0      -13.572904    1.709613   -3.982289
     47          1           0      -11.077316   -4.180963   -2.228406
     48          1           0       -8.662971    0.837886    4.005365
     49          1           0       -9.234548    3.447264    2.511991
     50          1           0      -10.917817    1.960289    4.611505
     51          1           0      -11.601592    3.356927    3.762761
     52          1           0      -10.130812    3.521115    4.730093
     53          1           0       -7.250676    2.383803    1.759926
     54          1           0       -7.028637    0.648178    1.860036
     55          1           0       -5.694251    0.744966    3.595456
     56          1           0       -6.770543    1.863974    4.448331
     57          1           0      -13.584894    6.228853   -0.730182
     58          1           0      -11.808487    6.041812   -0.621269
     59          1           0      -12.669591    5.767327    0.741905
     60          1           0      -15.057818    3.370853   -4.210721
     61          1           0      -13.423724    3.499172   -4.996898
     62          1           0      -14.547311    4.850626   -5.070741
     63          1           0      -12.716291   -0.739553   -5.275463
     64          1           0      -13.304925   -3.172500   -3.588138
     65          1           0      -15.180253   -0.137433   -3.858646
     66          1           0      -15.198367   -1.865928   -4.011056
     67          1           0      -15.049391   -0.669007   -5.425975
     68          1           0      -10.810631   -3.150604   -4.847004
     69          1           0      -11.927859   -2.553895   -6.138349
     70          1           0      -11.458777   -5.112786   -5.611090
     71          1           0      -12.648449   -4.426733   -6.688616
     72          1           0      -13.198494   -4.789993   -5.112975
     73          1           0       -8.746308   -5.652222   -1.109607
     74          1           0      -10.462298   -6.035887   -0.736931
     75          1           0       -9.174865   -5.932354    0.545938
     76          1           0       -7.053054   -1.638055    2.666937
     77          1           0      -10.797001   -2.612882    6.198641
     78          1           0       -9.581763   -1.296412    6.292299
     79          1           0       -9.202717   -3.026867    6.591923
     80         12           0       11.331549    0.204818   -0.587513
     81          6           0        8.617390    0.258294    1.651561
     82          6           0       11.247093   -3.265995   -0.395369
     83          6           0       14.089311    0.214847   -2.437436
     84          6           0       11.818783    3.711506    0.009335
     85          7           0       10.109908   -1.305091    0.506384
     86          6           0        8.968802   -1.022073    1.270094
     87          6           0        8.131494   -2.281131    1.398413
     88          6           0        9.086226   -3.442061    0.999120
     89          6           0       10.223073   -2.621001    0.319208
     90          6           0        9.519712   -4.409603    2.144847
     91          6           0        6.781492   -2.253418    0.601218
     92          6           0        5.609897   -3.095708    1.274000
     93          1           0        5.929364   -3.865465    2.558299
     94          7           0       12.388343   -1.270907   -1.389527
     95          6           0       12.160035   -2.630491   -1.264801
     96          6           0       13.058682   -3.375269   -2.098747
     97          6           0       13.981778   -2.406981   -2.608551
     98          6           0       13.479887   -1.112857   -2.182220
     99          6           0       13.056281   -4.931285   -2.198803
    100          6           0       15.216002   -2.627546   -3.420582
    101          8           0       16.015793   -1.692801   -3.664637
    102          6           0       15.779742   -3.953223   -4.011611
    103          7           0       12.916939    1.671973   -0.928114
    104          6           0       13.895407    1.447181   -1.825306
    105          6           0       14.591226    2.776106   -2.213197
    106          6           0       13.892811    3.889482   -1.424287
    107          6           0       12.739881    3.019884   -0.753727
    108          6           0       16.082872    2.675276   -2.114280
    109          6           0       13.367979    5.099031   -2.227330
    110          6           0       12.334453    4.763219   -3.330614
    111          7           0       10.473672    1.736620    0.632799
    112          6           0       10.681125    3.074033    0.624261
    113          6           0        9.578398    3.673801    1.373909
    114          6           0        8.693508    2.644006    1.799867
    115          6           0        9.311170    1.447180    1.362249
    116          6           0        9.330155    5.169732    1.548452
    117          6           0        7.485150    2.351228    2.502427
    118          8           0        6.587528    3.040830    2.978967
    119          6           0        7.409851    0.688213    2.490688
    120          6           0        7.265630    0.186012    3.914990
    121          8           0        8.197455    0.079329    4.687989
    122          8           0        5.973884   -0.219162    4.163376
    123          6           0        5.534617   -0.369161    5.546885
    124          1           0       11.048407   -4.339050   -0.361295
    125          1           0       14.933564    0.163273   -3.127700
    126          1           0       11.954315    4.794529    0.032890
    127          1           0        7.840499   -2.414915    2.440197
    128          1           0        8.574567   -4.022312    0.231797
    129          1           0       10.606647   -4.351154    2.098687
    130          1           0        9.260995   -5.439739    1.896985
    131          1           0        9.214034   -4.204719    3.170825
    132          1           0        6.887823   -2.719172   -0.378019
    133          1           0        6.494395   -1.214823    0.442005
    134          1           0        5.354112   -3.900814    0.585000
    135          1           0        4.778028   -2.412384    1.443029
    136          1           0       14.095495   -5.257314   -2.256511
    137          1           0       12.561271   -5.292496   -3.099612
    138          1           0       12.578622   -5.547828   -1.437494
    139          1           0       15.034430   -4.441271   -4.640276
    140          1           0       16.152645   -4.628429   -3.241501
    141          1           0       16.496184   -3.814704   -4.820451
    142          1           0       14.478537    2.855592   -3.293677
    143          1           0       14.565557    4.100712   -0.592337
    144          1           0       16.563930    2.550210   -3.084534
    145          1           0       16.356003    1.871608   -1.430264
    146          1           0       16.559690    3.540650   -1.652637
    147          1           0       14.266479    5.481336   -2.712158
    148          1           0       12.965474    5.853439   -1.550692
    149          1           0       11.437618    5.319676   -3.059076
    150          1           0       12.174560    3.685630   -3.292997
    151          1           0       12.683202    4.952381   -4.345963
    152          1           0        8.282679    5.439084    1.416019
    153          1           0        9.818182    5.749182    0.765289
    154          1           0        9.761632    5.474336    2.502338
    155          1           0        6.475796    0.468920    1.972804
    156          1           0        6.366882   -0.820042    6.088028
    157          1           0        4.666980   -1.014524    5.684483
    158          1           0        5.249140    0.631849    5.870372
 ---------------------------------------------------------------------

 SCF Done:  E(RPBE1PBE) =  -4067.35970891     A.U. after   16 cycles

 Excitation energies and oscillator strengths:

 Excited State   1:      Singlet-A      1.7670 eV  701.66 nm  f=0.0000  <S**2>=0.000
     312 -> 313        0.70710
 This state for optimization and/or second-order correction.
 Total Energy, E(TD-HF/TD-DFT) =  -4067.29477249
 Copying the excited state density for this state as the 1-particle RhoCI density.

 Excited State   2:      Singlet-A      1.8180 eV  681.99 nm  f=0.3722  <S**2>=0.000
     310 -> 316        0.16231
     312 -> 314        0.69662
     312 <- 314       -0.11889

 Excited State   3:      Singlet-A      1.8467 eV  671.38 nm  f=0.3985  <S**2>=0.000
     309 -> 315        0.16865
     311 -> 313        0.69407
     311 <- 313       -0.11314

 Excited State   4:      Singlet-A      1.9484 eV  636.34 nm  f=0.0000  <S**2>=0.000
     311 -> 314        0.70710

 Excited State   5:      Singlet-A      2.1901 eV  566.12 nm  f=0.1426  <S**2>=0.000
     310 -> 314        0.66451
     312 -> 316       -0.21977

 The electronic state is 1-A.
 Alpha  occ. eigenvalues --  -46.94211 -46.92218 -19.25724 -19.24752 -19.20123
 Alpha  occ. eigenvalues --  -19.19561 -19.19307 -19.19009 -19.18432 -19.17641
 Alpha  occ. eigenvalues --  -14.42438 -14.42310 -14.41815 -14.40976 -14.39780
 Alpha  occ. eigenvalues --  -14.39604 -14.39027 -14.38900 -10.35959 -10.35722
 Alpha  occ. eigenvalues --  -10.32686 -10.32460 -10.31853 -10.30705 -10.29938
 Alpha  occ. eigenvalues --  -10.29693 -10.29672 -10.29039 -10.28989 -10.28917
 Alpha  occ. eigenvalues --  -10.28811 -10.28516 -10.28430 -10.28423 -10.28286
 Alpha  occ. eigenvalues --  -10.28121 -10.27904 -10.27815 -10.27692 -10.27625
 Alpha  occ. eigenvalues --  -10.26875 -10.26869 -10.26862 -10.26859 -10.26814
 Alpha  occ. eigenvalues --  -10.26637 -10.26616 -10.26313 -10.26294 -10.26256
 Alpha  occ. eigenvalues --  -10.26119 -10.26019 -10.25838 -10.25815 -10.25779
 Alpha  occ. eigenvalues --  -10.25772 -10.25767 -10.25581 -10.25462 -10.25325
 Alpha  occ. eigenvalues --  -10.25251 -10.25194 -10.25032 -10.25002 -10.24943
 Alpha  occ. eigenvalues --  -10.24852 -10.24611 -10.24601 -10.24531 -10.24415
 Alpha  occ. eigenvalues --  -10.24397 -10.24324 -10.24308 -10.24057 -10.23905
 Alpha  occ. eigenvalues --  -10.23755 -10.23548 -10.23429 -10.23194 -10.23065
 Alpha  occ. eigenvalues --  -10.23049 -10.23043 -10.22990 -10.22829 -10.22662
 Alpha  occ. eigenvalues --  -10.22301  -3.15950  -3.14366  -1.88801  -1.88303
 Alpha  occ. eigenvalues --   -1.88165  -1.87176  -1.86740  -1.86603  -1.12733
 Alpha  occ. eigenvalues --   -1.10048  -1.04380  -1.04150  -1.03878  -1.03617
 Alpha  occ. eigenvalues --   -1.02947  -1.02116  -0.99751  -0.98779  -0.98410
 Alpha  occ. eigenvalues --   -0.98043  -0.97956  -0.97780  -0.97282  -0.96772
 Alpha  occ. eigenvalues --   -0.86950  -0.86470  -0.83730  -0.83432  -0.83378
 Alpha  occ. eigenvalues --   -0.82649  -0.82564  -0.82349  -0.82303  -0.81618
 Alpha  occ. eigenvalues --   -0.81291  -0.80897  -0.80228  -0.79625  -0.79184
 Alpha  occ. eigenvalues --   -0.78948  -0.77950  -0.77552  -0.77022  -0.76756
 Alpha  occ. eigenvalues --   -0.76324  -0.75237  -0.75220  -0.74931  -0.74844
 Alpha  occ. eigenvalues --   -0.74037  -0.73017  -0.72765  -0.71915  -0.71204
 Alpha  occ. eigenvalues --   -0.71179  -0.70924  -0.70789  -0.70019  -0.69820
 Alpha  occ. eigenvalues --   -0.69233  -0.67615  -0.66999  -0.66926  -0.65395
 Alpha  occ. eigenvalues --   -0.64160  -0.63803  -0.63658  -0.63427  -0.62719
 Alpha  occ. eigenvalues --   -0.62422  -0.61785  -0.61330  -0.60791  -0.60154
 Alpha  occ. eigenvalues --   -0.59644  -0.59603  -0.59233  -0.59168  -0.58639
 Alpha  occ. eigenvalues --   -0.58520  -0.57838  -0.56090  -0.55308  -0.54693
 Alpha  occ. eigenvalues --   -0.54572  -0.53947  -0.53596  -0.53512  -0.53262
 Alpha  occ. eigenvalues --   -0.52868  -0.52640  -0.51917  -0.51680  -0.51334
 Alpha  occ. eigenvalues --   -0.51024  -0.50627  -0.50386  -0.50186  -0.50184
 Alpha  occ. eigenvalues --   -0.49653  -0.49258  -0.49191  -0.49127  -0.48339
 Alpha  occ. eigenvalues --   -0.48226  -0.48002  -0.47876  -0.47802  -0.47581
 Alpha  occ. eigenvalues --   -0.47406  -0.47205  -0.47106  -0.47027  -0.46888
 Alpha  occ. eigenvalues --   -0.46590  -0.46391  -0.46313  -0.46035  -0.45895
 Alpha  occ. eigenvalues --   -0.45805  -0.45588  -0.45542  -0.45211  -0.44729
 Alpha  occ. eigenvalues --   -0.44538  -0.44365  -0.44228  -0.44035  -0.43916
 Alpha  occ. eigenvalues --   -0.43755  -0.43736  -0.43696  -0.43616  -0.43318
 Alpha  occ. eigenvalues --   -0.43265  -0.43100  -0.43088  -0.42800  -0.42710
 Alpha  occ. eigenvalues --   -0.42373  -0.42256  -0.42221  -0.42013  -0.41986
 Alpha  occ. eigenvalues --   -0.41679  -0.41589  -0.41447  -0.41298  -0.41089
 Alpha  occ. eigenvalues --   -0.41024  -0.40950  -0.40853  -0.40524  -0.40478
 Alpha  occ. eigenvalues --   -0.40065  -0.39945  -0.39856  -0.39828  -0.39671
 Alpha  occ. eigenvalues --   -0.39504  -0.39302  -0.39180  -0.39166  -0.38870
 Alpha  occ. eigenvalues --   -0.38855  -0.38751  -0.38700  -0.38477  -0.38244
 Alpha  occ. eigenvalues --   -0.38088  -0.37879  -0.37852  -0.37681  -0.37578
 Alpha  occ. eigenvalues --   -0.37516  -0.37368  -0.37170  -0.37080  -0.36708
 Alpha  occ. eigenvalues --   -0.36634  -0.36628  -0.36400  -0.36204  -0.36177
 Alpha  occ. eigenvalues --   -0.35949  -0.35602  -0.35462  -0.35269  -0.35049
 Alpha  occ. eigenvalues --   -0.34883  -0.34572  -0.34506  -0.34156  -0.33977
 Alpha  occ. eigenvalues --   -0.33659  -0.33561  -0.32881  -0.32679  -0.32563
 Alpha  occ. eigenvalues --   -0.32501  -0.32249  -0.31954  -0.31795  -0.31448
 Alpha  occ. eigenvalues --   -0.31256  -0.30710  -0.29825  -0.29368  -0.29097
 Alpha  occ. eigenvalues --   -0.29069  -0.28798  -0.28292  -0.27156  -0.26964
 Alpha  occ. eigenvalues --   -0.26190  -0.25999  -0.25735  -0.25691  -0.25155
 Alpha  occ. eigenvalues --   -0.25071  -0.24872  -0.24618  -0.21466  -0.20958
 Alpha  occ. eigenvalues --   -0.19266  -0.18884
 Alpha virt. eigenvalues --   -0.11801  -0.11529  -0.05775  -0.04919  -0.04172
 Alpha virt. eigenvalues --   -0.03920  -0.02213  -0.02022  -0.01544  -0.01171
 Alpha virt. eigenvalues --    0.00603   0.00740   0.01196   0.01298   0.01410

 Mulliken charges:
               1
     1  Mg  12.000000
     2  C    6.000000
     3  C    6.000000
     4  C    6.000000
     5  C    6.000000
     6  N    7.000000
     7  C    6.000000
     8  C    6.000000
     9  C    6.000000
    10  C    6.000000
    11  C    6.000000
    12  C    6.000000
    13  C    6.000000
    14  H    1.000000
    15  N    7.000000
    16  C    6.000000
    17  C    6.000000
    18  C    6.000000
    19  C    6.000000
    20  C    6.000000
    21  C    6.000000
    22  O    8.000000
    23  C    6.000000
    24  N    7.000000
    25  C    6.000000
    26  C    6.000000
    27  C    6.000000
    28  C    6.000000
    29  C    6.000000
    30  C    6.000000
    31  C    6.000000
    32  N    7.000000
    33  C    6.000000
    34  C    6.000000
    35  C    6.000000
    36  C    6.000000
    37  C    6.000000
    38  C    6.000000
    39  O    8.000000
    40  C    6.000000
    41  C    6.000000
    42  O    8.000000
    43  O    8.000000
    44  C    6.000000
    45  H    1.000000
    46  H    1.000000
    47  H    1.000000
    48  H    1.000000
    49  H    1.000000
    50  H    1.000000
    51  H    1.000000
    52  H    1.000000
    53  H    1.000000
    54  H    1.000000
    55  H    1.000000
    56  H    1.000000
    57  H    1.000000
    58  H    1.000000
    59  H    1.000000
    60  H    1.000000
    61  H    1.000000
    62  H    1.000000
    63  H    1.000000
    64  H    1.000000
    65  H    1.000000
    66  H    1.000000
    67  H    1.000000
    68  H    1.000000
    69  H    1.000000
    70  H    1.000000
    71  H    1.000000
    72  H    1.000000
    73  H    1.000000
    74  H    1.000000
    75  H    1.000000
    76  H    1.000000
    77  H    1.000000
    78  H    1.000000
    79  H    1.000000
    80  Mg  12.000000
    81  C    6.000000
    82  C    6.000000
    83  C    6.000000
    84  C    6.000000
    85  N    7.000000
    86  C    6.000000
    87  C    6.000000
    88  C    6.000000
    89  C    6.000000
    90  C    6.000000
    91  C    6.000000
    92  C    6.000000
    93  H    1.000000
    94  N    7.000000
    95  C    6.000000
    96  C    6.000000
    97  C    6.000000
    98  C    6.000000
    99  C    6.000000
   100  C    6.000000
   101  O    8.000000
   102  C    6.000000
   103  N    7.000000
   104  C    6.000000
   105  C    6.000000
   106  C    6.000000
   107  C    6.000000
   108  C    6.000000
   109  C    6.000000
   110  C    6.000000
   111  N    7.000000
   112  C    6.000000
   113  C    6.000000
   114  C    6.000000
   115  C    6.000000
   116  C    6.000000
   117  C    6.000000
   118  O    8.000000
   119  C    6.000000
   120  C    6.000000
   121  O    8.000000
   122  O    8.000000
   123  C    6.000000
   124  H    1.000000
   125  H    1.000000
   126  H    1.000000
   127  H    1.000000
   128  H    1.000000
   129  H    1.000000
   130  H    1.000000
   131  H    1.000000
   132  H    1.000000
   133  H    1.000000
   134  H    1.000000
   135  H    1.000000
   136  H    1.000000
   137  H    1.000000
   138  H    1.000000
   139  H    1.000000
   140  H    1.000000
   141  H    1.000000
   142  H    1.000000
   143  H    1.000000
   144  H    1.000000
   145  H    1.000000
   146  H    1.000000
   147  H    1.000000
   148  H    1.000000
   149  H    1.000000
   150  H    1.000000
   151  H    1.000000
   152  H    1.000000
   153  H    1.000000
   154  H    1.000000
   155  H    1.000000
   156  H    1.000000
   157  H    1.000000
   158  H    1.000000
 Sum of Mulliken charges = 624.00000

 Dipole moment (field-independent basis, Debye):
    X=              0.0000    Y=             -0.0000    Z=             -0.0000  Tot=              0.0000
 Quadrupole moment (field-independent basis, Debye-Ang):
   XX=              0.0000   YY=              0.0000   ZZ=             -0.0000
   XY=             -0.0000   XZ=             -0.0000   YZ=              0.0000

 Normal termination of Gaussian 16 at Thu Oct 14 05:11:31 2021.
