 Gaussian 16, Revision A.03,
 Gaussian 16:  ES64L-G16RevA.03 25-Dec-2016

 --------------------------------------------------------
 #p PBE1PBE/Def2SVP td=(nstates=5) density=(transition=1)
 --------------------------------------------------------

 --------------------------------
 TDDFT excited states in gaussian
 --------------------------------
 Symbolic Z-matrix:
 Charge =  0 Multiplicity = 1

                         Standard orientation:
 ---------------------------------------------------------------------
 Center     Atomic      Atomic             Coordinates (Angstroms)
 Number     Number       Type             X           Y           Z
 ---------------------------------------------------------------------
      1         12           0      -16.500283    0.508981    0.233593
      2          6           0      -15.110998   -2.064809   -1.520016
      3          6           0      -17.150105   -1.752582    2.874991
      4          6           0      -18.079341    2.951071    1.893714
      5          6           0      -15.758940    2.625607   -2.368154
      6          7           0      -16.464076   -1.694769    0.519514
      7          6           0      -15.724093   -2.531031   -0.326152
      8          6           0      -15.668509   -3.991815    0.203921
      9          6           0      -16.397648   -3.785564    1.558178
     10          6           0      -16.765806   -2.316030    1.654392
     11          6           0      -17.631144   -4.690274    1.984798
     12          6           0      -14.223468   -4.637125    0.377075
     13          6           0      -14.296275   -6.079675    0.945610
     14          1           0      -13.956799   -7.154197   -0.088318
     15          7           0      -17.457274    0.589714    2.191354
     16          6           0      -17.385944   -0.382336    3.165910
     17          6           0      -18.143048    0.137822    4.298443
     18          6           0      -18.415357    1.510570    3.994871
     19          6           0      -17.968433    1.764202    2.661383
     20          6           0      -18.402104   -0.700632    5.490291
     21          6           0      -19.224758    2.454595    4.951046
     22          8           0      -19.650971    3.578157    4.615072
     23          6           0      -19.592700    1.986777    6.334974
     24          7           0      -16.872710    2.386699   -0.165237
     25          6           0      -17.585352    3.273912    0.689617
     26          6           0      -17.949077    4.549224   -0.036451
     27          6           0      -16.847113    4.571777   -1.093974
     28          6           0      -16.402441    3.120865   -1.211611
     29          6           0      -19.387054    4.512461   -0.654611
     30          6           0      -15.623080    5.411310   -0.664774
     31          6           0      -15.644021    6.893892   -0.923614
     32          7           0      -15.650557    0.409320   -1.642189
     33          6           0      -15.270201    1.344122   -2.527949
     34          6           0      -14.643134    0.709119   -3.649288
     35          6           0      -14.530629   -0.622640   -3.310787
     36          6           0      -15.124858   -0.757595   -2.046420
     37          6           0      -14.155304    1.470635   -4.832104
     38          6           0      -14.043242   -1.854043   -3.766473
     39          8           0      -13.438355   -2.161688   -4.775356
     40          6           0      -14.404975   -2.878890   -2.591577
     41          6           0      -15.228928   -3.970973   -3.176113
     42          8           0      -16.350127   -3.884231   -3.614483
     43          8           0      -14.630731   -5.157476   -3.033810
     44          6           0      -15.395221   -6.360607   -3.543017
     45          1           0      -17.174002   -2.467406    3.699988
     46          1           0      -18.585454    3.759038    2.425850
     47          1           0      -15.377972    3.254036   -3.175424
     48          1           0      -16.272496   -4.619254   -0.451611
     49          1           0      -15.687819   -3.917539    2.375321
     50          1           0      -17.698330   -4.948121    3.042063
     51          1           0      -17.732642   -5.526003    1.292215
     52          1           0      -18.494283   -4.039454    1.845707
     53          1           0      -13.701012   -3.915940    1.004391
     54          1           0      -13.735828   -4.645192   -0.597643
     55          1           0      -15.251221   -6.233346    1.448172
     56          1           0      -13.517880   -6.150570    1.704763
     57          1           0      -19.470444   -0.915384    5.521879
     58          1           0      -17.954029   -0.168374    6.329371
     59          1           0      -17.843425   -1.635046    5.434991
     60          1           0      -20.095931    2.788467    6.875494
     61          1           0      -18.629840    1.872679    6.834844
     62          1           0      -20.161924    1.060636    6.410218
     63          1           0      -17.906184    5.409412    0.632209
     64          1           0      -17.189243    4.918837   -2.068744
     65          1           0      -19.418188    3.876524   -1.538469
     66          1           0      -19.720001    5.521733   -0.898173
     67          1           0      -20.027723    4.117379    0.133005
     68          1           0      -14.684907    5.028117   -1.064127
     69          1           0      -15.438680    5.265095    0.399611
     70          1           0      -15.545156    7.379548    0.046772
     71          1           0      -16.676242    7.074445   -1.224049
     72          1           0      -14.936725    7.232513   -1.680867
     73          1           0      -13.089111    1.673328   -4.738632
     74          1           0      -14.715401    2.350563   -5.150010
     75          1           0      -14.244973    0.777608   -5.668809
     76          1           0      -13.474276   -3.286191   -2.195934
     77          1           0      -16.394668   -6.307561   -3.110724
     78          1           0      -14.967715   -7.310118   -3.219823
     79          1           0      -15.430807   -6.294533   -4.630653
     80         12           0       15.893508    0.730014   -0.171011
     81          6           0       18.178935   -1.539744    0.972210
     82          6           0       13.816518   -1.706360   -1.094324
     83          6           0       13.952752    3.039238   -1.405309
     84          6           0       18.429805    3.189302    0.299787
     85          7           0       16.055202   -1.433392   -0.231037
     86          6           0       16.954746   -2.105076    0.530328
     87          6           0       16.515305   -3.517608    0.802947
     88          6           0       15.238400   -3.615316   -0.124825
     89          6           0       15.048348   -2.188812   -0.592952
     90          6           0       15.342477   -4.662988   -1.259070
     91          6           0       16.307736   -3.868809    2.400120
     92          6           0       16.915901   -5.167489    2.951313
     93          1           0       17.169940   -6.318665    1.928006
     94          7           0       14.127531    0.690480   -0.926592
     95          6           0       13.373813   -0.387973   -1.265044
     96          6           0       12.158274   -0.037935   -1.958705
     97          6           0       12.088587    1.319742   -1.872670
     98          6           0       13.475396    1.734360   -1.494927
     99          6           0       11.359610   -1.172478   -2.573943
    100          6           0       10.939678    2.257275   -2.294164
    101          8           0       10.993476    3.463675   -2.235619
    102          6           0        9.735558    1.539954   -2.829070
    103          7           0       16.261207    2.801448   -0.649994
    104          6           0       15.200314    3.529262   -1.042876
    105          6           0       15.550332    5.019565   -1.099736
    106          6           0       16.867822    5.101130   -0.256328
    107          6           0       17.244916    3.606180   -0.209684
    108          6           0       15.675811    5.712453   -2.523074
    109          6           0       16.725551    5.652055    1.212470
    110          6           0       15.831719    5.011190    2.241352
    111          7           0       17.880592    0.916907    0.569158
    112          6           0       18.832711    1.939840    0.625965
    113          6           0       20.105653    1.463719    1.182116
    114          6           0       19.890642    0.086937    1.344836
    115          6           0       18.534210   -0.151455    0.958227
    116          6           0       21.325524    2.268905    1.549697
    117          6           0       20.459696   -1.120765    1.735817
    118          8           0       21.579522   -1.433964    2.108639
    119          6           0       19.326426   -2.179171    1.741318
    120          6           0       19.957844   -3.326496    1.049906
    121          8           0       20.089323   -3.441717   -0.171020
    122          8           0       20.490143   -4.209081    1.944562
    123          6           0       21.410627   -5.248078    1.472013
    124          1           0       13.086082   -2.510993   -1.203560
    125          1           0       13.337406    3.871784   -1.750553
    126          1           0       19.091757    4.048880    0.429809
    127          1           0       17.222400   -4.228992    0.376138
    128          1           0       14.369414   -3.832724    0.495841
    129          1           0       15.535639   -4.146260   -2.199087
    130          1           0       14.384806   -5.176774   -1.342829
    131          1           0       16.169551   -5.322402   -0.995696
    132          1           0       15.226594   -3.893735    2.537086
    133          1           0       16.749745   -3.090989    3.021993
    134          1           0       16.227203   -5.636910    3.653262
    135          1           0       17.806879   -4.938186    3.535722
    136          1           0       11.882846   -1.746073   -3.339161
    137          1           0       10.500089   -0.961890   -3.210041
    138          1           0       11.061105   -1.720000   -1.679933
    139          1           0        9.365402    0.815706   -2.103818
    140          1           0       10.110362    1.155548   -3.777451
    141          1           0        8.826056    2.108835   -3.018821
    142          1           0       14.679416    5.466156   -0.618663
    143          1           0       17.629266    5.609796   -0.847982
    144          1           0       15.469506    4.979178   -3.302349
    145          1           0       16.707661    5.998658   -2.723235
    146          1           0       15.072093    6.606930   -2.683889
    147          1           0       16.408069    6.671076    0.989856
    148          1           0       17.683075    5.694188    1.730599
    149          1           0       15.213289    4.250364    1.763339
    150          1           0       15.148115    5.746882    2.664807
    151          1           0       16.327896    4.468945    3.046013
    152          1           0       22.151335    2.111879    0.857228
    153          1           0       21.640749    2.017994    2.562646
    154          1           0       20.991097    3.296470    1.404787
    155          1           0       18.968817   -2.387132    2.749934
    156          1           0       22.093736   -5.580107    2.254711
    157          1           0       21.875730   -4.980869    0.524362
    158          1           0       20.891845   -6.149844    1.147283
 ---------------------------------------------------------------------

 SCF Done:  E(RPBE1PBE) =  -4067.39172434     A.U. after   16 cycles

 Excitation energies and oscillator strengths:

 Excited State   1:      Singlet-A      1.7169 eV  722.15 nm  f=0.0000  <S**2>=0.000
     312 -> 313        0.70710
 This state for optimization and/or second-order correction.
 Total Energy, E(TD-HF/TD-DFT) =  -4067.32863060
 Copying the excited state density for this state as the 1-particle RhoCI density.

 Excited State   2:      Singlet-A      1.8105 eV  684.80 nm  f=0.3738  <S**2>=0.000
     309 -> 316       -0.15516
     311 -> 313        0.69946
     311 <- 313       -0.12510

 Excited State   3:      Singlet-A      1.8951 eV  654.25 nm  f=0.3642  <S**2>=0.000
     310 -> 315        0.18687
     312 -> 314        0.68800

 Excited State   4:      Singlet-A      2.1715 eV  570.96 nm  f=0.0000  <S**2>=0.000
     311 -> 314        0.70710

 Excited State   5:      Singlet-A      2.2581 eV  549.06 nm  f=0.0579  <S**2>=0.000
     310 -> 314        0.63553
     312 -> 315       -0.29807

 The electronic state is 1-A.
 Alpha  occ. eigenvalues --  -46.91365 -46.90957 -19.25551 -19.24622 -19.19931
 Alpha  occ. eigenvalues --  -19.19535 -19.18942 -19.18935 -19.18646 -19.18096
 Alpha  occ. eigenvalues --  -14.42200 -14.41422 -14.41181 -14.40569 -14.39541
 Alpha  occ. eigenvalues --  -14.38650 -14.38515 -14.38496 -10.35509 -10.35326
 Alpha  occ. eigenvalues --  -10.32902 -10.32530 -10.32011 -10.30830 -10.29818
 Alpha  occ. eigenvalues --  -10.29534 -10.29081 -10.28426 -10.28321 -10.28296
 Alpha  occ. eigenvalues --  -10.28083 -10.27931 -10.27896 -10.27834 -10.27521
 Alpha  occ. eigenvalues --  -10.27388 -10.27208 -10.27035 -10.26935 -10.26734
 Alpha  occ. eigenvalues --  -10.26620 -10.26580 -10.26551 -10.26447 -10.26297
 Alpha  occ. eigenvalues --  -10.26247 -10.25943 -10.25742 -10.25703 -10.25665
 Alpha  occ. eigenvalues --  -10.25661 -10.25661 -10.25653 -10.25494 -10.25427
 Alpha  occ. eigenvalues --  -10.25415 -10.25280 -10.25270 -10.25243 -10.25136
 Alpha  occ. eigenvalues --  -10.25129 -10.25041 -10.25020 -10.25013 -10.24994
 Alpha  occ. eigenvalues --  -10.24600 -10.24327 -10.24113 -10.24088 -10.24068
 Alpha  occ. eigenvalues --  -10.23982 -10.23655 -10.23573 -10.23524 -10.23487
 Alpha  occ. eigenvalues --  -10.23470 -10.23324 -10.23307 -10.23249 -10.23245
 Alpha  occ. eigenvalues --  -10.23138 -10.22734 -10.22656 -10.22612 -10.22569
 Alpha  occ. eigenvalues --  -10.22024  -3.13792  -3.13311  -1.86599  -1.86182
 Alpha  occ. eigenvalues --   -1.86156  -1.86049  -1.85704  -1.85533  -1.11676
 Alpha  occ. eigenvalues --   -1.09665  -1.06081  -1.05128  -1.03923  -1.03147
 Alpha  occ. eigenvalues --   -1.01952  -1.00788  -1.00147  -1.00109  -0.99281
 Alpha  occ. eigenvalues --   -0.98845  -0.98578  -0.97789  -0.97788  -0.96777
 Alpha  occ. eigenvalues --   -0.87669  -0.86825  -0.83798  -0.83440  -0.83178
 Alpha  occ. eigenvalues --   -0.82991  -0.82698  -0.82281  -0.82253  -0.82249
 Alpha  occ. eigenvalues --   -0.81824  -0.81547  -0.81022  -0.80950  -0.78695
 Alpha  occ. eigenvalues --   -0.78642  -0.78320  -0.77903  -0.76880  -0.76859
 Alpha  occ. eigenvalues --   -0.76724  -0.75876  -0.75559  -0.75409  -0.74963
 Alpha  occ. eigenvalues --   -0.74832  -0.73217  -0.72796  -0.71915  -0.71862
 Alpha  occ. eigenvalues --   -0.71575  -0.71324  -0.70527  -0.70037  -0.69643
 Alpha  occ. eigenvalues --   -0.69552  -0.67694  -0.67160  -0.66315  -0.66121
 Alpha  occ. eigenvalues --   -0.64005  -0.63926  -0.63439  -0.63377  -0.62720
 Alpha  occ. eigenvalues --   -0.62640  -0.61668  -0.60614  -0.60295  -0.59845
 Alpha  occ. eigenvalues --   -0.59485  -0.59455  -0.59262  -0.59247  -0.58754
 Alpha  occ. eigenvalues --   -0.58347  -0.56682  -0.56361  -0.55549  -0.54864
 Alpha  occ. eigenvalues --   -0.54637  -0.53927  -0.53818  -0.53767  -0.53554
 Alpha  occ. eigenvalues --   -0.52951  -0.52584  -0.52465  -0.52386  -0.52133
 Alpha  occ. eigenvalues --   -0.51202  -0.50845  -0.50514  -0.49879  -0.49716
 Alpha  occ. eigenvalues --   -0.49634  -0.49290  -0.49183  -0.48879  -0.48733
 Alpha  occ. eigenvalues --   -0.48223  -0.48073  -0.48039  -0.47823  -0.47451
 Alpha  occ. eigenvalues --   -0.47333  -0.47312  -0.47050  -0.46896  -0.46858
 Alpha  occ. eigenvalues --   -0.46837  -0.46364  -0.46338  -0.46157  -0.45952
 Alpha  occ. eigenvalues --   -0.45832  -0.45253  -0.45066  -0.44987  -0.44941
 Alpha  occ. eigenvalues --   -0.44851  -0.44638  -0.44504  -0.44328  -0.44008
 Alpha  occ. eigenvalues --   -0.43937  -0.43881  -0.43738  -0.43632  -0.43463
 Alpha  occ. eigenvalues --   -0.43417  -0.43160  -0.43020  -0.42786  -0.42732
 Alpha  occ. eigenvalues --   -0.42669  -0.42424  -0.42397  -0.42199  -0.41895
 Alpha  occ. eigenvalues --   -0.41862  -0.41657  -0.41500  -0.41382  -0.41354
 Alpha  occ. eigenvalues --   -0.41251  -0.41178  -0.40901  -0.40617  -0.40533
 Alpha  occ. eigenvalues --   -0.40262  -0.40237  -0.40057  -0.40002  -0.39677
 Alpha  occ. eigenvalues --   -0.39485  -0.39284  -0.39050  -0.38884  -0.38722
 Alpha  occ. eigenvalues --   -0.38625  -0.38625  -0.38613  -0.38403  -0.38267
 Alpha  occ. eigenvalues --   -0.38119  -0.37944  -0.37761  -0.37757  -0.37691
 Alpha  occ. eigenvalues --   -0.37218  -0.37070  -0.36933  -0.36771  -0.36762
 Alpha  occ. eigenvalues --   -0.36597  -0.36431  -0.36413  -0.36097  -0.36040
 Alpha  occ. eigenvalues --   -0.35929  -0.35838  -0.35644  -0.35641  -0.35424
 Alpha  occ. eigenvalues --   -0.35383  -0.34974  -0.34794  -0.34494  -0.34163
 Alpha  occ. eigenvalues --   -0.33476  -0.33414  -0.33193  -0.33040  -0.32527
 Alpha  occ. eigenvalues --   -0.32081  -0.32034  -0.31732  -0.31555  -0.31512
 Alpha  occ. eigenvalues --   -0.31386  -0.30124  -0.29586  -0.29548  -0.29166
 Alpha  occ. eigenvalues --   -0.28737  -0.28527  -0.27874  -0.27688  -0.27119
 Alpha  occ. eigenvalues --   -0.26362  -0.26256  -0.26140  -0.26045  -0.25533
 Alpha  occ. eigenvalues --   -0.25463  -0.25128  -0.24865  -0.21520  -0.20680
 Alpha  occ. eigenvalues --   -0.18839  -0.18282
 Alpha virt. eigenvalues --   -0.11569  -0.10451  -0.05233  -0.05163  -0.03936
 Alpha virt. eigenvalues --   -0.03890  -0.02121  -0.01874  -0.00067   0.00135
 Alpha virt. eigenvalues --    0.00934   0.00936   0.01312   0.01656   0.01667

 Mulliken charges:
               1
     1  Mg  12.000000
     2  C    6.000000
     3  C    6.000000
     4  C    6.000000
     5  C    6.000000
     6  N    7.000000
     7  C    6.000000
     8  C    6.000000
     9  C    6.000000
    10  C    6.000000
    11  C    6.000000
    12  C    6.000000
    13  C    6.000000
    14  H    1.000000
    15  N    7.000000
    16  C    6.000000
    17  C    6.000000
    18  C    6.000000
    19  C    6.000000
    20  C    6.000000
    21  C    6.000000
    22  O    8.000000
    23  C    6.000000
    24  N    7.000000
    25  C    6.000000
    26  C    6.000000
    27  C    6.000000
    28  C    6.000000
    29  C    6.000000
    30  C    6.000000
    31  C    6.000000
    32  N    7.000000
    33  C    6.000000
    34  C    6.000000
    35  C    6.000000
    36  C    6.000000
    37  C    6.000000
    38  C    6.000000
    39  O    8.000000
    40  C    6.000000
    41  C    6.000000
    42  O    8.000000
    43  O    8.000000
    44  C    6.000000
    45  H    1.000000
    46  H    1.000000
    47  H    1.000000
    48  H    1.000000
    49  H    1.000000
    50  H    1.000000
    51  H    1.000000
    52  H    1.000000
    53  H    1.000000
    54  H    1.000000
    55  H    1.000000
    56  H    1.000000
    57  H    1.000000
    58  H    1.000000
    59  H    1.000000
    60  H    1.000000
    61  H    1.000000
    62  H    1.000000
    63  H    1.000000
    64  H    1.000000
    65  H    1.000000
    66  H    1.000000
    67  H    1.000000
    68  H    1.000000
    69  H    1.000000
    70  H    1.000000
    71  H    1.000000
    72  H    1.000000
    73  H    1.000000
    74  H    1.000000
    75  H    1.000000
    76  H    1.000000
    77  H    1.000000
    78  H    1.000000
    79  H    1.000000
    80  Mg  12.000000
    81  C    6.000000
    82  C    6.000000
    83  C    6.000000
    84  C    6.000000
    85  N    7.000000
    86  C    6.000000
    87  C    6.000000
    88  C    6.000000
    89  C    6.000000
    90  C    6.000000
    91  C    6.000000
    92  C    6.000000
    93  H    1.000000
    94  N    7.000000
    95  C    6.000000
    96  C    6.000000
    97  C    6.000000
    98  C    6.000000
    99  C    6.000000
   100  C    6.000000
   101  O    8.000000
   102  C    6.000000
   103  N    7.000000
   104  C    6.000000
   105  C    6.000000
   106  C    6.000000
   107  C    6.000000
   108  C    6.000000
   109  C    6.000000
   110  C    6.000000
   111  N    7.000000
   112  C    6.000000
   113  C    6.000000
   114  C    6.000000
   115  C    6.000000
   116  C    6.000000
   117  C    6.000000
   118  O    8.000000
   119  C    6.000000
   120  C    6.000000
   121  O    8.000000
   122  O    8.000000
   123  C    6.000000
   124  H    1.000000
   125  H    1.000000
   126  H    1.000000
   127  H    1.000000
   128  H    1.000000
   129  H    1.000000
   130  H    1.000000
   131  H    1.000000
   132  H    1.000000
   133  H    1.000000
   134  H    1.000000
   135  H    1.000000
   136  H    1.000000
   137  H    1.000000
   138  H    1.000000
   139  H    1.000000
   140  H    1.000000
   141  H    1.000000
   142  H    1.000000
   143  H    1.000000
   144  H    1.000000
   145  H    1.000000
   146  H    1.000000
   147  H    1.000000
   148  H    1.000000
   149  H    1.000000
   150  H    1.000000
   151  H    1.000000
   152  H    1.000000
   153  H    1.000000
   154  H    1.000000
   155  H    1.000000
   156  H    1.000000
   157  H    1.000000
   158  H    1.000000
 Sum of Mulliken charges = 624.00000

 Dipole moment (field-independent basis, Debye):
    X=             -0.0000    Y=             -0.0000    Z=              0.0000  Tot=              0.0000
 Quadrupole moment (field-independent basis, Debye-Ang):
   XX=              0.0000   YY=             -0.0000   ZZ=              0.0000
   XY=              0.0000   XZ=             -0.0000   YZ=              0.0000

 Normal termination of Gaussian 16 at Fri Oct 15 03:50:16 2021.
