 Gaussian 16, Revision A.03,
 Gaussian 16:  ES64L-G16RevA.03 25-Dec-2016

 --------------------------------------------------------
 #p PBE1PBE/Def2SVP td=(nstates=5) density=(transition=1)
 --------------------------------------------------------

 --------------------------------
 TDDFT excited states in gaussian
 --------------------------------
 Symbolic Z-matrix:
 Charge =  0 Multiplicity = 1

                         Standard orientation:
 ---------------------------------------------------------------------
 Center     Atomic      Atomic             Coordinates (Angstroms)
 Number     Number       Type             X           Y           Z
 ---------------------------------------------------------------------
      1         12           0       25.667173   -0.193250   -0.313723
      2          6           0       22.372217   -0.435156    0.656346
      3          6           0       24.711871    1.979682   -2.769341
      4          6           0       28.776765    0.921507   -0.335396
      5          6           0       26.475324   -2.407229    2.288712
      6          7           0       23.780882    0.993741   -0.626802
      7          6           0       22.543781    0.549948   -0.285277
      8          6           0       21.446587    1.284741   -0.997080
      9          6           0       22.198296    1.681668   -2.308730
     10          6           0       23.654328    1.473675   -1.919113
     11          6           0       21.720441    0.878290   -3.552213
     12          6           0       20.955295    2.584340   -0.182453
     13          6           0       19.395810    2.917647   -0.298244
     14          1           0       19.258575    4.290985   -0.907464
     15          7           0       26.640137    1.117501   -1.550056
     16          6           0       26.119866    1.990911   -2.440018
     17          6           0       27.170416    2.807428   -3.034857
     18          6           0       28.363878    2.484216   -2.357060
     19          6           0       27.945147    1.464622   -1.354578
     20          6           0       26.851163    3.844385   -4.138973
     21          6           0       29.640828    3.256234   -2.539473
     22          8           0       29.687836    4.140484   -3.354417
     23          6           0       30.922076    3.038136   -1.712169
     24          7           0       27.470551   -0.748440    0.727604
     25          6           0       28.559776   -0.144302    0.547547
     26          6           0       29.624395   -0.548074    1.499314
     27          6           0       28.903114   -1.653314    2.366579
     28          6           0       27.554301   -1.620792    1.790914
     29          6           0       30.936254   -0.972328    0.756445
     30          6           0       28.915417   -1.297150    3.924998
     31          6           0       28.653762   -2.468306    4.937544
     32          7           0       24.687041   -1.294442    1.130609
     33          6           0       25.145561   -2.227008    2.043292
     34          6           0       24.044516   -2.880794    2.694618
     35          6           0       22.892734   -2.228026    2.131035
     36          6           0       23.343304   -1.228183    1.290853
     37          6           0       24.098553   -3.976153    3.710304
     38          6           0       21.470532   -2.226252    2.131129
     39          8           0       20.593953   -2.866445    2.725952
     40          6           0       21.076044   -0.942355    1.328626
     41          6           0       19.961909   -1.335336    0.416787
     42          8           0       18.757005   -1.209467    0.676735
     43          8           0       20.471450   -1.904690   -0.717459
     44          6           0       19.344154   -2.333670   -1.592126
     45          1           0       24.508870    2.570989   -3.665084
     46          1           0       29.780088    1.351157   -0.326150
     47          1           0       26.732715   -2.987116    3.178348
     48          1           0       20.701380    0.514982   -1.193662
     49          1           0       21.971722    2.721112   -2.546625
     50          1           0       21.263398    1.561329   -4.267640
     51          1           0       20.921920    0.215684   -3.216817
     52          1           0       22.574715    0.313851   -3.924701
     53          1           0       21.521402    3.500636   -0.349176
     54          1           0       21.139109    2.452962    0.883388
     55          1           0       19.062179    2.981248    0.737598
     56          1           0       18.721381    2.198946   -0.763910
     57          1           0       27.121465    4.871975   -3.896160
     58          1           0       25.813754    3.830939   -4.475030
     59          1           0       27.391578    3.527932   -5.030489
     60          1           0       31.367339    2.054717   -1.859342
     61          1           0       30.791654    3.221416   -0.645336
     62          1           0       31.568001    3.872518   -1.987155
     63          1           0       29.776302    0.350554    2.097072
     64          1           0       29.209981   -2.691682    2.243492
     65          1           0       31.727523   -0.314460    1.115225
     66          1           0       30.830744   -0.905814   -0.326545
     67          1           0       31.345482   -1.927740    1.084439
     68          1           0       28.172320   -0.528372    4.137918
     69          1           0       29.898354   -0.866437    4.110154
     70          1           0       29.397747   -2.743637    5.684558
     71          1           0       28.515248   -3.408614    4.405691
     72          1           0       27.740424   -2.280252    5.501972
     73          1           0       25.071600   -4.435628    3.882872
     74          1           0       23.377717   -4.660386    3.264547
     75          1           0       23.631754   -3.468404    4.554434
     76          1           0       20.777799   -0.098049    1.951072
     77          1           0       18.832141   -3.178236   -1.132086
     78          1           0       19.682531   -2.789061   -2.522862
     79          1           0       18.715387   -1.460917   -1.769582
     80         12           0      -25.581436    0.215530    0.337276
     81          6           0      -22.518459   -1.096697   -0.831679
     82          6           0      -27.249020   -2.359608   -1.168044
     83          6           0      -28.385529    1.861210    0.883982
     84          6           0      -23.791190    3.077378    1.428469
     85          7           0      -24.907266   -1.590204   -0.768049
     86          6           0      -23.663501   -1.887606   -1.088627
     87          6           0      -23.619635   -3.340306   -1.526962
     88          6           0      -25.083382   -3.601641   -2.053196
     89          6           0      -25.829832   -2.440541   -1.296336
     90          6           0      -25.137545   -3.597457   -3.628251
     91          6           0      -23.320732   -4.306725   -0.352161
     92          6           0      -22.759979   -5.739011   -0.762062
     93          1           0      -22.565091   -6.144196   -2.225620
     94          7           0      -27.514844   -0.276267    0.107604
     95          6           0      -28.065857   -1.442875   -0.481925
     96          6           0      -29.539243   -1.382307   -0.338474
     97          6           0      -29.873022   -0.086581    0.196794
     98          6           0      -28.588248    0.604074    0.441634
     99          6           0      -30.453912   -2.497356   -0.704750
    100          6           0      -31.245652    0.605476    0.554376
    101          8           0      -31.343506    1.711666    1.102823
    102          6           0      -32.513666   -0.044874    0.082231
    103          7           0      -26.037595    2.263403    0.959211
    104          6           0      -27.262969    2.671161    1.157571
    105          6           0      -27.394745    4.062278    1.711234
    106          6           0      -25.894631    4.486290    1.890623
    107          6           0      -25.166006    3.164672    1.488645
    108          6           0      -28.309999    4.934768    0.847187
    109          6           0      -25.517801    4.915233    3.303121
    110          6           0      -24.544333    6.141209    3.431779
    111          7           0      -23.527776    0.912763    0.408049
    112          6           0      -22.962587    2.093031    0.929473
    113          6           0      -21.545599    1.970947    0.901300
    114          6           0      -21.292847    0.834177    0.069034
    115          6           0      -22.496341    0.214629   -0.154214
    116          6           0      -20.575598    2.846257    1.641824
    117          6           0      -20.312477   -0.099947   -0.534893
    118          8           0      -19.100752   -0.044724   -0.568541
    119          6           0      -21.132883   -1.215757   -1.340926
    120          6           0      -20.388195   -2.510472   -1.356650
    121          8           0      -20.080655   -3.169595   -0.407628
    122          8           0      -19.978453   -2.849220   -2.659805
    123          6           0      -18.724437   -3.623041   -2.778516
    124          1           0      -27.855737   -3.032010   -1.778846
    125          1           0      -29.247500    2.432061    1.233807
    126          1           0      -23.266457    3.940404    1.843732
    127          1           0      -22.760413   -3.364227   -2.197152
    128          1           0      -25.467946   -4.562198   -1.708706
    129          1           0      -24.148733   -3.396626   -4.039224
    130          1           0      -25.711293   -2.699525   -3.857774
    131          1           0      -25.478343   -4.531012   -4.076124
    132          1           0      -24.287040   -4.438399    0.136392
    133          1           0      -22.637076   -3.789198    0.320707
    134          1           0      -23.440546   -6.443371   -0.281308
    135          1           0      -21.812017   -5.825265   -0.230442
    136          1           0      -30.033422   -3.474909   -0.937952
    137          1           0      -31.034070   -2.279270   -1.600949
    138          1           0      -31.075267   -2.621222    0.182548
    139          1           0      -32.913896   -0.789824    0.769792
    140          1           0      -32.156592   -0.454275   -0.863551
    141          1           0      -33.214356    0.768469   -0.104462
    142          1           0      -27.858365    3.871548    2.679021
    143          1           0      -25.580714    5.292968    1.229324
    144          1           0      -28.367025    4.618705   -0.194878
    145          1           0      -27.847578    5.921021    0.850988
    146          1           0      -29.328715    4.986482    1.232066
    147          1           0      -25.044427    4.098850    3.848328
    148          1           0      -26.476628    4.997647    3.814720
    149          1           0      -24.151372    6.442567    2.460917
    150          1           0      -23.720733    5.767816    4.039996
    151          1           0      -24.903002    7.049338    3.917412
    152          1           0      -20.889541    3.864715    1.412662
    153          1           0      -19.535231    2.730289    1.337484
    154          1           0      -20.697102    2.708154    2.716663
    155          1           0      -21.112711   -0.960081   -2.399841
    156          1           0      -18.973991   -4.598002   -3.197435
    157          1           0      -18.208632   -3.725860   -1.823170
    158          1           0      -18.105888   -3.056450   -3.474510
 ---------------------------------------------------------------------

 SCF Done:  E(RPBE1PBE) =  -4067.35337115     A.U. after   16 cycles

 Excitation energies and oscillator strengths:

 Excited State   1:      Singlet-A      1.7986 eV  689.32 nm  f=0.3483  <S**2>=0.000
     309 -> 316        0.16150
     312 -> 313        0.69480
     312 <- 313       -0.10915
 This state for optimization and/or second-order correction.
 Total Energy, E(TD-HF/TD-DFT) =  -4067.28727198
 Copying the excited state density for this state as the 1-particle RhoCI density.

 Excited State   2:      Singlet-A      1.8894 eV  656.21 nm  f=0.3614  <S**2>=0.000
     310 -> 315       -0.18730
     311 -> 314        0.68568

 Excited State   3:      Singlet-A      1.9893 eV  623.27 nm  f=0.0000  <S**2>=0.000
     311 -> 313        0.70711

 Excited State   4:      Singlet-A      2.0289 eV  611.08 nm  f=0.0000  <S**2>=0.000
     312 -> 314        0.70711

 Excited State   5:      Singlet-A      2.1350 eV  580.73 nm  f=0.0939  <S**2>=0.000
     310 -> 314        0.65947
     311 -> 315        0.23134

 The electronic state is 1-A.
 Alpha  occ. eigenvalues --  -46.92558 -46.91911 -19.26269 -19.24039 -19.20172
 Alpha  occ. eigenvalues --  -19.19854 -19.19412 -19.19390 -19.18887 -19.18437
 Alpha  occ. eigenvalues --  -14.41482 -14.41455 -14.41439 -14.41111 -14.39715
 Alpha  occ. eigenvalues --  -14.39285 -14.38420 -14.37889 -10.35804 -10.35667
 Alpha  occ. eigenvalues --  -10.33602 -10.32587 -10.32256 -10.31456 -10.29739
 Alpha  occ. eigenvalues --  -10.29629 -10.28985 -10.28984 -10.28779 -10.28283
 Alpha  occ. eigenvalues --  -10.28176 -10.28164 -10.28153 -10.28084 -10.28022
 Alpha  occ. eigenvalues --  -10.27976 -10.27855 -10.27828 -10.27753 -10.26599
 Alpha  occ. eigenvalues --  -10.26491 -10.26479 -10.26326 -10.26250 -10.26132
 Alpha  occ. eigenvalues --  -10.26120 -10.26071 -10.25924 -10.25913 -10.25898
 Alpha  occ. eigenvalues --  -10.25833 -10.25755 -10.25631 -10.25514 -10.25509
 Alpha  occ. eigenvalues --  -10.25420 -10.25406 -10.25391 -10.25329 -10.25311
 Alpha  occ. eigenvalues --  -10.25197 -10.25157 -10.25108 -10.25081 -10.25054
 Alpha  occ. eigenvalues --  -10.24597 -10.24594 -10.24562 -10.24401 -10.24322
 Alpha  occ. eigenvalues --  -10.23916 -10.23889 -10.23889 -10.23811 -10.23805
 Alpha  occ. eigenvalues --  -10.23740 -10.23740 -10.23644 -10.23591 -10.23456
 Alpha  occ. eigenvalues --  -10.23371 -10.23303 -10.23233 -10.22852 -10.22559
 Alpha  occ. eigenvalues --  -10.22527  -3.14711  -3.13955  -1.87537  -1.87099
 Alpha  occ. eigenvalues --   -1.86925  -1.86808  -1.86328  -1.86175  -1.10787
 Alpha  occ. eigenvalues --   -1.10041  -1.06390  -1.04857  -1.04576  -1.03092
 Alpha  occ. eigenvalues --   -1.01936  -1.01653  -1.01345  -0.99681  -0.99104
 Alpha  occ. eigenvalues --   -0.99046  -0.98510  -0.97669  -0.96656  -0.95270
 Alpha  occ. eigenvalues --   -0.87044  -0.86342  -0.84074  -0.83550  -0.83079
 Alpha  occ. eigenvalues --   -0.82911  -0.82499  -0.81973  -0.81614  -0.81592
 Alpha  occ. eigenvalues --   -0.81468  -0.81175  -0.80775  -0.80046  -0.78488
 Alpha  occ. eigenvalues --   -0.78173  -0.78167  -0.78099  -0.76774  -0.76513
 Alpha  occ. eigenvalues --   -0.75909  -0.75845  -0.75149  -0.75042  -0.74676
 Alpha  occ. eigenvalues --   -0.74203  -0.72800  -0.72706  -0.71937  -0.71495
 Alpha  occ. eigenvalues --   -0.71077  -0.70783  -0.70327  -0.69762  -0.69752
 Alpha  occ. eigenvalues --   -0.69401  -0.67192  -0.66999  -0.66600  -0.66136
 Alpha  occ. eigenvalues --   -0.64878  -0.64194  -0.63620  -0.62976  -0.62561
 Alpha  occ. eigenvalues --   -0.62010  -0.61749  -0.61323  -0.60952  -0.60405
 Alpha  occ. eigenvalues --   -0.59768  -0.59575  -0.59413  -0.59041  -0.59029
 Alpha  occ. eigenvalues --   -0.58044  -0.57046  -0.55716  -0.54909  -0.54501
 Alpha  occ. eigenvalues --   -0.54195  -0.53743  -0.53711  -0.53365  -0.53091
 Alpha  occ. eigenvalues --   -0.52656  -0.52557  -0.52192  -0.51485  -0.51416
 Alpha  occ. eigenvalues --   -0.51260  -0.50908  -0.50754  -0.50276  -0.50030
 Alpha  occ. eigenvalues --   -0.49727  -0.49515  -0.48802  -0.48758  -0.48251
 Alpha  occ. eigenvalues --   -0.47760  -0.47724  -0.47650  -0.47520  -0.47367
 Alpha  occ. eigenvalues --   -0.47127  -0.46778  -0.46764  -0.46608  -0.46436
 Alpha  occ. eigenvalues --   -0.46301  -0.46267  -0.45922  -0.45902  -0.45763
 Alpha  occ. eigenvalues --   -0.45705  -0.45346  -0.45340  -0.45031  -0.44830
 Alpha  occ. eigenvalues --   -0.44780  -0.44740  -0.44503  -0.44484  -0.44114
 Alpha  occ. eigenvalues --   -0.44008  -0.43856  -0.43701  -0.43620  -0.43292
 Alpha  occ. eigenvalues --   -0.42960  -0.42947  -0.42937  -0.42659  -0.42458
 Alpha  occ. eigenvalues --   -0.42405  -0.42345  -0.42150  -0.41997  -0.41939
 Alpha  occ. eigenvalues --   -0.41747  -0.41561  -0.41409  -0.41060  -0.41030
 Alpha  occ. eigenvalues --   -0.41021  -0.41000  -0.40897  -0.40638  -0.40509
 Alpha  occ. eigenvalues --   -0.40369  -0.40289  -0.40039  -0.39843  -0.39761
 Alpha  occ. eigenvalues --   -0.39738  -0.39454  -0.39192  -0.39116  -0.39099
 Alpha  occ. eigenvalues --   -0.38896  -0.38685  -0.38642  -0.38517  -0.38298
 Alpha  occ. eigenvalues --   -0.38017  -0.38014  -0.37949  -0.37541  -0.37506
 Alpha  occ. eigenvalues --   -0.37438  -0.37383  -0.37019  -0.36967  -0.36883
 Alpha  occ. eigenvalues --   -0.36845  -0.36779  -0.36558  -0.36429  -0.36271
 Alpha  occ. eigenvalues --   -0.36222  -0.36099  -0.36018  -0.35838  -0.35728
 Alpha  occ. eigenvalues --   -0.35101  -0.34952  -0.34890  -0.34582  -0.33949
 Alpha  occ. eigenvalues --   -0.33642  -0.33602  -0.33221  -0.32736  -0.32650
 Alpha  occ. eigenvalues --   -0.32513  -0.31892  -0.31782  -0.31478  -0.31444
 Alpha  occ. eigenvalues --   -0.30804  -0.30387  -0.30177  -0.29373  -0.29062
 Alpha  occ. eigenvalues --   -0.29010  -0.28420  -0.28358  -0.26822  -0.26642
 Alpha  occ. eigenvalues --   -0.26350  -0.26265  -0.26083  -0.25751  -0.25331
 Alpha  occ. eigenvalues --   -0.25319  -0.24724  -0.24238  -0.21017  -0.20565
 Alpha  occ. eigenvalues --   -0.18870  -0.18730
 Alpha virt. eigenvalues --   -0.11299  -0.11016  -0.05483  -0.05311  -0.04170
 Alpha virt. eigenvalues --   -0.03970  -0.02252  -0.01738  -0.00784   0.00006
 Alpha virt. eigenvalues --    0.00265   0.00278   0.01219   0.01349   0.02301

 Mulliken charges:
               1
     1  Mg  12.000662
     2  C    6.012775
     3  C    5.992383
     4  C    5.984591
     5  C    6.003405
     6  N    7.008630
     7  C    5.966098
     8  C    6.010232
     9  C    5.986073
    10  C    6.032142
    11  C    5.997021
    12  C    5.998911
    13  C    6.002208
    14  H    0.991135
    15  N    6.995253
    16  C    6.035619
    17  C    6.022092
    18  C    6.013502
    19  C    6.029500
    20  C    5.996214
    21  C    6.008912
    22  O    8.019240
    23  C    5.998301
    24  N    7.000495
    25  C    6.029070
    26  C    5.991844
    27  C    6.010160
    28  C    5.965576
    29  C    5.997335
    30  C    6.006336
    31  C    6.001337
    32  N    6.999615
    33  C    5.973074
    34  C    5.968387
    35  C    6.000101
    36  C    5.975546
    37  C    5.999156
    38  C    5.984067
    39  O    7.971325
    40  C    6.001330
    41  C    5.995967
    42  O    7.993262
    43  O    8.000856
    44  C    6.000821
    45  H    1.010294
    46  H    1.006295
    47  H    0.991702
    48  H    1.002863
    49  H    1.005180
    50  H    1.003435
    51  H    1.015020
    52  H    0.999584
    53  H    0.989373
    54  H    1.004997
    55  H    1.002085
    56  H    1.000463
    57  H    1.017336
    58  H    1.017243
    59  H    1.016972
    60  H    1.010606
    61  H    1.011041
    62  H    1.010773
    63  H    0.997978
    64  H    0.998352
    65  H    0.999976
    66  H    0.994126
    67  H    1.008752
    68  H    0.997187
    69  H    0.988125
    70  H    0.994253
    71  H    1.001520
    72  H    1.003522
    73  H    0.982787
    74  H    0.984984
    75  H    0.982981
    76  H    0.991710
    77  H    1.000072
    78  H    0.993715
    79  H    0.994138
    80  Mg  12.000008
    81  C    6.000074
    82  C    5.999992
    83  C    5.999949
    84  C    6.000014
    85  N    7.000054
    86  C    5.999986
    87  C    6.000003
    88  C    6.000011
    89  C    5.999961
    90  C    6.000004
    91  C    5.999988
    92  C    6.000003
    93  H    1.000002
    94  N    6.999963
    95  C    5.999979
    96  C    5.999961
    97  C    5.999967
    98  C    5.999994
    99  C    6.000011
   100  C    5.999938
   101  O    7.999929
   102  C    6.000010
   103  N    6.999974
   104  C    6.000000
   105  C    6.000019
   106  C    5.999986
   107  C    6.000030
   108  C    6.000013
   109  C    5.999991
   110  C    5.999998
   111  N    7.000037
   112  C    6.000007
   113  C    6.000068
   114  C    6.000006
   115  C    5.999980
   116  C    5.999997
   117  C    6.000078
   118  O    8.000089
   119  C    5.999973
   120  C    6.000026
   121  O    8.000038
   122  O    7.999991
   123  C    5.999977
   124  H    0.999981
   125  H    0.999971
   126  H    1.000011
   127  H    0.999994
   128  H    1.000001
   129  H    0.999976
   130  H    0.999987
   131  H    0.999989
   132  H    1.000025
   133  H    1.000002
   134  H    1.000015
   135  H    1.000027
   136  H    0.999965
   137  H    0.999935
   138  H    0.999966
   139  H    0.999972
   140  H    0.999991
   141  H    0.999944
   142  H    1.000002
   143  H    0.999988
   144  H    0.999990
   145  H    0.999957
   146  H    0.999991
   147  H    1.000014
   148  H    1.000014
   149  H    0.999987
   150  H    1.000014
   151  H    0.999995
   152  H    1.000020
   153  H    1.000054
   154  H    1.000066
   155  H    1.000003
   156  H    1.000022
   157  H    1.000041
   158  H    1.000011
 Sum of Mulliken charges = 624.00000

 Dipole moment (field-independent basis, Debye):
    X=              4.7872    Y=              6.1554    Z=             -6.4273  Tot=             10.1052
 Quadrupole moment (field-independent basis, Debye-Ang):
   XX=            239.3333   YY=             -0.1311   ZZ=              1.9269
   XY=            159.3091   XZ=           -165.4938   YZ=             -1.2752

 Normal termination of Gaussian 16 at Fri Oct 15 07:18:11 2021.
