 Gaussian 16, Revision A.03,
 Gaussian 16:  ES64L-G16RevA.03 25-Dec-2016

 --------------------------------------------------------
 #p PBE1PBE/Def2SVP td=(nstates=5) density=(transition=1)
 --------------------------------------------------------

 --------------------------------
 TDDFT excited states in gaussian
 --------------------------------
 Symbolic Z-matrix:
 Charge =  0 Multiplicity = 1

                         Standard orientation:
 ---------------------------------------------------------------------
 Center     Atomic      Atomic             Coordinates (Angstroms)
 Number     Number       Type             X           Y           Z
 ---------------------------------------------------------------------
      1         12           0       20.034169   -0.674445    0.220237
      2          6           0       19.662487    2.398916   -1.358896
      3          6           0       21.759088    0.824840    2.695375
      4          6           0       21.047119   -3.710073    1.314781
      5          6           0       18.970295   -2.250297   -2.769515
      6          7           0       20.509136    1.369326    0.576348
      7          6           0       20.159588    2.533409   -0.072694
      8          6           0       20.745749    3.766610    0.668333
      9          6           0       21.816858    3.091956    1.579783
     10          6           0       21.270440    1.678716    1.719517
     11          6           0       23.266907    3.065522    0.980403
     12          6           0       19.568876    4.564010    1.259705
     13          6           0       19.691262    6.032547    1.108800
     14          1           0       18.436280    6.771758    1.230062
     15          7           0       21.039730   -1.314926    1.902150
     16          6           0       21.622736   -0.519526    2.835922
     17          6           0       21.922126   -1.322360    3.994930
     18          6           0       21.703602   -2.685689    3.580545
     19          6           0       21.318389   -2.615752    2.167962
     20          6           0       22.476286   -0.770911    5.259536
     21          6           0       21.965823   -4.040879    4.314867
     22          8           0       21.710201   -5.135740    3.809473
     23          6           0       22.415768   -4.076186    5.748698
     24          7           0       20.307694   -2.653040   -0.791600
     25          6           0       20.637525   -3.792832   -0.008610
     26          6           0       20.430370   -5.086031   -0.725217
     27          6           0       19.568212   -4.551488   -1.914707
     28          6           0       19.553606   -3.030532   -1.786597
     29          6           0       21.755448   -5.812680   -1.136793
     30          6           0       18.095128   -5.101549   -1.915983
     31          6           0       17.317164   -4.942055   -0.584926
     32          7           0       19.333807   -0.094603   -1.646462
     33          6           0       18.889287   -0.844729   -2.746202
     34          6           0       18.496187    0.086227   -3.736665
     35          6           0       18.759250    1.346084   -3.213414
     36          6           0       19.268870    1.174374   -1.968694
     37          6           0       17.871617   -0.257069   -5.051471
     38          6           0       18.758073    2.696790   -3.530735
     39          8           0       18.409694    3.261604   -4.583571
     40          6           0       19.334531    3.531015   -2.347272
     41          6           0       18.151212    4.471016   -1.957759
     42          8           0       17.085132    4.108349   -1.429326
     43          8           0       18.500683    5.770181   -2.309926
     44          6           0       17.439500    6.826185   -2.273882
     45          1           0       22.377751    1.407878    3.380890
     46          1           0       21.172058   -4.768266    1.556648
     47          1           0       18.441126   -2.671971   -3.626685
     48          1           0       21.184483    4.463205   -0.045276
     49          1           0       21.790661    3.557387    2.564625
     50          1           0       23.404519    3.584526    0.031396
     51          1           0       23.554065    2.047744    0.719374
     52          1           0       23.941626    3.560457    1.678596
     53          1           0       19.613911    4.394421    2.334581
     54          1           0       18.652358    4.182979    0.808434
     55          1           0       20.043440    6.193477    0.089758
     56          1           0       20.470530    6.385246    1.784120
     57          1           0       22.304885    0.302686    5.335356
     58          1           0       23.493193   -1.146928    5.376768
     59          1           0       21.921473   -1.182445    6.102771
     60          1           0       22.923898   -5.035649    5.847965
     61          1           0       21.559930   -4.079661    6.424094
     62          1           0       23.129040   -3.282770    5.974084
     63          1           0       19.830524   -5.808271   -0.169681
     64          1           0       20.056736   -4.825502   -2.850335
     65          1           0       22.567005   -5.084694   -1.152297
     66          1           0       21.765464   -6.300547   -2.111593
     67          1           0       22.086916   -6.612472   -0.473926
     68          1           0       18.165707   -6.134185   -2.258142
     69          1           0       17.628944   -4.564003   -2.741637
     70          1           0       16.408808   -4.349902   -0.697812
     71          1           0       18.003133   -4.475575    0.122688
     72          1           0       17.004722   -5.897131   -0.163717
     73          1           0       18.508748    0.200397   -5.808312
     74          1           0       16.851666    0.127272   -5.043762
     75          1           0       17.854759   -1.318398   -5.299565
     76          1           0       20.155886    4.137258   -2.728376
     77          1           0       16.669706    6.503138   -2.974342
     78          1           0       17.726080    7.842550   -2.543844
     79          1           0       17.172428    6.705353   -1.224000
     80         12           0      -20.489030   -0.536554   -0.057842
     81          6           0      -18.120875    1.995556    0.099111
     82          6           0      -22.847425    1.575482    1.104654
     83          6           0      -22.637528   -3.103284   -0.084896
     84          6           0      -17.936430   -2.692441   -1.105867
     85          7           0      -20.413615    1.579061    0.493487
     86          6           0      -19.416998    2.426665    0.400903
     87          6           0      -19.963249    3.861808    0.842993
     88          6           0      -21.056868    3.394060    1.779832
     89          6           0      -21.528951    2.087439    1.066245
     90          6           0      -20.501293    3.227534    3.210676
     91          6           0      -20.284313    4.756274   -0.430627
     92          6           0      -20.349978    6.261231   -0.152841
     93          1           0      -20.348944    6.740293    1.288576
     94          7           0      -22.480246   -0.694421    0.264162
     95          6           0      -23.309219    0.346402    0.676023
     96          6           0      -24.719390   -0.135921    0.576321
     97          6           0      -24.674067   -1.564958    0.282521
     98          6           0      -23.209047   -1.814098    0.227070
     99          6           0      -25.909965    0.759335    0.825876
    100          6           0      -25.839438   -2.627286    0.022444
    101          8           0      -25.636295   -3.804489   -0.293488
    102          6           0      -27.259108   -2.118886    0.162708
    103          7           0      -20.299970   -2.567440   -0.406575
    104          6           0      -21.312068   -3.428726   -0.346704
    105          6           0      -20.862214   -4.906495   -0.563822
    106          6           0      -19.447378   -4.677553   -1.114604
    107          6           0      -19.199486   -3.213333   -0.930498
    108          6           0      -20.921955   -5.797080    0.708570
    109          6           0      -19.083222   -5.279780   -2.544129
    110          6           0      -19.029948   -4.332108   -3.697089
    111          7           0      -18.407678   -0.482952   -0.242796
    112          6           0      -17.524491   -1.386571   -0.729996
    113          6           0      -16.190684   -0.902133   -0.764854
    114          6           0      -16.366422    0.479816   -0.440143
    115          6           0      -17.705785    0.621433   -0.157350
    116          6           0      -14.853123   -1.532229   -1.054899
    117          6           0      -15.747313    1.761032   -0.274027
    118          8           0      -14.597022    2.126626   -0.385642
    119          6           0      -16.853536    2.844964   -0.070982
    120          6           0      -16.525123    3.669107    1.096090
    121          8           0      -16.430758    3.203084    2.221387
    122          8           0      -16.152790    4.999032    0.772909
    123          6           0      -15.700005    5.833865    1.896676
    124          1           0      -23.564317    2.270384    1.544430
    125          1           0      -23.353027   -3.926169   -0.041897
    126          1           0      -17.158834   -3.405357   -1.386691
    127          1           0      -19.174761    4.414919    1.351561
    128          1           0      -21.938394    4.034438    1.797225
    129          1           0      -21.022828    4.018372    3.750874
    130          1           0      -19.421757    3.372878    3.268229
    131          1           0      -20.885443    2.273045    3.569832
    132          1           0      -21.245285    4.468235   -0.857786
    133          1           0      -19.435770    4.605080   -1.098280
    134          1           0      -21.247188    6.628872   -0.649842
    135          1           0      -19.505717    6.712880   -0.673165
    136          1           0      -25.713162    1.782859    0.504827
    137          1           0      -26.293356    0.803928    1.844734
    138          1           0      -26.729045    0.424724    0.189464
    139          1           0      -27.261650   -1.645326    1.144174
    140          1           0      -28.019852   -2.898351    0.193765
    141          1           0      -27.498371   -1.457270   -0.669991
    142          1           0      -21.487348   -5.407517   -1.302773
    143          1           0      -18.776145   -5.081826   -0.357784
    144          1           0      -19.999422   -6.377816    0.689347
    145          1           0      -21.783208   -6.455450    0.811005
    146          1           0      -20.995034   -5.136247    1.572361
    147          1           0      -19.739008   -6.129246   -2.735398
    148          1           0      -18.059874   -5.653475   -2.517793
    149          1           0      -17.988377   -4.261845   -4.011498
    150          1           0      -19.217249   -3.282576   -3.466821
    151          1           0      -19.595278   -4.651516   -4.572647
    152          1           0      -14.924250   -2.610666   -1.200703
    153          1           0      -14.144005   -1.226169   -0.285209
    154          1           0      -14.387612   -1.269768   -2.005151
    155          1           0      -16.944597    3.497906   -0.938607
    156          1           0      -15.584954    6.892919    1.667193
    157          1           0      -14.738169    5.391751    2.157917
    158          1           0      -16.399582    5.629351    2.706296
 ---------------------------------------------------------------------

 SCF Done:  E(RPBE1PBE) =  -4067.39125106     A.U. after   16 cycles

 Excitation energies and oscillator strengths:

 Excited State   1:      Singlet-A      1.8237 eV  679.86 nm  f=0.3637  <S**2>=0.000
     309 -> 315        0.15443
     312 -> 313        0.69680
     312 <- 313       -0.11764
 This state for optimization and/or second-order correction.
 Total Energy, E(TD-HF/TD-DFT) =  -4067.32423213
 Copying the excited state density for this state as the 1-particle RhoCI density.

 Excited State   2:      Singlet-A      1.8723 eV  662.22 nm  f=0.3780  <S**2>=0.000
     310 -> 316       -0.17554
     311 -> 314        0.69310
     311 <- 314       -0.10657

 Excited State   3:      Singlet-A      1.9595 eV  632.74 nm  f=0.0000  <S**2>=0.000
     312 -> 314        0.70710

 Excited State   4:      Singlet-A      1.9709 eV  629.09 nm  f=0.0000  <S**2>=0.000
     311 -> 313        0.70711

 Excited State   5:      Singlet-A      2.2325 eV  555.37 nm  f=0.1204  <S**2>=0.000
     309 -> 313        0.65176
     312 -> 315       -0.24369

 The electronic state is 1-A.
 Alpha  occ. eigenvalues --  -46.91678 -46.91169 -19.25365 -19.24613 -19.20481
 Alpha  occ. eigenvalues --  -19.20189 -19.19716 -19.18958 -19.18330 -19.17826
 Alpha  occ. eigenvalues --  -14.41514 -14.41375 -14.41088 -14.40892 -14.39629
 Alpha  occ. eigenvalues --  -14.38992 -14.38420 -14.38122 -10.37031 -10.35910
 Alpha  occ. eigenvalues --  -10.34185 -10.32434 -10.31420 -10.30697 -10.29132
 Alpha  occ. eigenvalues --  -10.28870 -10.28629 -10.28528 -10.28391 -10.28336
 Alpha  occ. eigenvalues --  -10.28322 -10.28307 -10.28145 -10.28097 -10.27972
 Alpha  occ. eigenvalues --  -10.27828 -10.27805 -10.27645 -10.26920 -10.26911
 Alpha  occ. eigenvalues --  -10.26841 -10.26471 -10.26138 -10.26104 -10.26028
 Alpha  occ. eigenvalues --  -10.25976 -10.25909 -10.25899 -10.25750 -10.25735
 Alpha  occ. eigenvalues --  -10.25682 -10.25477 -10.25372 -10.25362 -10.25361
 Alpha  occ. eigenvalues --  -10.25312 -10.25292 -10.25242 -10.25035 -10.24964
 Alpha  occ. eigenvalues --  -10.24952 -10.24810 -10.24770 -10.24689 -10.24625
 Alpha  occ. eigenvalues --  -10.24447 -10.24271 -10.24239 -10.24155 -10.24022
 Alpha  occ. eigenvalues --  -10.23984 -10.23871 -10.23747 -10.23558 -10.23420
 Alpha  occ. eigenvalues --  -10.23326 -10.23270 -10.23262 -10.23215 -10.23204
 Alpha  occ. eigenvalues --  -10.23072 -10.23061 -10.22941 -10.22181 -10.22002
 Alpha  occ. eigenvalues --  -10.21354  -3.13852  -3.13508  -1.86672  -1.86363
 Alpha  occ. eigenvalues --   -1.86230  -1.86077  -1.85848  -1.85781  -1.09252
 Alpha  occ. eigenvalues --   -1.09106  -1.05006  -1.04511  -1.04198  -1.02581
 Alpha  occ. eigenvalues --   -1.01598  -1.01404  -1.00366  -0.99427  -0.99409
 Alpha  occ. eigenvalues --   -0.98783  -0.98563  -0.98129  -0.97706  -0.96818
 Alpha  occ. eigenvalues --   -0.86851  -0.86593  -0.83540  -0.83426  -0.83274
 Alpha  occ. eigenvalues --   -0.82858  -0.82801  -0.82509  -0.82078  -0.81572
 Alpha  occ. eigenvalues --   -0.81400  -0.81271  -0.80809  -0.80741  -0.78850
 Alpha  occ. eigenvalues --   -0.78512  -0.78013  -0.77761  -0.77006  -0.76579
 Alpha  occ. eigenvalues --   -0.76427  -0.75763  -0.75327  -0.75215  -0.74685
 Alpha  occ. eigenvalues --   -0.74439  -0.72738  -0.72518  -0.71599  -0.71331
 Alpha  occ. eigenvalues --   -0.71178  -0.71010  -0.70296  -0.70128  -0.69790
 Alpha  occ. eigenvalues --   -0.69420  -0.67641  -0.67332  -0.66437  -0.65615
 Alpha  occ. eigenvalues --   -0.64097  -0.63685  -0.63152  -0.63140  -0.62355
 Alpha  occ. eigenvalues --   -0.61943  -0.60904  -0.60877  -0.59817  -0.59578
 Alpha  occ. eigenvalues --   -0.59160  -0.59044  -0.58989  -0.58765  -0.58523
 Alpha  occ. eigenvalues --   -0.58405  -0.56119  -0.55886  -0.55050  -0.54421
 Alpha  occ. eigenvalues --   -0.54273  -0.54203  -0.53735  -0.53726  -0.53071
 Alpha  occ. eigenvalues --   -0.52688  -0.52540  -0.52134  -0.52091  -0.51314
 Alpha  occ. eigenvalues --   -0.50524  -0.50388  -0.50228  -0.50105  -0.50001
 Alpha  occ. eigenvalues --   -0.49840  -0.49420  -0.49317  -0.49265  -0.48417
 Alpha  occ. eigenvalues --   -0.48204  -0.48025  -0.47719  -0.47611  -0.47514
 Alpha  occ. eigenvalues --   -0.47451  -0.47392  -0.47126  -0.46982  -0.46916
 Alpha  occ. eigenvalues --   -0.46628  -0.46453  -0.46433  -0.46075  -0.45991
 Alpha  occ. eigenvalues --   -0.45834  -0.45186  -0.45083  -0.45033  -0.45022
 Alpha  occ. eigenvalues --   -0.44906  -0.44381  -0.44096  -0.44085  -0.43999
 Alpha  occ. eigenvalues --   -0.43865  -0.43795  -0.43591  -0.43557  -0.43471
 Alpha  occ. eigenvalues --   -0.43331  -0.43218  -0.43145  -0.43090  -0.42701
 Alpha  occ. eigenvalues --   -0.42620  -0.42329  -0.42299  -0.42025  -0.41995
 Alpha  occ. eigenvalues --   -0.41658  -0.41636  -0.41290  -0.41248  -0.41125
 Alpha  occ. eigenvalues --   -0.41007  -0.40743  -0.40664  -0.40506  -0.40500
 Alpha  occ. eigenvalues --   -0.40469  -0.40230  -0.39663  -0.39427  -0.39339
 Alpha  occ. eigenvalues --   -0.39126  -0.39125  -0.38906  -0.38819  -0.38534
 Alpha  occ. eigenvalues --   -0.38488  -0.38332  -0.38274  -0.38186  -0.38063
 Alpha  occ. eigenvalues --   -0.37933  -0.37926  -0.37810  -0.37770  -0.37551
 Alpha  occ. eigenvalues --   -0.37397  -0.37073  -0.36967  -0.36745  -0.36658
 Alpha  occ. eigenvalues --   -0.36506  -0.36344  -0.36255  -0.35933  -0.35903
 Alpha  occ. eigenvalues --   -0.35804  -0.35725  -0.35495  -0.35448  -0.35067
 Alpha  occ. eigenvalues --   -0.34972  -0.34865  -0.34840  -0.34102  -0.33964
 Alpha  occ. eigenvalues --   -0.33168  -0.33161  -0.33038  -0.32989  -0.32546
 Alpha  occ. eigenvalues --   -0.32359  -0.31879  -0.31691  -0.31589  -0.31213
 Alpha  occ. eigenvalues --   -0.30957  -0.30553  -0.29683  -0.29264  -0.29067
 Alpha  occ. eigenvalues --   -0.29019  -0.28674  -0.28563  -0.26956  -0.26839
 Alpha  occ. eigenvalues --   -0.26612  -0.25988  -0.25619  -0.25456  -0.25279
 Alpha  occ. eigenvalues --   -0.25238  -0.24992  -0.24760  -0.21127  -0.20826
 Alpha  occ. eigenvalues --   -0.18960  -0.18806
 Alpha virt. eigenvalues --   -0.11389  -0.11282  -0.05096  -0.04791  -0.04185
 Alpha virt. eigenvalues --   -0.03629  -0.02016  -0.01982  -0.00470   0.00140
 Alpha virt. eigenvalues --    0.00419   0.00765   0.00884   0.01419   0.02046

 Mulliken charges:
               1
     1  Mg  12.002502
     2  C    5.975455
     3  C    6.002938
     4  C    6.032041
     5  C    6.016607
     6  N    6.979253
     7  C    6.032036
     8  C    5.996901
     9  C    6.006613
    10  C    5.976810
    11  C    6.003250
    12  C    5.994099
    13  C    6.000561
    14  H    0.998717
    15  N    7.006753
    16  C    5.964741
    17  C    5.980630
    18  C    5.987019
    19  C    5.962311
    20  C    6.003235
    21  C    5.987464
    22  O    7.970931
    23  C    6.004927
    24  N    7.016605
    25  C    5.958340
    26  C    6.014797
    27  C    5.992686
    28  C    6.017728
    29  C    5.999552
    30  C    5.992248
    31  C    5.994592
    32  N    6.997949
    33  C    6.027083
    34  C    6.030729
    35  C    5.999930
    36  C    6.027476
    37  C    5.997128
    38  C    6.014614
    39  O    8.028932
    40  C    6.003789
    41  C    6.003221
    42  O    8.003559
    43  O    8.001538
    44  C    5.999465
    45  H    0.985946
    46  H    0.995997
    47  H    1.015962
    48  H    0.998555
    49  H    0.998671
    50  H    0.984195
    51  H    1.000548
    52  H    0.996691
    53  H    1.011863
    54  H    0.994382
    55  H    0.996282
    56  H    1.005429
    57  H    0.985625
    58  H    0.981473
    59  H    0.982615
    60  H    0.987080
    61  H    0.989369
    62  H    0.996027
    63  H    0.999145
    64  H    1.002875
    65  H    1.000443
    66  H    0.990756
    67  H    1.003431
    68  H    1.009725
    69  H    0.993566
    70  H    0.997367
    71  H    1.013303
    72  H    1.006737
    73  H    1.017455
    74  H    1.018780
    75  H    1.016124
    76  H    1.008094
    77  H    0.999104
    78  H    1.004302
    79  H    1.004329
    80  Mg  12.000002
    81  C    6.000218
    82  C    5.999947
    83  C    5.999857
    84  C    5.999991
    85  N    7.000112
    86  C    5.999687
    87  C    6.000018
    88  C    5.999976
    89  C    6.000210
    90  C    6.000030
    91  C    6.000023
    92  C    5.999995
    93  H    1.000015
    94  N    6.999955
    95  C    6.000365
    96  C    6.000210
    97  C    6.000219
    98  C    6.000201
    99  C    5.999949
   100  C    6.000181
   101  O    8.000336
   102  C    5.999943
   103  N    6.999974
   104  C    6.000242
   105  C    5.999911
   106  C    6.000105
   107  C    5.999751
   108  C    5.999980
   109  C    5.999996
   110  C    6.000053
   111  N    6.999944
   112  C    5.999808
   113  C    5.999664
   114  C    5.999972
   115  C    5.999825
   116  C    6.000058
   117  C    5.999794
   118  O    7.999568
   119  C    5.999981
   120  C    5.999940
   121  O    7.999988
   122  O    7.999955
   123  C    6.000010
   124  H    1.000146
   125  H    1.000068
   126  H    0.999849
   127  H    1.000028
   128  H    1.000003
   129  H    1.000060
   130  H    1.000137
   131  H    0.999994
   132  H    0.999889
   133  H    1.000043
   134  H    0.999971
   135  H    0.999992
   136  H    1.000157
   137  H    1.000251
   138  H    1.000161
   139  H    1.000061
   140  H    1.000173
   141  H    1.000074
   142  H    0.999991
   143  H    0.999995
   144  H    1.000110
   145  H    1.000006
   146  H    1.000008
   147  H    0.999917
   148  H    0.999982
   149  H    0.999963
   150  H    1.000015
   151  H    0.999897
   152  H    0.999821
   153  H    0.999810
   154  H    0.999684
   155  H    0.999885
   156  H    0.999932
   157  H    0.999976
   158  H    0.999992
 Sum of Mulliken charges = 624.00000

 Dipole moment (field-independent basis, Debye):
    X=             -4.5913    Y=              2.3151    Z=             -8.8736  Tot=             10.2558
 Quadrupole moment (field-independent basis, Debye-Ang):
   XX=           -176.4598   YY=             -1.4708   ZZ=             -2.4298
   XY=             49.6505   XZ=           -180.9499   YZ=              7.3677

 Normal termination of Gaussian 16 at Thu Oct 14 17:30:53 2021.
