 Gaussian 16, Revision A.03,
 Gaussian 16:  ES64L-G16RevA.03 25-Dec-2016

 --------------------------------------------------------
 #p PBE1PBE/Def2SVP td=(nstates=5) density=(transition=1)
 --------------------------------------------------------

 --------------------------------
 TDDFT excited states in gaussian
 --------------------------------
 Symbolic Z-matrix:
 Charge =  0 Multiplicity = 1

                         Standard orientation:
 ---------------------------------------------------------------------
 Center     Atomic      Atomic             Coordinates (Angstroms)
 Number     Number       Type             X           Y           Z
 ---------------------------------------------------------------------
      1         12           0      -13.366073   -0.557656    0.280758
      2          6           0      -13.567244    2.472434   -1.326072
      3          6           0      -12.508669    1.196936    3.254963
      4          6           0      -12.604498   -3.447504    1.861406
      5          6           0      -13.845399   -2.215262   -2.595563
      6          7           0      -13.068838    1.601922    0.884100
      7          6           0      -13.203618    2.649112    0.012557
      8          6           0      -13.053567    3.989407    0.735768
      9          6           0      -12.517412    3.500069    2.159652
     10          6           0      -12.701706    2.011553    2.109474
     11          6           0      -11.061399    3.986491    2.501882
     12          6           0      -14.416849    4.813058    0.849076
     13          6           0      -14.492731    6.300254    0.600322
     14          1           0      -13.473297    7.177124    1.236258
     15          7           0      -12.696466   -1.097560    2.314501
     16          6           0      -12.586953   -0.279761    3.384503
     17          6           0      -12.384162   -1.017834    4.585992
     18          6           0      -12.439230   -2.398747    4.216275
     19          6           0      -12.516714   -2.340318    2.726000
     20          6           0      -12.137473   -0.266958    5.854592
     21          6           0      -12.216746   -3.625605    5.084175
     22          8           0      -12.012033   -4.745724    4.606151
     23          6           0      -12.219810   -3.502697    6.597817
     24          7           0      -13.087303   -2.581078   -0.322595
     25          6           0      -12.900594   -3.604450    0.551973
     26          6           0      -13.052288   -4.951449   -0.152735
     27          6           0      -13.630416   -4.527971   -1.556377
     28          6           0      -13.527160   -3.016655   -1.497889
     29          6           0      -11.873827   -5.967549   -0.215711
     30          6           0      -15.065350   -5.086386   -1.935249
     31          6           0      -16.308160   -4.276756   -1.631492
     32          7           0      -13.549525   -0.035837   -1.589161
     33          6           0      -13.887589   -0.771905   -2.696318
     34          6           0      -14.008696    0.006224   -3.874908
     35          6           0      -13.940303    1.306039   -3.383308
     36          6           0      -13.684138    1.225339   -1.990305
     37          6           0      -14.281799   -0.343150   -5.332061
     38          6           0      -13.974598    2.664112   -3.709796
     39          8           0      -14.094320    3.170897   -4.810063
     40          6           0      -13.706871    3.561164   -2.374748
     41          6           0      -12.503412    4.351680   -2.601951
     42          8           0      -11.350135    3.901889   -2.752368
     43          8           0      -12.742402    5.686733   -2.693424
     44          6           0      -11.691866    6.559579   -3.229401
     45          1           0      -12.341658    1.843310    4.118687
     46          1           0      -12.646514   -4.396293    2.399993
     47          1           0      -14.355444   -2.684251   -3.438709
     48          1           0      -12.380986    4.620196    0.153125
     49          1           0      -13.110531    3.918632    2.972917
     50          1           0      -11.116991    4.575966    3.416406
     51          1           0      -10.729359    4.507214    1.603551
     52          1           0      -10.362196    3.200098    2.787756
     53          1           0      -14.695685    4.613786    1.883944
     54          1           0      -15.228139    4.297136    0.336612
     55          1           0      -15.502958    6.659458    0.796444
     56          1           0      -14.274022    6.426121   -0.459452
     57          1           0      -12.766254   -0.760025    6.595058
     58          1           0      -12.502371    0.757398    5.775460
     59          1           0      -11.104451   -0.232021    6.202312
     60          1           0      -13.007130   -2.857875    6.989358
     61          1           0      -11.204777   -3.318086    6.952230
     62          1           0      -12.479694   -4.503740    6.943347
     63          1           0      -13.758859   -5.481835    0.486021
     64          1           0      -13.073422   -4.956811   -2.388570
     65          1           0      -11.484627   -6.031652   -1.231736
     66          1           0      -12.292032   -6.934613    0.063059
     67          1           0      -11.134408   -5.604554    0.497302
     68          1           0      -15.166109   -6.043826   -1.425927
     69          1           0      -15.114650   -5.276011   -3.007734
     70          1           0      -17.045714   -4.858008   -1.077581
     71          1           0      -16.794192   -3.872547   -2.520457
     72          1           0      -15.954043   -3.443741   -1.024185
     73          1           0      -14.431081   -1.420158   -5.417737
     74          1           0      -13.442317   -0.010035   -5.942830
     75          1           0      -15.180516    0.184313   -5.650497
     76          1           0      -14.577785    4.216364   -2.408853
     77          1           0      -12.062465    7.495180   -3.648444
     78          1           0      -10.977062    6.079727   -3.897230
     79          1           0      -11.165069    6.931579   -2.350514
     80         12           0       12.744985   -0.631769   -0.694477
     81          6           0       15.033517    1.806648    0.297927
     82          6           0       10.232353    1.432789    0.013445
     83          6           0       10.739326   -3.381975   -0.380153
     84          6           0       15.407527   -2.773504   -1.372792
     85          7           0       12.653043    1.476416   -0.078419
     86          6           0       13.690790    2.240218    0.240763
     87          6           0       13.184595    3.704548    0.503922
     88          6           0       11.648116    3.520586    0.514689
     89          6           0       11.470302    2.049340    0.151773
     90          6           0       10.974739    3.721586    1.961996
     91          6           0       13.643826    4.787488   -0.574816
     92          6           0       14.041339    6.078962    0.053661
     93          1           0       13.437001    7.378026   -0.456681
     94          7           0       10.755827   -0.911710   -0.267773
     95          6           0        9.853659    0.088608   -0.019476
     96          6           0        8.498125   -0.474009   -0.093844
     97          6           0        8.661210   -1.882824   -0.208562
     98          6           0       10.116780   -2.102299   -0.239350
     99          6           0        7.205588    0.386840    0.074459
    100          6           0        7.566826   -2.992343   -0.218153
    101          8           0        7.802308   -4.190501   -0.326865
    102          6           0        6.149710   -2.570982   -0.115723
    103          7           0       13.012299   -2.706250   -0.814076
    104          6           0       12.054236   -3.698570   -0.585729
    105          6           0       12.744721   -5.086941   -0.546025
    106          6           0       14.023039   -4.872739   -1.469524
    107          6           0       14.127754   -3.345008   -1.198992
    108          6           0       13.015164   -5.592032    0.887533
    109          6           0       13.866860   -5.157863   -2.936256
    110          6           0       13.192614   -4.176791   -3.848672
    111          7           0       14.805353   -0.518985   -0.782784
    112          6           0       15.773397   -1.464154   -1.032167
    113          6           0       17.124180   -0.909259   -0.918917
    114          6           0       16.899063    0.393184   -0.281851
    115          6           0       15.459119    0.547182   -0.225893
    116          6           0       18.364379   -1.614267   -1.130847
    117          6           0       17.534520    1.567006    0.304367
    118          8           0       18.654872    1.831563    0.533391
    119          6           0       16.316381    2.577439    0.634967
    120          6           0       16.364195    3.177190    2.017563
    121          8           0       15.810527    2.713677    3.010176
    122          8           0       17.055648    4.386459    1.952676
    123          6           0       17.193305    5.161386    3.199126
    124          1           0        9.303219    2.007141    0.016328
    125          1           0       10.043164   -4.213481   -0.249129
    126          1           0       16.189529   -3.464206   -1.693928
    127          1           0       13.463114    4.063855    1.494907
    128          1           0       11.077016    4.185986   -0.132732
    129          1           0       10.677991    4.768609    2.026779
    130          1           0       11.639604    3.566985    2.811402
    131          1           0       10.086032    3.090953    2.006460
    132          1           0       12.849339    5.008730   -1.287711
    133          1           0       14.463949    4.484133   -1.225719
    134          1           0       15.096993    6.160750   -0.203750
    135          1           0       13.979671    6.159924    1.138538
    136          1           0        6.983687    0.377257    1.141222
    137          1           0        6.393720    0.020455   -0.554282
    138          1           0        7.368147    1.459297   -0.037978
    139          1           0        5.836780   -1.774433    0.559139
    140          1           0        5.531939   -3.427693    0.152402
    141          1           0        5.741346   -2.445665   -1.118944
    142          1           0       12.037010   -5.733763   -1.063754
    143          1           0       14.885466   -5.440727   -1.121107
    144          1           0       14.040660   -5.880352    1.118546
    145          1           0       12.286415   -6.323225    1.238087
    146          1           0       12.824785   -4.792237    1.602986
    147          1           0       13.339402   -6.084747   -3.158327
    148          1           0       14.863978   -5.310394   -3.349533
    149          1           0       14.038825   -3.623929   -4.256167
    150          1           0       12.542566   -3.446228   -3.366700
    151          1           0       12.655413   -4.720398   -4.626522
    152          1           0       19.047137   -0.885046   -1.567320
    153          1           0       18.165634   -2.398884   -1.860479
    154          1           0       18.759888   -1.974293   -0.181594
    155          1           0       16.389798    3.402800   -0.073206
    156          1           0       17.609388    4.485978    3.947143
    157          1           0       16.219323    5.488383    3.562227
    158          1           0       17.795477    6.070084    3.204735
 ---------------------------------------------------------------------

 SCF Done:  E(RPBE1PBE) =  -4067.40893667     A.U. after   17 cycles

 Excitation energies and oscillator strengths:

 Excited State   1:      Singlet-A      1.7318 eV  715.94 nm  f=0.0000  <S**2>=0.000
     312 -> 313        0.70710
 This state for optimization and/or second-order correction.
 Total Energy, E(TD-HF/TD-DFT) =  -4067.34529574
 Copying the excited state density for this state as the 1-particle RhoCI density.

 Excited State   2:      Singlet-A      1.8400 eV  673.83 nm  f=0.3696  <S**2>=0.000
     310 -> 315        0.17104
     312 -> 314        0.69435
     312 <- 314       -0.11326

 Excited State   3:      Singlet-A      1.8776 eV  660.33 nm  f=0.3903  <S**2>=0.000
     309 -> 316        0.17164
     311 -> 313        0.69322
     311 <- 313       -0.11025

 Excited State   4:      Singlet-A      2.1030 eV  589.57 nm  f=0.0000  <S**2>=0.000
     311 -> 314        0.70709

 Excited State   5:      Singlet-A      2.2059 eV  562.07 nm  f=0.1637  <S**2>=0.000
     309 -> 313        0.67012
     311 -> 316       -0.21445

 The electronic state is 1-A.
 Alpha  occ. eigenvalues --  -46.92557 -46.91291 -19.25758 -19.25587 -19.20197
 Alpha  occ. eigenvalues --  -19.19723 -19.19402 -19.19095 -19.18976 -19.18810
 Alpha  occ. eigenvalues --  -14.41678 -14.41584 -14.41095 -14.40979 -14.39232
 Alpha  occ. eigenvalues --  -14.39204 -14.38884 -14.38863 -10.36581 -10.35979
 Alpha  occ. eigenvalues --  -10.32773 -10.32493 -10.32490 -10.31788 -10.28969
 Alpha  occ. eigenvalues --  -10.28938 -10.28920 -10.28877 -10.28583 -10.28350
 Alpha  occ. eigenvalues --  -10.28249 -10.28248 -10.27838 -10.27783 -10.27744
 Alpha  occ. eigenvalues --  -10.27742 -10.27731 -10.27606 -10.27311 -10.27179
 Alpha  occ. eigenvalues --  -10.27085 -10.26794 -10.26530 -10.26351 -10.26192
 Alpha  occ. eigenvalues --  -10.26116 -10.26051 -10.25981 -10.25968 -10.25925
 Alpha  occ. eigenvalues --  -10.25905 -10.25878 -10.25848 -10.25802 -10.25711
 Alpha  occ. eigenvalues --  -10.25698 -10.25474 -10.25414 -10.25408 -10.25344
 Alpha  occ. eigenvalues --  -10.25191 -10.25187 -10.24980 -10.24864 -10.24539
 Alpha  occ. eigenvalues --  -10.24423 -10.24344 -10.24324 -10.24270 -10.23940
 Alpha  occ. eigenvalues --  -10.23928 -10.23747 -10.23684 -10.23616 -10.23446
 Alpha  occ. eigenvalues --  -10.23423 -10.23398 -10.23247 -10.23123 -10.23073
 Alpha  occ. eigenvalues --  -10.23058 -10.22989 -10.22880 -10.22494 -10.22469
 Alpha  occ. eigenvalues --  -10.21908  -3.14746  -3.13569  -1.87569  -1.87080
 Alpha  occ. eigenvalues --   -1.87018  -1.86414  -1.85920  -1.85820  -1.10677
 Alpha  occ. eigenvalues --   -1.09795  -1.07587  -1.04884  -1.04769  -1.04178
 Alpha  occ. eigenvalues --   -1.02166  -1.00684  -1.00147  -0.99751  -0.99377
 Alpha  occ. eigenvalues --   -0.98832  -0.98185  -0.98170  -0.97530  -0.96754
 Alpha  occ. eigenvalues --   -0.87049  -0.86096  -0.83371  -0.83275  -0.82813
 Alpha  occ. eigenvalues --   -0.82583  -0.82514  -0.82325  -0.82226  -0.81744
 Alpha  occ. eigenvalues --   -0.81391  -0.81197  -0.80791  -0.80552  -0.78637
 Alpha  occ. eigenvalues --   -0.78413  -0.78091  -0.77813  -0.76989  -0.76779
 Alpha  occ. eigenvalues --   -0.76058  -0.76008  -0.75551  -0.75239  -0.74674
 Alpha  occ. eigenvalues --   -0.74659  -0.72720  -0.72524  -0.71854  -0.71514
 Alpha  occ. eigenvalues --   -0.71463  -0.70998  -0.70606  -0.70062  -0.69903
 Alpha  occ. eigenvalues --   -0.69186  -0.68068  -0.66643  -0.66047  -0.65878
 Alpha  occ. eigenvalues --   -0.64069  -0.63704  -0.63550  -0.62893  -0.62618
 Alpha  occ. eigenvalues --   -0.62060  -0.61589  -0.61099  -0.60097  -0.60085
 Alpha  occ. eigenvalues --   -0.59737  -0.59288  -0.59133  -0.58823  -0.58758
 Alpha  occ. eigenvalues --   -0.58510  -0.56905  -0.56324  -0.54776  -0.54701
 Alpha  occ. eigenvalues --   -0.54465  -0.54056  -0.53709  -0.53403  -0.52927
 Alpha  occ. eigenvalues --   -0.52715  -0.52498  -0.52262  -0.51938  -0.51584
 Alpha  occ. eigenvalues --   -0.50904  -0.50391  -0.50023  -0.49925  -0.49782
 Alpha  occ. eigenvalues --   -0.49641  -0.49384  -0.49283  -0.48667  -0.48563
 Alpha  occ. eigenvalues --   -0.48137  -0.47917  -0.47882  -0.47826  -0.47432
 Alpha  occ. eigenvalues --   -0.47286  -0.47170  -0.47008  -0.46816  -0.46682
 Alpha  occ. eigenvalues --   -0.46670  -0.46181  -0.46115  -0.46046  -0.45844
 Alpha  occ. eigenvalues --   -0.45712  -0.45443  -0.45115  -0.44930  -0.44875
 Alpha  occ. eigenvalues --   -0.44699  -0.44581  -0.44517  -0.44204  -0.44121
 Alpha  occ. eigenvalues --   -0.44094  -0.43932  -0.43785  -0.43726  -0.43468
 Alpha  occ. eigenvalues --   -0.43430  -0.43227  -0.43223  -0.42934  -0.42865
 Alpha  occ. eigenvalues --   -0.42612  -0.42585  -0.42403  -0.42187  -0.41873
 Alpha  occ. eigenvalues --   -0.41651  -0.41606  -0.41364  -0.41279  -0.41265
 Alpha  occ. eigenvalues --   -0.40988  -0.40957  -0.40773  -0.40749  -0.40667
 Alpha  occ. eigenvalues --   -0.40398  -0.40182  -0.40154  -0.39816  -0.39769
 Alpha  occ. eigenvalues --   -0.39653  -0.39424  -0.39291  -0.39110  -0.38913
 Alpha  occ. eigenvalues --   -0.38892  -0.38827  -0.38533  -0.38443  -0.38257
 Alpha  occ. eigenvalues --   -0.38140  -0.38046  -0.38024  -0.37795  -0.37646
 Alpha  occ. eigenvalues --   -0.37460  -0.37181  -0.36833  -0.36708  -0.36623
 Alpha  occ. eigenvalues --   -0.36422  -0.36366  -0.36280  -0.36244  -0.36118
 Alpha  occ. eigenvalues --   -0.36061  -0.35975  -0.35523  -0.35357  -0.35127
 Alpha  occ. eigenvalues --   -0.35010  -0.34801  -0.34532  -0.33997  -0.33581
 Alpha  occ. eigenvalues --   -0.33484  -0.33261  -0.32953  -0.32645  -0.32380
 Alpha  occ. eigenvalues --   -0.31891  -0.31725  -0.31581  -0.31408  -0.31169
 Alpha  occ. eigenvalues --   -0.30899  -0.30644  -0.29798  -0.29479  -0.29208
 Alpha  occ. eigenvalues --   -0.28697  -0.28320  -0.28065  -0.27038  -0.26753
 Alpha  occ. eigenvalues --   -0.26592  -0.26173  -0.26157  -0.25986  -0.25621
 Alpha  occ. eigenvalues --   -0.25604  -0.25451  -0.25107  -0.20880  -0.20864
 Alpha  occ. eigenvalues --   -0.19126  -0.18392
 Alpha virt. eigenvalues --   -0.11518  -0.10893  -0.04862  -0.04834  -0.03992
 Alpha virt. eigenvalues --   -0.03786  -0.01982  -0.01886  -0.01024  -0.00120
 Alpha virt. eigenvalues --    0.00097   0.00193   0.01452   0.01762   0.02136

 Mulliken charges:
               1
     1  Mg  12.000000
     2  C    6.000000
     3  C    6.000000
     4  C    6.000000
     5  C    6.000000
     6  N    7.000000
     7  C    6.000000
     8  C    6.000000
     9  C    6.000000
    10  C    6.000000
    11  C    6.000000
    12  C    6.000000
    13  C    6.000000
    14  H    1.000000
    15  N    7.000000
    16  C    6.000000
    17  C    6.000000
    18  C    6.000000
    19  C    6.000000
    20  C    6.000000
    21  C    6.000000
    22  O    8.000000
    23  C    6.000000
    24  N    7.000000
    25  C    6.000000
    26  C    6.000000
    27  C    6.000000
    28  C    6.000000
    29  C    6.000000
    30  C    6.000000
    31  C    6.000000
    32  N    7.000000
    33  C    6.000000
    34  C    6.000000
    35  C    6.000000
    36  C    6.000000
    37  C    6.000000
    38  C    6.000000
    39  O    8.000000
    40  C    6.000000
    41  C    6.000000
    42  O    8.000000
    43  O    8.000000
    44  C    6.000000
    45  H    1.000000
    46  H    1.000000
    47  H    1.000000
    48  H    1.000000
    49  H    1.000000
    50  H    1.000000
    51  H    1.000000
    52  H    1.000000
    53  H    1.000000
    54  H    1.000000
    55  H    1.000000
    56  H    1.000000
    57  H    1.000000
    58  H    1.000000
    59  H    1.000000
    60  H    1.000000
    61  H    1.000000
    62  H    1.000000
    63  H    1.000000
    64  H    1.000000
    65  H    1.000000
    66  H    1.000000
    67  H    1.000000
    68  H    1.000000
    69  H    1.000000
    70  H    1.000000
    71  H    1.000000
    72  H    1.000000
    73  H    1.000000
    74  H    1.000000
    75  H    1.000000
    76  H    1.000000
    77  H    1.000000
    78  H    1.000000
    79  H    1.000000
    80  Mg  12.000000
    81  C    6.000000
    82  C    6.000000
    83  C    6.000000
    84  C    6.000000
    85  N    7.000000
    86  C    6.000000
    87  C    6.000000
    88  C    6.000000
    89  C    6.000000
    90  C    6.000000
    91  C    6.000000
    92  C    6.000000
    93  H    1.000000
    94  N    7.000000
    95  C    6.000000
    96  C    6.000000
    97  C    6.000000
    98  C    6.000000
    99  C    6.000000
   100  C    6.000000
   101  O    8.000000
   102  C    6.000000
   103  N    7.000000
   104  C    6.000000
   105  C    6.000000
   106  C    6.000000
   107  C    6.000000
   108  C    6.000000
   109  C    6.000000
   110  C    6.000000
   111  N    7.000000
   112  C    6.000000
   113  C    6.000000
   114  C    6.000000
   115  C    6.000000
   116  C    6.000000
   117  C    6.000000
   118  O    8.000000
   119  C    6.000000
   120  C    6.000000
   121  O    8.000000
   122  O    8.000000
   123  C    6.000000
   124  H    1.000000
   125  H    1.000000
   126  H    1.000000
   127  H    1.000000
   128  H    1.000000
   129  H    1.000000
   130  H    1.000000
   131  H    1.000000
   132  H    1.000000
   133  H    1.000000
   134  H    1.000000
   135  H    1.000000
   136  H    1.000000
   137  H    1.000000
   138  H    1.000000
   139  H    1.000000
   140  H    1.000000
   141  H    1.000000
   142  H    1.000000
   143  H    1.000000
   144  H    1.000000
   145  H    1.000000
   146  H    1.000000
   147  H    1.000000
   148  H    1.000000
   149  H    1.000000
   150  H    1.000000
   151  H    1.000000
   152  H    1.000000
   153  H    1.000000
   154  H    1.000000
   155  H    1.000000
   156  H    1.000000
   157  H    1.000000
   158  H    1.000000
 Sum of Mulliken charges = 624.00000

 Dipole moment (field-independent basis, Debye):
    X=             -0.0000    Y=              0.0000    Z=             -0.0000  Tot=              0.0000
 Quadrupole moment (field-independent basis, Debye-Ang):
   XX=              0.0000   YY=             -0.0000   ZZ=              0.0000
   XY=             -0.0000   XZ=              0.0000   YZ=              0.0000

 Normal termination of Gaussian 16 at Fri Oct 15 17:48:40 2021.
