 Gaussian 16, Revision A.03,
 Gaussian 16:  ES64L-G16RevA.03 25-Dec-2016

 --------------------------------------------------------
 #p PBE1PBE/Def2SVP td=(nstates=5) density=(transition=1)
 --------------------------------------------------------

 --------------------------------
 TDDFT excited states in gaussian
 --------------------------------
 Symbolic Z-matrix:
 Charge =  0 Multiplicity = 1

                         Standard orientation:
 ---------------------------------------------------------------------
 Center     Atomic      Atomic             Coordinates (Angstroms)
 Number     Number       Type             X           Y           Z
 ---------------------------------------------------------------------
      1         12           0       16.488556   -0.545605    0.286074
      2          6           0       15.484946    2.400226   -1.310956
      3          6           0       18.006867    1.203971    2.610609
      4          6           0       18.057876   -3.408328    1.356516
      5          6           0       15.302021   -2.401010   -2.473476
      6          7           0       16.602251    1.532390    0.618256
      7          6           0       16.087222    2.598064   -0.086588
      8          6           0       16.254195    3.909792    0.669521
      9          6           0       17.258284    3.496868    1.793100
     10          6           0       17.212218    2.009236    1.746113
     11          6           0       18.647636    4.096696    1.813730
     12          6           0       14.920396    4.565799    1.150016
     13          6           0       15.078050    5.899873    1.887689
     14          1           0       14.231730    7.053400    1.369409
     15          7           0       17.964352   -1.040705    1.818496
     16          6           0       18.343903   -0.161211    2.768837
     17          6           0       19.133326   -0.843722    3.756232
     18          6           0       19.247250   -2.181069    3.339041
     19          6           0       18.409921   -2.247961    2.110519
     20          6           0       19.753809   -0.163414    4.958210
     21          6           0       19.931960   -3.333425    3.997986
     22          8           0       20.116252   -4.475299    3.497970
     23          6           0       20.446203   -3.202268    5.426386
     24          7           0       16.670880   -2.561094   -0.461665
     25          6           0       17.425264   -3.516109    0.130362
     26          6           0       17.139420   -4.949127   -0.575383
     27          6           0       15.899514   -4.623425   -1.480112
     28          6           0       15.877663   -3.128925   -1.446015
     29          6           0       18.435942   -5.409193   -1.349788
     30          6           0       14.568256   -5.112864   -0.801350
     31          6           0       14.269256   -4.704278    0.632670
     32          7           0       15.494190   -0.128705   -1.566485
     33          6           0       15.097034   -1.006261   -2.537689
     34          6           0       14.489875   -0.257989   -3.538052
     35          6           0       14.598479    1.116984   -3.181446
     36          6           0       15.224025    1.145318   -1.962799
     37          6           0       13.922589   -0.714721   -4.835709
     38          6           0       14.342356    2.526561   -3.554915
     39          8           0       13.868944    3.063773   -4.549718
     40          6           0       14.829822    3.412147   -2.281088
     41          6           0       15.636351    4.576995   -2.733217
     42          8           0       16.434489    4.566335   -3.716986
     43          8           0       15.226680    5.625377   -2.031892
     44          6           0       15.551099    6.903844   -2.635174
     45          1           0       18.432046    1.727321    3.469692
     46          1           0       18.520594   -4.335082    1.704089
     47          1           0       14.834384   -3.016119   -3.243855
     48          1           0       16.631356    4.601242   -0.084210
     49          1           0       16.893798    3.727945    2.794617
     50          1           0       18.792843    5.021543    1.255489
     51          1           0       19.364212    3.345924    1.479543
     52          1           0       18.957026    4.140916    2.858151
     53          1           0       14.367363    3.859109    1.769293
     54          1           0       14.277203    4.732741    0.286611
     55          1           0       16.013509    6.391811    1.621792
     56          1           0       14.982432    5.770372    2.966141
     57          1           0       19.666842    0.923023    4.965431
     58          1           0       20.839892   -0.219749    5.027169
     59          1           0       19.357997   -0.518299    5.910281
     60          1           0       21.290655   -2.513729    5.414362
     61          1           0       20.969358   -4.099742    5.755681
     62          1           0       19.661002   -2.972699    6.147612
     63          1           0       16.946899   -5.700799    0.190157
     64          1           0       16.166557   -5.002497   -2.466546
     65          1           0       19.327196   -4.841339   -1.082175
     66          1           0       18.365878   -5.313565   -2.433445
     67          1           0       18.733774   -6.433580   -1.130782
     68          1           0       14.723153   -6.188533   -0.885893
     69          1           0       13.660351   -4.872336   -1.353658
     70          1           0       15.156625   -4.266936    1.090784
     71          1           0       13.817459   -5.463982    1.269576
     72          1           0       13.455553   -3.990422    0.504380
     73          1           0       13.172160   -1.500590   -4.746281
     74          1           0       14.767330   -1.140970   -5.376069
     75          1           0       13.522448    0.106144   -5.429944
     76          1           0       13.897841    3.790756   -1.862159
     77          1           0       14.696019    7.577328   -2.565012
     78          1           0       15.802505    6.887979   -3.695398
     79          1           0       16.374834    7.309660   -2.047007
     80         12           0      -16.145910   -0.825409    0.107756
     81          6           0      -18.183937    2.075913    0.607921
     82          6           0      -13.593483    1.209778   -0.958563
     83          6           0      -14.320071   -3.507156   -0.831585
     84          6           0      -19.106024   -2.735780    0.279701
     85          7           0      -15.942088    1.377300   -0.123126
     86          6           0      -16.852621    2.396420    0.197649
     87          6           0      -16.188493    3.733677   -0.008182
     88          6           0      -14.980540    3.367745   -0.969960
     89          6           0      -14.847776    1.836920   -0.718583
     90          6           0      -15.414633    3.706976   -2.440451
     91          6           0      -15.840316    4.490250    1.322122
     92          6           0      -16.194927    5.887546    1.216749
     93          1           0      -16.221934    6.689662    2.613390
     94          7           0      -14.145800   -1.021744   -0.611019
     95          6           0      -13.262912   -0.073082   -0.945454
     96          6           0      -12.012498   -0.685581   -1.274268
     97          6           0      -12.185779   -2.053720   -1.267739
     98          6           0      -13.636283   -2.291917   -0.823624
     99          6           0      -10.786582    0.143190   -1.773638
    100          6           0      -11.147086   -3.165978   -1.519541
    101          8           0      -11.505590   -4.316248   -1.501817
    102          6           0       -9.684282   -2.832505   -1.694747
    103          7           0      -16.735856   -2.795683   -0.488103
    104          6           0      -15.734078   -3.736023   -0.702122
    105          6           0      -16.290751   -5.122057   -0.664029
    106          6           0      -17.833144   -4.884646   -0.283713
    107          6           0      -17.904351   -3.388838   -0.085517
    108          6           0      -16.039509   -5.889742   -1.917747
    109          6           0      -18.428148   -5.708837    0.985822
    110          6           0      -19.547493   -6.643264    0.746543
    111          7           0      -18.230379   -0.480002    0.431965
    112          6           0      -19.273832   -1.377540    0.461363
    113          6           0      -20.543116   -0.604292    0.813277
    114          6           0      -20.144641    0.735595    0.992598
    115          6           0      -18.736697    0.767465    0.697231
    116          6           0      -21.943098   -1.226373    0.906008
    117          6           0      -20.676680    2.047766    1.203811
    118          8           0      -21.847433    2.418824    1.445595
    119          6           0      -19.475084    2.997168    0.799975
    120          6           0      -19.426163    4.093091    1.906712
    121          8           0      -18.586484    4.034384    2.823629
    122          8           0      -20.328381    5.066498    1.630583
    123          6           0      -20.406684    5.998383    2.807681
    124          1           0      -12.712981    1.844102   -1.083220
    125          1           0      -13.744714   -4.392403   -1.112824
    126          1           0      -20.054072   -3.250025    0.449849
    127          1           0      -16.882361    4.316715   -0.613328
    128          1           0      -14.084333    3.937839   -0.727792
    129          1           0      -16.131005    2.999876   -2.857952
    130          1           0      -14.522005    3.784476   -3.059728
    131          1           0      -15.872061    4.696574   -2.450354
    132          1           0      -14.751922    4.516184    1.380383
    133          1           0      -16.248434    3.985864    2.198307
    134          1           0      -17.234583    6.007424    0.911569
    135          1           0      -15.483513    6.353810    0.534696
    136          1           0       -9.997453   -0.153075   -1.082606
    137          1           0      -10.903187    1.224479   -1.702291
    138          1           0      -10.585807   -0.087036   -2.819874
    139          1           0       -9.115055   -3.727735   -1.945282
    140          1           0       -9.520682   -2.468918   -0.680328
    141          1           0       -9.602043   -2.067295   -2.466569
    142          1           0      -15.759573   -5.565606    0.178327
    143          1           0      -18.415525   -5.183494   -1.154920
    144          1           0      -15.310959   -6.646196   -1.628804
    145          1           0      -15.530832   -5.302753   -2.682313
    146          1           0      -16.920121   -6.334791   -2.381512
    147          1           0      -18.838034   -4.907248    1.600212
    148          1           0      -17.585576   -6.152546    1.514516
    149          1           0      -20.444031   -6.329340    1.280488
    150          1           0      -19.119402   -7.486655    1.287249
    151          1           0      -19.667688   -6.912403   -0.303734
    152          1           0      -22.392191   -1.083792   -0.076252
    153          1           0      -22.563885   -0.747674    1.663293
    154          1           0      -21.846801   -2.271473    1.200372
    155          1           0      -19.790888    3.394202   -0.163803
    156          1           0      -20.933126    5.599460    3.674603
    157          1           0      -20.841771    6.973180    2.589702
    158          1           0      -19.372601    6.235333    3.058744
 ---------------------------------------------------------------------

 SCF Done:  E(RPBE1PBE) =  -4067.35562494     A.U. after   16 cycles

 Excitation energies and oscillator strengths:

 Excited State   1:      Singlet-A      1.5589 eV  795.33 nm  f=0.0000  <S**2>=0.000
     312 -> 313        0.70710
 This state for optimization and/or second-order correction.
 Total Energy, E(TD-HF/TD-DFT) =  -4067.29833638
 Copying the excited state density for this state as the 1-particle RhoCI density.

 Excited State   2:      Singlet-A      1.8312 eV  677.08 nm  f=0.3606  <S**2>=0.000
     309 -> 315        0.18182
     312 -> 314        0.68828

 Excited State   3:      Singlet-A      1.8528 eV  669.19 nm  f=0.3645  <S**2>=0.000
     310 -> 316        0.15618
     311 -> 313        0.69530
     311 <- 313       -0.11148

 Excited State   4:      Singlet-A      2.2731 eV  545.44 nm  f=0.0128  <S**2>=0.000
     309 -> 314        0.57939
     312 -> 315       -0.39823

 Excited State   5:      Singlet-A      2.3663 eV  523.96 nm  f=0.0000  <S**2>=0.000
     311 -> 314        0.70710

 The electronic state is 1-A.
 Alpha  occ. eigenvalues --  -46.92821 -46.92811 -19.27399 -19.26850 -19.20078
 Alpha  occ. eigenvalues --  -19.19472 -19.19470 -19.19178 -19.19157 -19.18971
 Alpha  occ. eigenvalues --  -14.42398 -14.41724 -14.41499 -14.41436 -14.39296
 Alpha  occ. eigenvalues --  -14.38926 -14.38923 -14.37930 -10.36795 -10.36378
 Alpha  occ. eigenvalues --  -10.32714 -10.32603 -10.32267 -10.32218 -10.29657
 Alpha  occ. eigenvalues --  -10.29334 -10.28925 -10.28907 -10.28887 -10.28851
 Alpha  occ. eigenvalues --  -10.28801 -10.28753 -10.28610 -10.28459 -10.28232
 Alpha  occ. eigenvalues --  -10.28087 -10.28034 -10.27228 -10.27117 -10.26827
 Alpha  occ. eigenvalues --  -10.26711 -10.26663 -10.26483 -10.26408 -10.26308
 Alpha  occ. eigenvalues --  -10.26282 -10.26207 -10.26201 -10.26149 -10.26089
 Alpha  occ. eigenvalues --  -10.26048 -10.25885 -10.25883 -10.25727 -10.25674
 Alpha  occ. eigenvalues --  -10.25615 -10.25554 -10.25300 -10.25277 -10.25265
 Alpha  occ. eigenvalues --  -10.25263 -10.25230 -10.25039 -10.24793 -10.24747
 Alpha  occ. eigenvalues --  -10.24578 -10.24275 -10.24270 -10.24166 -10.24084
 Alpha  occ. eigenvalues --  -10.24041 -10.23934 -10.23796 -10.23783 -10.23676
 Alpha  occ. eigenvalues --  -10.23601 -10.23587 -10.23258 -10.23191 -10.22920
 Alpha  occ. eigenvalues --  -10.22917 -10.22797 -10.22722 -10.22593 -10.22513
 Alpha  occ. eigenvalues --  -10.22348  -3.14794  -3.14733  -1.87643  -1.87567
 Alpha  occ. eigenvalues --   -1.87137  -1.87094  -1.87030  -1.86956  -1.13023
 Alpha  occ. eigenvalues --   -1.10862  -1.06271  -1.03803  -1.02894  -1.02736
 Alpha  occ. eigenvalues --   -1.01983  -1.00846  -0.99952  -0.98995  -0.98571
 Alpha  occ. eigenvalues --   -0.98156  -0.97583  -0.97370  -0.97273  -0.96255
 Alpha  occ. eigenvalues --   -0.86353  -0.85684  -0.83889  -0.83618  -0.83196
 Alpha  occ. eigenvalues --   -0.82929  -0.82652  -0.82498  -0.82200  -0.81593
 Alpha  occ. eigenvalues --   -0.81511  -0.81500  -0.80279  -0.79944  -0.79161
 Alpha  occ. eigenvalues --   -0.78685  -0.78151  -0.78143  -0.77225  -0.76867
 Alpha  occ. eigenvalues --   -0.76542  -0.76107  -0.75698  -0.75053  -0.74905
 Alpha  occ. eigenvalues --   -0.74797  -0.72988  -0.72374  -0.72005  -0.71867
 Alpha  occ. eigenvalues --   -0.71731  -0.70921  -0.70569  -0.69822  -0.69635
 Alpha  occ. eigenvalues --   -0.69238  -0.67330  -0.66599  -0.66203  -0.65967
 Alpha  occ. eigenvalues --   -0.64233  -0.63633  -0.63138  -0.62694  -0.62341
 Alpha  occ. eigenvalues --   -0.62308  -0.61870  -0.60720  -0.59932  -0.59857
 Alpha  occ. eigenvalues --   -0.59525  -0.59361  -0.59342  -0.59120  -0.59011
 Alpha  occ. eigenvalues --   -0.58819  -0.57416  -0.56696  -0.55461  -0.54407
 Alpha  occ. eigenvalues --   -0.54335  -0.53930  -0.53696  -0.53215  -0.53023
 Alpha  occ. eigenvalues --   -0.52841  -0.52202  -0.52039  -0.51937  -0.51560
 Alpha  occ. eigenvalues --   -0.50844  -0.50602  -0.50515  -0.50383  -0.50072
 Alpha  occ. eigenvalues --   -0.50037  -0.49990  -0.49668  -0.48987  -0.48918
 Alpha  occ. eigenvalues --   -0.48584  -0.48118  -0.48089  -0.48068  -0.47600
 Alpha  occ. eigenvalues --   -0.47566  -0.47350  -0.47346  -0.47164  -0.47119
 Alpha  occ. eigenvalues --   -0.47043  -0.46492  -0.46366  -0.46207  -0.45665
 Alpha  occ. eigenvalues --   -0.45618  -0.45284  -0.45217  -0.45056  -0.44909
 Alpha  occ. eigenvalues --   -0.44898  -0.44745  -0.44537  -0.44161  -0.44017
 Alpha  occ. eigenvalues --   -0.43839  -0.43748  -0.43573  -0.43432  -0.43315
 Alpha  occ. eigenvalues --   -0.43310  -0.43109  -0.42969  -0.42843  -0.42769
 Alpha  occ. eigenvalues --   -0.42582  -0.42495  -0.42150  -0.42062  -0.41704
 Alpha  occ. eigenvalues --   -0.41566  -0.41352  -0.41237  -0.41224  -0.41076
 Alpha  occ. eigenvalues --   -0.41004  -0.40928  -0.40797  -0.40711  -0.40520
 Alpha  occ. eigenvalues --   -0.40257  -0.40172  -0.40059  -0.39640  -0.39499
 Alpha  occ. eigenvalues --   -0.39280  -0.39260  -0.39106  -0.39099  -0.38788
 Alpha  occ. eigenvalues --   -0.38701  -0.38587  -0.38492  -0.38288  -0.38228
 Alpha  occ. eigenvalues --   -0.38091  -0.37825  -0.37798  -0.37625  -0.37621
 Alpha  occ. eigenvalues --   -0.37530  -0.37340  -0.37272  -0.37090  -0.36874
 Alpha  occ. eigenvalues --   -0.36836  -0.36521  -0.36407  -0.36305  -0.36210
 Alpha  occ. eigenvalues --   -0.36052  -0.35744  -0.35685  -0.35386  -0.35120
 Alpha  occ. eigenvalues --   -0.34705  -0.34585  -0.34248  -0.33751  -0.33688
 Alpha  occ. eigenvalues --   -0.33474  -0.32966  -0.32893  -0.32392  -0.32276
 Alpha  occ. eigenvalues --   -0.32101  -0.32043  -0.31982  -0.31688  -0.31406
 Alpha  occ. eigenvalues --   -0.31172  -0.29940  -0.29342  -0.29292  -0.29262
 Alpha  occ. eigenvalues --   -0.28987  -0.28375  -0.28302  -0.27426  -0.27116
 Alpha  occ. eigenvalues --   -0.26410  -0.26003  -0.25963  -0.25658  -0.25487
 Alpha  occ. eigenvalues --   -0.25308  -0.25085  -0.24470  -0.21065  -0.21047
 Alpha  occ. eigenvalues --   -0.19372  -0.17930
 Alpha virt. eigenvalues --   -0.11810  -0.10269  -0.05886  -0.04960  -0.04245
 Alpha virt. eigenvalues --   -0.04164  -0.02109  -0.01981  -0.01092  -0.00912
 Alpha virt. eigenvalues --   -0.00316   0.00465   0.00478   0.01018   0.01593

 Mulliken charges:
               1
     1  Mg  12.000000
     2  C    6.000000
     3  C    6.000000
     4  C    6.000000
     5  C    6.000000
     6  N    7.000000
     7  C    6.000000
     8  C    6.000000
     9  C    6.000000
    10  C    6.000000
    11  C    6.000000
    12  C    6.000000
    13  C    6.000000
    14  H    1.000000
    15  N    7.000000
    16  C    6.000000
    17  C    6.000000
    18  C    6.000000
    19  C    6.000000
    20  C    6.000000
    21  C    6.000000
    22  O    8.000000
    23  C    6.000000
    24  N    7.000000
    25  C    6.000000
    26  C    6.000000
    27  C    6.000000
    28  C    6.000000
    29  C    6.000000
    30  C    6.000000
    31  C    6.000000
    32  N    7.000000
    33  C    6.000000
    34  C    6.000000
    35  C    6.000000
    36  C    6.000000
    37  C    6.000000
    38  C    6.000000
    39  O    8.000000
    40  C    6.000000
    41  C    6.000000
    42  O    8.000000
    43  O    8.000000
    44  C    6.000000
    45  H    1.000000
    46  H    1.000000
    47  H    1.000000
    48  H    1.000000
    49  H    1.000000
    50  H    1.000000
    51  H    1.000000
    52  H    1.000000
    53  H    1.000000
    54  H    1.000000
    55  H    1.000000
    56  H    1.000000
    57  H    1.000000
    58  H    1.000000
    59  H    1.000000
    60  H    1.000000
    61  H    1.000000
    62  H    1.000000
    63  H    1.000000
    64  H    1.000000
    65  H    1.000000
    66  H    1.000000
    67  H    1.000000
    68  H    1.000000
    69  H    1.000000
    70  H    1.000000
    71  H    1.000000
    72  H    1.000000
    73  H    1.000000
    74  H    1.000000
    75  H    1.000000
    76  H    1.000000
    77  H    1.000000
    78  H    1.000000
    79  H    1.000000
    80  Mg  12.000000
    81  C    6.000000
    82  C    6.000000
    83  C    6.000000
    84  C    6.000000
    85  N    7.000000
    86  C    6.000000
    87  C    6.000000
    88  C    6.000000
    89  C    6.000000
    90  C    6.000000
    91  C    6.000000
    92  C    6.000000
    93  H    1.000000
    94  N    7.000000
    95  C    6.000000
    96  C    6.000000
    97  C    6.000000
    98  C    6.000000
    99  C    6.000000
   100  C    6.000000
   101  O    8.000000
   102  C    6.000000
   103  N    7.000000
   104  C    6.000000
   105  C    6.000000
   106  C    6.000000
   107  C    6.000000
   108  C    6.000000
   109  C    6.000000
   110  C    6.000000
   111  N    7.000000
   112  C    6.000000
   113  C    6.000000
   114  C    6.000000
   115  C    6.000000
   116  C    6.000000
   117  C    6.000000
   118  O    8.000000
   119  C    6.000000
   120  C    6.000000
   121  O    8.000000
   122  O    8.000000
   123  C    6.000000
   124  H    1.000000
   125  H    1.000000
   126  H    1.000000
   127  H    1.000000
   128  H    1.000000
   129  H    1.000000
   130  H    1.000000
   131  H    1.000000
   132  H    1.000000
   133  H    1.000000
   134  H    1.000000
   135  H    1.000000
   136  H    1.000000
   137  H    1.000000
   138  H    1.000000
   139  H    1.000000
   140  H    1.000000
   141  H    1.000000
   142  H    1.000000
   143  H    1.000000
   144  H    1.000000
   145  H    1.000000
   146  H    1.000000
   147  H    1.000000
   148  H    1.000000
   149  H    1.000000
   150  H    1.000000
   151  H    1.000000
   152  H    1.000000
   153  H    1.000000
   154  H    1.000000
   155  H    1.000000
   156  H    1.000000
   157  H    1.000000
   158  H    1.000000
 Sum of Mulliken charges = 624.00000

 Dipole moment (field-independent basis, Debye):
    X=              0.0000    Y=             -0.0000    Z=              0.0000  Tot=              0.0000
 Quadrupole moment (field-independent basis, Debye-Ang):
   XX=              0.0000   YY=              0.0000   ZZ=             -0.0000
   XY=              0.0000   XZ=              0.0000   YZ=             -0.0000

 Normal termination of Gaussian 16 at Thu Oct 14 08:59:45 2021.
