 Gaussian 16, Revision A.03,
 Gaussian 16:  ES64L-G16RevA.03 25-Dec-2016

 --------------------------------------------------------
 #p PBE1PBE/Def2SVP td=(nstates=5) density=(transition=1)
 --------------------------------------------------------

 --------------------------------
 TDDFT excited states in gaussian
 --------------------------------
 Symbolic Z-matrix:
 Charge =  0 Multiplicity = 1

                         Standard orientation:
 ---------------------------------------------------------------------
 Center     Atomic      Atomic             Coordinates (Angstroms)
 Number     Number       Type             X           Y           Z
 ---------------------------------------------------------------------
      1         12           0       11.330245   -0.895010   -0.102240
      2          6           0       10.211050    2.405343   -0.528096
      3          6           0       12.685407    0.044156    2.868253
      4          6           0       11.918552   -4.079141    0.357762
      5          6           0        9.090634   -1.697762   -2.805227
      6          7           0       11.475733    1.005570    0.965002
      7          6           0       10.937568    2.215651    0.628970
      8          6           0       11.026236    3.137229    1.854604
      9          6           0       12.231099    2.562595    2.591348
     10          6           0       12.054095    1.088426    2.179722
     11          6           0       13.574872    3.140012    2.089849
     12          6           0        9.711365    3.075062    2.716649
     13          6           0        8.790349    4.389496    2.801425
     14          1           0        7.344000    4.323262    2.282043
     15          7           0       12.131810   -1.892479    1.427904
     16          6           0       12.659271   -1.327954    2.566505
     17          6           0       13.306910   -2.358894    3.315614
     18          6           0       13.232757   -3.590161    2.583997
     19          6           0       12.400179   -3.248016    1.394531
     20          6           0       14.009612   -2.109166    4.693929
     21          6           0       13.927954   -4.933522    3.011396
     22          8           0       14.652222   -4.956614    3.958498
     23          6           0       13.894612   -6.054719    2.080206
     24          7           0       10.353806   -2.674529   -0.892795
     25          6           0       11.104662   -3.793064   -0.754658
     26          6           0       10.936399   -4.773179   -1.903565
     27          6           0        9.777180   -4.185209   -2.693580
     28          6           0        9.712725   -2.737047   -2.095153
     29          6           0       12.236100   -4.923318   -2.777694
     30          6           0        8.353655   -4.917489   -2.671304
     31          6           0        7.822223   -5.664284   -3.865226
     32          7           0       10.106118    0.107200   -1.528073
     33          6           0        9.263786   -0.335583   -2.556023
     34          6           0        8.556044    0.763071   -3.177056
     35          6           0        8.925748    1.851666   -2.426018
     36          6           0        9.849353    1.442491   -1.408505
     37          6           0        7.604824    0.645735   -4.294341
     38          6           0        8.734774    3.285971   -2.274379
     39          8           0        8.099062    4.075886   -2.983351
     40          6           0        9.628402    3.713758   -1.129284
     41          6           0       10.650798    4.693334   -1.695131
     42          8           0       11.402995    4.362032   -2.608707
     43          8           0       10.503118    5.973548   -1.139082
     44          6           0       11.416007    6.958663   -1.654347
     45          1           0       13.240505    0.410591    3.733942
     46          1           0       12.405264   -5.055404    0.380049
     47          1           0        8.501266   -1.936082   -3.693324
     48          1           0       11.070905    4.158368    1.475120
     49          1           0       12.098579    2.754720    3.655338
     50          1           0       14.004302    3.409933    3.054014
     51          1           0       13.294291    3.995938    1.475395
     52          1           0       14.218043    2.468624    1.520802
     53          1           0       10.010435    2.873405    3.745163
     54          1           0        9.146194    2.201376    2.393033
     55          1           0        9.274614    5.119329    2.152191
     56          1           0        8.748039    4.852162    3.786731
     57          1           0       13.761962   -2.772501    5.522060
     58          1           0       13.737623   -1.092627    4.979991
     59          1           0       15.097107   -2.133729    4.622000
     60          1           0       12.891661   -6.386174    1.810392
     61          1           0       14.432847   -6.889350    2.529343
     62          1           0       14.545723   -5.855471    1.230161
     63          1           0       10.742074   -5.790328   -1.561714
     64          1           0       10.060176   -4.054023   -3.738008
     65          1           0       12.827708   -5.802662   -2.523601
     66          1           0       12.788843   -3.983890   -2.772519
     67          1           0       11.910392   -5.065136   -3.809181
     68          1           0        7.511309   -4.387010   -2.228598
     69          1           0        8.637032   -5.662541   -1.927392
     70          1           0        7.743810   -6.739276   -3.706022
     71          1           0        8.488101   -5.513780   -4.715309
     72          1           0        6.845788   -5.216697   -4.049111
     73          1           0        7.192314   -0.363347   -4.273649
     74          1           0        8.206056    0.741615   -5.198904
     75          1           0        6.863008    1.442739   -4.271944
     76          1           0        8.934151    4.239392   -0.475073
     77          1           0       12.430642    6.886863   -1.261697
     78          1           0       11.072471    7.971312   -1.444979
     79          1           0       11.523016    6.948737   -2.738698
     80         12           0      -11.241020   -0.561392    0.370157
     81          6           0       -8.679398    1.812239    0.424555
     82          6           0      -11.136666   -0.331306   -3.127070
     83          6           0      -14.037416   -2.386512    0.150863
     84          6           0      -11.868418    0.129982    3.682509
     85          7           0       -9.949442    0.549451   -1.238344
     86          6           0       -9.032615    1.488062   -0.882161
     87          6           0       -8.385199    2.145212   -2.165054
     88          6           0       -9.390151    1.609184   -3.305170
     89          6           0      -10.246336    0.585702   -2.540545
     90          6           0      -10.318833    2.808634   -3.709976
     91          6           0       -6.951322    1.522105   -2.337615
     92          6           0       -6.152108    1.909440   -3.611602
     93          1           0       -5.352168    1.030519   -4.526450
     94          7           0      -12.267094   -1.399118   -1.248731
     95          6           0      -12.075905   -1.241403   -2.631578
     96          6           0      -13.060575   -1.992737   -3.289487
     97          6           0      -13.786364   -2.739982   -2.371500
     98          6           0      -13.371064   -2.194572   -1.089694
     99          6           0      -13.081103   -2.060474   -4.781460
    100          6           0      -14.932250   -3.784682   -2.578220
    101          8           0      -15.493459   -4.397264   -1.676152
    102          6           0      -15.318525   -4.303265   -3.966096
    103          7           0      -12.780288   -0.943243    1.707235
    104          6           0      -13.741649   -1.845703    1.409591
    105          6           0      -14.579949   -2.280266    2.627696
    106          6           0      -13.976417   -1.368483    3.731854
    107          6           0      -12.743602   -0.770730    3.077900
    108          6           0      -16.126985   -2.259096    2.393496
    109          6           0      -13.695676   -2.017627    5.114817
    110          6           0      -12.520565   -2.896316    5.200867
    111          7           0      -10.415765    0.621971    1.829468
    112          6           0      -10.748994    0.803487    3.086290
    113          6           0       -9.791193    1.663132    3.789328
    114          6           0       -8.942321    2.069463    2.710626
    115          6           0       -9.374273    1.454063    1.552032
    116          6           0       -9.491474    1.733133    5.213527
    117          6           0       -7.767109    2.870377    2.415615
    118          8           0       -7.016653    3.471424    3.150476
    119          6           0       -7.621742    2.770287    0.892305
    120          6           0       -7.639366    4.150917    0.227877
    121          8           0       -8.636382    4.793419    0.023680
    122          8           0       -6.348446    4.553354   -0.018321
    123          6           0       -6.283126    5.881329   -0.670852
    124          1           0      -11.007651   -0.349768   -4.210471
    125          1           0      -14.822895   -3.145448    0.154285
    126          1           0      -12.190574    0.061182    4.722987
    127          1           0       -8.419173    3.234676   -2.139256
    128          1           0       -8.898551    1.197535   -4.187514
    129          1           0      -11.344847    2.775115   -3.344945
    130          1           0      -10.574168    2.775533   -4.769416
    131          1           0       -9.919009    3.787002   -3.444218
    132          1           0       -7.061950    0.439627   -2.279541
    133          1           0       -6.386146    1.777400   -1.440825
    134          1           0       -5.538560    2.749651   -3.285157
    135          1           0       -6.963314    2.250536   -4.253609
    136          1           0      -12.339415   -1.446325   -5.292868
    137          1           0      -14.113198   -1.922867   -5.106763
    138          1           0      -12.801893   -3.092998   -4.993102
    139          1           0      -15.779597   -3.549412   -4.604327
    140          1           0      -15.907435   -5.220608   -3.961365
    141          1           0      -14.393801   -4.648237   -4.429057
    142          1           0      -14.222268   -3.308219    2.679645
    143          1           0      -14.700632   -0.559640    3.828763
    144          1           0      -16.365951   -2.447783    1.347408
    145          1           0      -16.516226   -1.276053    2.659781
    146          1           0      -16.650184   -3.030837    2.958481
    147          1           0      -14.608749   -2.591777    5.268967
    148          1           0      -13.693140   -1.248618    5.887535
    149          1           0      -11.628098   -2.293001    5.366282
    150          1           0      -12.440510   -3.532329    4.319504
    151          1           0      -12.559512   -3.543012    6.077937
    152          1           0       -9.801793    0.765551    5.608682
    153          1           0      -10.035895    2.431718    5.849085
    154          1           0       -8.422025    1.924716    5.294494
    155          1           0       -6.676326    2.268616    0.683251
    156          1           0       -5.397093    6.399698   -0.304812
    157          1           0       -7.049751    6.598823   -0.377532
    158          1           0       -6.171339    5.780979   -1.749962
 ---------------------------------------------------------------------

 SCF Done:  E(RPBE1PBE) =  -4067.39592006     A.U. after   16 cycles

 Excitation energies and oscillator strengths:

 Excited State   1:      Singlet-A      1.8784 eV  660.07 nm  f=0.3934  <S**2>=0.000
     309 -> 315       -0.18235
     311 -> 314        0.68603
     311 <- 314       -0.10035
 This state for optimization and/or second-order correction.
 Total Energy, E(TD-HF/TD-DFT) =  -4067.32689189
 Copying the excited state density for this state as the 1-particle RhoCI density.

 Excited State   2:      Singlet-A      1.8846 eV  657.87 nm  f=0.3359  <S**2>=0.000
     310 -> 316       -0.17860
     312 -> 313        0.68728
     312 <- 313       -0.10298

 Excited State   3:      Singlet-A      1.9516 eV  635.30 nm  f=0.0000  <S**2>=0.000
     312 -> 314        0.70709

 Excited State   4:      Singlet-A      1.9591 eV  632.88 nm  f=0.0000  <S**2>=0.000
     311 -> 313        0.70710

 Excited State   5:      Singlet-A      2.2484 eV  551.43 nm  f=0.1086  <S**2>=0.000
     310 -> 313        0.65565
     312 -> 316        0.25360

 The electronic state is 1-A.
 Alpha  occ. eigenvalues --  -46.92089 -46.92055 -19.26640 -19.26385 -19.20752
 Alpha  occ. eigenvalues --  -19.20572 -19.19497 -19.19292 -19.19067 -19.18901
 Alpha  occ. eigenvalues --  -14.41620 -14.41568 -14.41526 -14.40715 -14.39054
 Alpha  occ. eigenvalues --  -14.38975 -14.38805 -14.38744 -10.37239 -10.36741
 Alpha  occ. eigenvalues --  -10.33177 -10.32197 -10.31659 -10.31626 -10.28974
 Alpha  occ. eigenvalues --  -10.28859 -10.28847 -10.28691 -10.28642 -10.28504
 Alpha  occ. eigenvalues --  -10.28454 -10.28377 -10.28313 -10.28195 -10.27805
 Alpha  occ. eigenvalues --  -10.27779 -10.27464 -10.27417 -10.27265 -10.27113
 Alpha  occ. eigenvalues --  -10.26752 -10.26407 -10.26368 -10.26206 -10.26132
 Alpha  occ. eigenvalues --  -10.25975 -10.25956 -10.25926 -10.25700 -10.25682
 Alpha  occ. eigenvalues --  -10.25652 -10.25581 -10.25575 -10.25548 -10.25453
 Alpha  occ. eigenvalues --  -10.25365 -10.25360 -10.25261 -10.25222 -10.25052
 Alpha  occ. eigenvalues --  -10.24938 -10.24836 -10.24727 -10.24630 -10.24531
 Alpha  occ. eigenvalues --  -10.24503 -10.24496 -10.24488 -10.24368 -10.24248
 Alpha  occ. eigenvalues --  -10.24072 -10.23826 -10.23818 -10.23709 -10.23602
 Alpha  occ. eigenvalues --  -10.23505 -10.23475 -10.23333 -10.23235 -10.23120
 Alpha  occ. eigenvalues --  -10.23048 -10.22978 -10.22849 -10.22754 -10.22565
 Alpha  occ. eigenvalues --  -10.22115  -3.14244  -3.14230  -1.87058  -1.87057
 Alpha  occ. eigenvalues --   -1.86634  -1.86618  -1.86467  -1.86440  -1.11532
 Alpha  occ. eigenvalues --   -1.10682  -1.06684  -1.05067  -1.04986  -1.03760
 Alpha  occ. eigenvalues --   -1.03545  -1.02974  -0.99740  -0.99352  -0.98869
 Alpha  occ. eigenvalues --   -0.98316  -0.97950  -0.97468  -0.96987  -0.96758
 Alpha  occ. eigenvalues --   -0.88213  -0.87351  -0.83711  -0.83436  -0.83232
 Alpha  occ. eigenvalues --   -0.82839  -0.82766  -0.82390  -0.81899  -0.81694
 Alpha  occ. eigenvalues --   -0.81519  -0.81430  -0.80600  -0.79304  -0.78830
 Alpha  occ. eigenvalues --   -0.78502  -0.78266  -0.77958  -0.76787  -0.76735
 Alpha  occ. eigenvalues --   -0.76633  -0.75681  -0.75355  -0.75158  -0.75123
 Alpha  occ. eigenvalues --   -0.74658  -0.72708  -0.72326  -0.71888  -0.71507
 Alpha  occ. eigenvalues --   -0.70900  -0.70689  -0.70550  -0.70419  -0.69428
 Alpha  occ. eigenvalues --   -0.69134  -0.67290  -0.66954  -0.66574  -0.66172
 Alpha  occ. eigenvalues --   -0.64363  -0.63580  -0.63396  -0.63002  -0.62749
 Alpha  occ. eigenvalues --   -0.62454  -0.61321  -0.61205  -0.60242  -0.60060
 Alpha  occ. eigenvalues --   -0.59802  -0.59382  -0.59171  -0.59005  -0.58917
 Alpha  occ. eigenvalues --   -0.58559  -0.57253  -0.57052  -0.54731  -0.54589
 Alpha  occ. eigenvalues --   -0.54508  -0.54004  -0.53885  -0.53716  -0.53458
 Alpha  occ. eigenvalues --   -0.52998  -0.52936  -0.52854  -0.52264  -0.51904
 Alpha  occ. eigenvalues --   -0.51029  -0.50827  -0.50653  -0.50150  -0.50088
 Alpha  occ. eigenvalues --   -0.49777  -0.49759  -0.49370  -0.49155  -0.48559
 Alpha  occ. eigenvalues --   -0.48507  -0.48123  -0.47765  -0.47673  -0.47582
 Alpha  occ. eigenvalues --   -0.47542  -0.47417  -0.47270  -0.47148  -0.46798
 Alpha  occ. eigenvalues --   -0.46723  -0.46705  -0.46296  -0.45669  -0.45579
 Alpha  occ. eigenvalues --   -0.45565  -0.45473  -0.45335  -0.45107  -0.44724
 Alpha  occ. eigenvalues --   -0.44693  -0.44496  -0.44431  -0.44143  -0.44133
 Alpha  occ. eigenvalues --   -0.44019  -0.43878  -0.43782  -0.43642  -0.43498
 Alpha  occ. eigenvalues --   -0.43399  -0.43273  -0.42988  -0.42925  -0.42723
 Alpha  occ. eigenvalues --   -0.42503  -0.42216  -0.42118  -0.41829  -0.41748
 Alpha  occ. eigenvalues --   -0.41297  -0.41282  -0.41011  -0.40977  -0.40830
 Alpha  occ. eigenvalues --   -0.40801  -0.40694  -0.40682  -0.40527  -0.40105
 Alpha  occ. eigenvalues --   -0.40075  -0.39985  -0.39812  -0.39694  -0.39419
 Alpha  occ. eigenvalues --   -0.39199  -0.39156  -0.39051  -0.39015  -0.38980
 Alpha  occ. eigenvalues --   -0.38802  -0.38619  -0.38617  -0.38405  -0.38353
 Alpha  occ. eigenvalues --   -0.38138  -0.38114  -0.37942  -0.37867  -0.37686
 Alpha  occ. eigenvalues --   -0.37370  -0.37344  -0.37214  -0.37198  -0.37128
 Alpha  occ. eigenvalues --   -0.37007  -0.36811  -0.36756  -0.36611  -0.36533
 Alpha  occ. eigenvalues --   -0.36425  -0.35980  -0.35782  -0.35565  -0.35559
 Alpha  occ. eigenvalues --   -0.35262  -0.35094  -0.34900  -0.34530  -0.33880
 Alpha  occ. eigenvalues --   -0.33830  -0.33351  -0.32958  -0.32781  -0.32633
 Alpha  occ. eigenvalues --   -0.32430  -0.32191  -0.32041  -0.31767  -0.31688
 Alpha  occ. eigenvalues --   -0.31566  -0.31376  -0.29889  -0.29754  -0.29682
 Alpha  occ. eigenvalues --   -0.29468  -0.28988  -0.28694  -0.26935  -0.26913
 Alpha  occ. eigenvalues --   -0.26095  -0.25859  -0.25830  -0.25704  -0.25559
 Alpha  occ. eigenvalues --   -0.25505  -0.25241  -0.24950  -0.21262  -0.20687
 Alpha  occ. eigenvalues --   -0.18648  -0.18623
 Alpha virt. eigenvalues --   -0.10861  -0.10858  -0.05621  -0.04815  -0.03748
 Alpha virt. eigenvalues --   -0.03681  -0.02073  -0.01857  -0.00852  -0.00541
 Alpha virt. eigenvalues --   -0.00329   0.00606   0.00783   0.01392   0.01828

 Mulliken charges:
               1
     1  Mg  12.000449
     2  C    6.021472
     3  C    5.986011
     4  C    5.982889
     5  C    6.011549
     6  N    7.004223
     7  C    5.970475
     8  C    5.999902
     9  C    5.992680
    10  C    6.031293
    11  C    5.998641
    12  C    6.000912
    13  C    5.999673
    14  H    1.005326
    15  N    6.993703
    16  C    6.038325
    17  C    6.018261
    18  C    6.011064
    19  C    6.036698
    20  C    5.997387
    21  C    6.013915
    22  O    8.016967
    23  C    5.993176
    24  N    7.001407
    25  C    6.030905
    26  C    5.991852
    27  C    6.005341
    28  C    5.967132
    29  C    5.995645
    30  C    6.009010
    31  C    5.999235
    32  N    7.001340
    33  C    5.965689
    34  C    5.971190
    35  C    6.000618
    36  C    5.967584
    37  C    6.002114
    38  C    5.979690
    39  O    7.969802
    40  C    6.003134
    41  C    5.992908
    42  O    7.998015
    43  O    7.997540
    44  C    6.002922
    45  H    1.010657
    46  H    1.007987
    47  H    0.990802
    48  H    1.004475
    49  H    1.002207
    50  H    1.000959
    51  H    1.015305
    52  H    0.998991
    53  H    0.987779
    54  H    1.000332
    55  H    1.002187
    56  H    0.995928
    57  H    1.016538
    58  H    1.015291
    59  H    1.017594
    60  H    1.009617
    61  H    1.012396
    62  H    1.009279
    63  H    0.999512
    64  H    1.000642
    65  H    0.997835
    66  H    1.003057
    67  H    1.011331
    68  H    1.000374
    69  H    0.986854
    70  H    0.994534
    71  H    0.998427
    72  H    1.001757
    73  H    0.983617
    74  H    0.981660
    75  H    0.986324
    76  H    0.990128
    77  H    0.993081
    78  H    0.995594
    79  H    0.998891
    80  Mg  12.000102
    81  C    5.999642
    82  C    6.001841
    83  C    6.000415
    84  C    5.997338
    85  N    7.000374
    86  C    6.002180
    87  C    5.999042
    88  C    6.001196
    89  C    5.996327
    90  C    6.000186
    91  C    5.999503
    92  C    5.999795
    93  H    1.001821
    94  N    7.000352
    95  C    5.995815
    96  C    5.998608
    97  C    5.997530
    98  C    5.997795
    99  C    6.000252
   100  C    5.998632
   101  O    7.996860
   102  C    6.000487
   103  N    6.999284
   104  C    5.996951
   105  C    6.000665
   106  C    5.999020
   107  C    6.003862
   108  C    6.000323
   109  C    5.999771
   110  C    5.999594
   111  N    7.000169
   112  C    6.003653
   113  C    6.003950
   114  C    5.999845
   115  C    6.002855
   116  C    5.999557
   117  C    6.001900
   118  O    8.002793
   119  C    5.999908
   120  C    6.000380
   121  O    8.000499
   122  O    8.000333
   123  C    5.999736
   124  H    0.999315
   125  H    0.998937
   126  H    1.000468
   127  H    1.000232
   128  H    1.000139
   129  H    0.999884
   130  H    1.000067
   131  H    0.998788
   132  H    1.000634
   133  H    0.999467
   134  H    1.000267
   135  H    1.000333
   136  H    0.998260
   137  H    0.998167
   138  H    0.998245
   139  H    0.998994
   140  H    0.998330
   141  H    0.999342
   142  H    1.000025
   143  H    1.000403
   144  H    1.000810
   145  H    0.999060
   146  H    0.999093
   147  H    1.000679
   148  H    0.999494
   149  H    0.999117
   150  H    1.001022
   151  H    1.000119
   152  H    1.002003
   153  H    1.002445
   154  H    1.001549
   155  H    1.001377
   156  H    1.000756
   157  H    0.999966
   158  H    1.001071
 Sum of Mulliken charges = 624.00000

 Dipole moment (field-independent basis, Debye):
    X=              6.1708    Y=             -4.2423    Z=              7.3735  Tot=             10.5092
 Quadrupole moment (field-independent basis, Debye-Ang):
   XX=            106.1685   YY=              4.2406   ZZ=              1.1603
   XY=            -66.4380   XZ=             65.4871   YZ=             -5.4967

 Normal termination of Gaussian 16 at Fri Oct 15 14:57:32 2021.
