 Gaussian 16, Revision A.03,
 Gaussian 16:  ES64L-G16RevA.03 25-Dec-2016

 --------------------------------------------------------
 #p PBE1PBE/Def2SVP td=(nstates=5) density=(transition=1)
 --------------------------------------------------------

 --------------------------------
 TDDFT excited states in gaussian
 --------------------------------
 Symbolic Z-matrix:
 Charge =  0 Multiplicity = 1

                         Standard orientation:
 ---------------------------------------------------------------------
 Center     Atomic      Atomic             Coordinates (Angstroms)
 Number     Number       Type             X           Y           Z
 ---------------------------------------------------------------------
      1         12           0       26.173493    0.346454    0.286665
      2          6           0       24.576564   -2.234104   -1.241745
      3          6           0       26.082294    2.350659   -2.520097
      4          6           0       27.967889    2.725485    1.972998
      5          6           0       26.722046   -1.808542    3.140780
      6          7           0       25.600951   -0.010317   -1.695293
      7          6           0       24.711797   -1.075160   -2.063260
      8          6           0       24.071396   -0.802155   -3.365219
      9          6           0       24.912015    0.455060   -3.870171
     10          6           0       25.601475    1.004666   -2.641282
     11          6           0       25.986757    0.082409   -5.009579
     12          6           0       22.516390   -0.691166   -3.318176
     13          6           0       21.791784   -1.418634   -4.404548
     14          1           0       22.446219   -1.353547   -5.840641
     15          7           0       26.859950    2.305769   -0.184960
     16          6           0       26.706677    2.887091   -1.408454
     17          6           0       27.276207    4.188963   -1.337724
     18          6           0       27.776889    4.397710    0.006508
     19          6           0       27.486689    3.119216    0.738013
     20          6           0       27.385821    5.106886   -2.574824
     21          6           0       28.414752    5.565844    0.691299
     22          8           0       28.909085    5.617208    1.823138
     23          6           0       28.403814    6.910281   -0.130160
     24          7           0       27.322395    0.425633    2.283190
     25          6           0       27.858003    1.529564    2.741416
     26          6           0       28.218042    1.431548    4.222430
     27          6           0       27.811157   -0.027276    4.576932
     28          6           0       27.258875   -0.527068    3.243440
     29          6           0       29.771549    1.734099    4.532197
     30          6           0       26.704274    0.013642    5.720767
     31          6           0       25.293594    0.591112    5.446860
     32          7           0       25.887762   -1.675928    0.796110
     33          6           0       26.110656   -2.352203    1.980671
     34          6           0       25.470811   -3.675040    1.830707
     35          6           0       24.837441   -3.729020    0.625523
     36          6           0       25.134723   -2.452979    0.023033
     37          6           0       25.650651   -4.802558    2.787862
     38          6           0       24.021980   -4.525130   -0.291396
     39          8           0       23.578066   -5.657028   -0.195585
     40          6           0       23.843314   -3.557414   -1.542379
     41          6           0       24.489295   -4.215033   -2.696462
     42          8           0       25.663618   -4.612099   -2.792766
     43          8           0       23.485513   -4.297031   -3.640152
     44          6           0       23.931412   -4.754093   -4.962844
     45          1           0       26.027371    3.034973   -3.369130
     46          1           0       28.430660    3.569472    2.490003
     47          1           0       26.809565   -2.446633    4.021905
     48          1           0       24.300599   -1.682502   -3.967020
     49          1           0       24.208777    1.196501   -4.248190
     50          1           0       25.827409   -0.898969   -5.456350
     51          1           0       26.940198   -0.035582   -4.494862
     52          1           0       25.965032    0.949527   -5.668376
     53          1           0       22.221317    0.356176   -3.382895
     54          1           0       22.275951   -1.137600   -2.353403
     55          1           0       20.798921   -1.015048   -4.599220
     56          1           0       21.529652   -2.472489   -4.309854
     57          1           0       26.464528    5.601406   -2.882450
     58          1           0       27.798585    4.433251   -3.325601
     59          1           0       28.012242    5.981597   -2.401273
     60          1           0       29.133809    6.837120   -0.936334
     61          1           0       28.468116    7.736331    0.577847
     62          1           0       27.433487    7.147201   -0.567031
     63          1           0       27.586178    2.124508    4.777486
     64          1           0       28.639146   -0.635614    4.940999
     65          1           0       29.795280    2.721902    4.993791
     66          1           0       30.340639    1.765826    3.602532
     67          1           0       30.318044    1.096959    5.226366
     68          1           0       27.021536    0.480731    6.652974
     69          1           0       26.540946   -1.051979    5.884890
     70          1           0       24.654933   -0.284129    5.566690
     71          1           0       25.213259    1.058489    4.466230
     72          1           0       24.987585    1.363554    6.152365
     73          1           0       24.697764   -5.326193    2.717393
     74          1           0       25.861333   -4.467670    3.803692
     75          1           0       26.326968   -5.517056    2.320442
     76          1           0       22.760850   -3.615745   -1.653155
     77          1           0       22.986633   -4.855364   -5.497706
     78          1           0       24.343986   -5.751178   -4.808855
     79          1           0       24.717541   -4.160463   -5.429889
     80         12           0      -26.198564   -0.546107   -0.379666
     81          6           0      -25.176376    2.749514    0.016627
     82          6           0      -23.063650   -1.594766    0.897511
     83          6           0      -27.487062   -3.544346    0.337612
     84          6           0      -29.455482    0.668279   -0.968237
     85          7           0      -24.412746    0.523296    0.724563
     86          6           0      -24.179616    1.856792    0.488397
     87          6           0      -22.819570    2.267906    0.958328
     88          6           0      -22.056910    0.864565    0.995262
     89          6           0      -23.226151   -0.178200    0.898828
     90          6           0      -20.943450    0.636725   -0.147092
     91          6           0      -22.923139    3.119464    2.326379
     92          6           0      -21.828441    4.033619    2.554786
     93          1           0      -21.118597    3.822474    3.908908
     94          7           0      -25.379770   -2.368650    0.315900
     95          6           0      -24.057484   -2.598753    0.788799
     96          6           0      -23.950395   -4.010159    1.117670
     97          6           0      -25.216691   -4.620492    0.946290
     98          6           0      -26.088975   -3.514008    0.427127
     99          6           0      -22.718108   -4.589361    1.705975
    100          6           0      -25.537189   -6.131177    1.307466
    101          8           0      -24.607911   -6.807003    1.746432
    102          6           0      -26.818211   -6.818449    0.847341
    103          7           0      -28.189877   -1.243197   -0.240508
    104          6           0      -28.406439   -2.568311   -0.042933
    105          6           0      -30.012980   -2.950432    0.023694
    106          6           0      -30.633383   -1.618418   -0.618515
    107          6           0      -29.406288   -0.653542   -0.656243
    108          6           0      -30.451705   -4.220786   -0.798710
    109          6           0      -31.781959   -1.032568    0.204881
    110          6           0      -33.186140   -0.840313   -0.416526
    111          7           0      -27.067867    1.291372   -0.742734
    112          6           0      -28.369037    1.613535   -0.998779
    113          6           0      -28.455453    3.015810   -1.300443
    114          6           0      -27.175417    3.503052   -0.837858
    115          6           0      -26.405884    2.385001   -0.473558
    116          6           0      -29.695006    3.773614   -1.679249
    117          6           0      -26.431320    4.713985   -0.560759
    118          8           0      -26.663581    5.844104   -0.866170
    119          6           0      -25.006871    4.300472   -0.021104
    120          6           0      -23.831173    4.669493   -0.952444
    121          8           0      -23.784579    4.415615   -2.136902
    122          8           0      -22.881546    5.427610   -0.236885
    123          6           0      -21.809998    6.000075   -0.994535
    124          1           0      -22.056523   -1.855201    1.227299
    125          1           0      -27.992010   -4.408904    0.773136
    126          1           0      -30.476730    0.996716   -1.169833
    127          1           0      -22.245503    2.771256    0.179702
    128          1           0      -21.576632    0.768934    1.969731
    129          1           0      -20.011043    0.475536    0.393808
    130          1           0      -20.861826    1.478582   -0.833940
    131          1           0      -21.229940   -0.274603   -0.672775
    132          1           0      -22.907717    2.351580    3.099643
    133          1           0      -23.930654    3.527121    2.239437
    134          1           0      -22.258575    5.033551    2.512531
    135          1           0      -21.059762    3.893835    1.794774
    136          1           0      -21.870899   -3.909905    1.614521
    137          1           0      -22.414171   -5.469912    1.139427
    138          1           0      -22.847802   -4.801661    2.767465
    139          1           0      -27.721666   -6.418834    1.309044
    140          1           0      -26.713624   -7.881830    1.065196
    141          1           0      -26.866518   -6.717455   -0.236954
    142          1           0      -30.213818   -2.986989    1.094057
    143          1           0      -30.902731   -1.698597   -1.671891
    144          1           0      -30.776297   -5.005875   -0.116412
    145          1           0      -29.604561   -4.587147   -1.379800
    146          1           0      -31.271926   -3.904891   -1.444234
    147          1           0      -31.493262   -0.100912    0.690942
    148          1           0      -31.996628   -1.565889    1.130801
    149          1           0      -33.523294    0.181450   -0.593075
    150          1           0      -33.876150   -1.244881    0.324347
    151          1           0      -33.271704   -1.362952   -1.369980
    152          1           0      -29.368462    4.711313   -2.129586
    153          1           0      -30.224651    4.238498   -0.848305
    154          1           0      -30.419235    3.209857   -2.266681
    155          1           0      -24.917501    4.884587    0.895252
    156          1           0      -21.040862    6.058067   -0.223679
    157          1           0      -22.003101    7.040861   -1.253901
    158          1           0      -21.601217    5.406551   -1.883714
 ---------------------------------------------------------------------

 SCF Done:  E(RPBE1PBE) =  -4067.34304042     A.U. after   16 cycles

 Excitation energies and oscillator strengths:

 Excited State   1:      Singlet-A      1.8323 eV  676.65 nm  f=0.3538  <S**2>=0.000
     310 -> 316        0.16898
     311 -> 313        0.69472
     311 <- 313       -0.11096
 This state for optimization and/or second-order correction.
 Total Energy, E(TD-HF/TD-DFT) =  -4067.27570331
 Copying the excited state density for this state as the 1-particle RhoCI density.

 Excited State   2:      Singlet-A      1.8382 eV  674.48 nm  f=0.4001  <S**2>=0.000
     309 -> 315       -0.17957
     312 -> 314        0.69119
     312 <- 314       -0.10356

 Excited State   3:      Singlet-A      1.9429 eV  638.15 nm  f=0.0000  <S**2>=0.000
     312 -> 313        0.70711

 Excited State   4:      Singlet-A      2.0355 eV  609.12 nm  f=0.0000  <S**2>=0.000
     311 -> 314        0.70711

 Excited State   5:      Singlet-A      2.2475 eV  551.67 nm  f=0.1027  <S**2>=0.000
     310 -> 313        0.64694
     311 -> 316       -0.27099

 The electronic state is 1-A.
 Alpha  occ. eigenvalues --  -46.93201 -46.92656 -19.26371 -19.25835 -19.20984
 Alpha  occ. eigenvalues --  -19.20569 -19.19955 -19.19749 -19.19564 -19.18643
 Alpha  occ. eigenvalues --  -14.41986 -14.41719 -14.41664 -14.41592 -14.39757
 Alpha  occ. eigenvalues --  -14.39240 -14.39098 -14.38844 -10.37161 -10.36618
 Alpha  occ. eigenvalues --  -10.33410 -10.32727 -10.32681 -10.31317 -10.29653
 Alpha  occ. eigenvalues --  -10.29603 -10.29408 -10.29196 -10.29100 -10.28717
 Alpha  occ. eigenvalues --  -10.28555 -10.28525 -10.28476 -10.28428 -10.28418
 Alpha  occ. eigenvalues --  -10.28125 -10.27936 -10.27673 -10.27623 -10.27353
 Alpha  occ. eigenvalues --  -10.27109 -10.26746 -10.26665 -10.26601 -10.26566
 Alpha  occ. eigenvalues --  -10.26321 -10.26267 -10.26252 -10.26170 -10.26047
 Alpha  occ. eigenvalues --  -10.25981 -10.25894 -10.25877 -10.25763 -10.25696
 Alpha  occ. eigenvalues --  -10.25649 -10.25607 -10.25589 -10.25502 -10.25439
 Alpha  occ. eigenvalues --  -10.25407 -10.25391 -10.25352 -10.25195 -10.25098
 Alpha  occ. eigenvalues --  -10.24983 -10.24746 -10.24310 -10.24241 -10.24237
 Alpha  occ. eigenvalues --  -10.24222 -10.24145 -10.24145 -10.24135 -10.24095
 Alpha  occ. eigenvalues --  -10.23924 -10.23740 -10.23354 -10.23352 -10.23350
 Alpha  occ. eigenvalues --  -10.23140 -10.23020 -10.22958 -10.22712 -10.22676
 Alpha  occ. eigenvalues --  -10.22629  -3.15200  -3.14645  -1.87988  -1.87629
 Alpha  occ. eigenvalues --   -1.87488  -1.87389  -1.87009  -1.86868  -1.10876
 Alpha  occ. eigenvalues --   -1.10788  -1.05730  -1.05108  -1.04874  -1.04170
 Alpha  occ. eigenvalues --   -1.03608  -1.02342  -0.99828  -0.99784  -0.98611
 Alpha  occ. eigenvalues --   -0.97454  -0.97411  -0.96954  -0.96335  -0.96188
 Alpha  occ. eigenvalues --   -0.86841  -0.86701  -0.83535  -0.83420  -0.83115
 Alpha  occ. eigenvalues --   -0.82619  -0.82437  -0.82317  -0.81732  -0.81271
 Alpha  occ. eigenvalues --   -0.81194  -0.80817  -0.80417  -0.80094  -0.78964
 Alpha  occ. eigenvalues --   -0.78323  -0.77697  -0.77685  -0.76921  -0.76702
 Alpha  occ. eigenvalues --   -0.76378  -0.75897  -0.75500  -0.75499  -0.74641
 Alpha  occ. eigenvalues --   -0.74149  -0.72360  -0.72234  -0.71694  -0.71591
 Alpha  occ. eigenvalues --   -0.71491  -0.71035  -0.70502  -0.70170  -0.69328
 Alpha  occ. eigenvalues --   -0.69286  -0.67163  -0.66957  -0.66670  -0.65794
 Alpha  occ. eigenvalues --   -0.64202  -0.63668  -0.63625  -0.62947  -0.62861
 Alpha  occ. eigenvalues --   -0.61873  -0.61851  -0.60850  -0.60326  -0.59832
 Alpha  occ. eigenvalues --   -0.59494  -0.59354  -0.59241  -0.58960  -0.58891
 Alpha  occ. eigenvalues --   -0.58714  -0.57438  -0.57143  -0.54847  -0.54240
 Alpha  occ. eigenvalues --   -0.54088  -0.54016  -0.53561  -0.53517  -0.53400
 Alpha  occ. eigenvalues --   -0.53080  -0.52641  -0.52523  -0.52131  -0.52053
 Alpha  occ. eigenvalues --   -0.50855  -0.50574  -0.50112  -0.49972  -0.49580
 Alpha  occ. eigenvalues --   -0.49546  -0.49468  -0.49276  -0.49049  -0.48624
 Alpha  occ. eigenvalues --   -0.48142  -0.47946  -0.47871  -0.47693  -0.47355
 Alpha  occ. eigenvalues --   -0.47151  -0.46999  -0.46964  -0.46934  -0.46603
 Alpha  occ. eigenvalues --   -0.46496  -0.46332  -0.46318  -0.46234  -0.46202
 Alpha  occ. eigenvalues --   -0.45669  -0.45668  -0.45484  -0.45421  -0.44785
 Alpha  occ. eigenvalues --   -0.44552  -0.44504  -0.44302  -0.44293  -0.44192
 Alpha  occ. eigenvalues --   -0.43982  -0.43910  -0.43847  -0.43494  -0.43432
 Alpha  occ. eigenvalues --   -0.43279  -0.43221  -0.43145  -0.43133  -0.42776
 Alpha  occ. eigenvalues --   -0.42704  -0.42542  -0.42360  -0.42104  -0.42073
 Alpha  occ. eigenvalues --   -0.42021  -0.41690  -0.41622  -0.41579  -0.41357
 Alpha  occ. eigenvalues --   -0.41154  -0.40898  -0.40886  -0.40633  -0.40621
 Alpha  occ. eigenvalues --   -0.40414  -0.40330  -0.39978  -0.39962  -0.39756
 Alpha  occ. eigenvalues --   -0.39572  -0.39518  -0.39354  -0.39320  -0.38848
 Alpha  occ. eigenvalues --   -0.38766  -0.38687  -0.38462  -0.38269  -0.38240
 Alpha  occ. eigenvalues --   -0.38032  -0.37933  -0.37757  -0.37701  -0.37669
 Alpha  occ. eigenvalues --   -0.37576  -0.37480  -0.37329  -0.37112  -0.37081
 Alpha  occ. eigenvalues --   -0.37063  -0.36904  -0.36875  -0.36521  -0.36445
 Alpha  occ. eigenvalues --   -0.36392  -0.35978  -0.35897  -0.35683  -0.35385
 Alpha  occ. eigenvalues --   -0.35355  -0.34792  -0.34749  -0.34495  -0.33624
 Alpha  occ. eigenvalues --   -0.33164  -0.32876  -0.32766  -0.32540  -0.32167
 Alpha  occ. eigenvalues --   -0.32093  -0.31753  -0.31655  -0.31495  -0.31395
 Alpha  occ. eigenvalues --   -0.31268  -0.30703  -0.29790  -0.29649  -0.29425
 Alpha  occ. eigenvalues --   -0.29398  -0.29035  -0.28894  -0.26907  -0.26892
 Alpha  occ. eigenvalues --   -0.26352  -0.26205  -0.25965  -0.25671  -0.25604
 Alpha  occ. eigenvalues --   -0.25453  -0.25114  -0.24980  -0.21315  -0.21217
 Alpha  occ. eigenvalues --   -0.18812  -0.18679
 Alpha virt. eigenvalues --   -0.11287  -0.11081  -0.05808  -0.05170  -0.04467
 Alpha virt. eigenvalues --   -0.03783  -0.02333  -0.02290  -0.01458  -0.00880
 Alpha virt. eigenvalues --   -0.00139   0.00054   0.00368   0.00788   0.01027

 Mulliken charges:
               1
     1  Mg  11.999871
     2  C    5.999036
     3  C    6.000867
     4  C    6.000176
     5  C    5.999297
     6  N    6.999913
     7  C    6.001603
     8  C    5.999473
     9  C    6.000447
    10  C    5.998481
    11  C    6.000047
    12  C    5.999879
    13  C    5.999832
    14  H    1.000345
    15  N    7.000278
    16  C    5.998445
    17  C    5.999059
    18  C    5.999339
    19  C    5.998964
    20  C    6.000043
    21  C    5.999472
    22  O    7.998666
    23  C    6.000199
    24  N    6.999841
    25  C    5.998836
    26  C    6.000416
    27  C    5.999528
    28  C    6.001437
    29  C    6.000050
    30  C    5.999901
    31  C    5.999815
    32  N    6.999950
    33  C    6.001768
    34  C    6.001148
    35  C    6.000143
    36  C    6.001310
    37  C    5.999904
    38  C    6.000774
    39  O    8.001185
    40  C    6.000143
    41  C    6.000115
    42  O    8.000179
    43  O    8.000091
    44  C    5.999921
    45  H    0.999663
    46  H    0.999695
    47  H    1.000361
    48  H    1.000062
    49  H    0.999956
    50  H    0.999419
    51  H    0.999984
    52  H    1.000028
    53  H    1.000509
    54  H    0.999794
    55  H    1.000164
    56  H    0.999885
    57  H    0.999140
    58  H    0.999372
    59  H    0.999436
    60  H    0.999610
    61  H    0.999382
    62  H    0.999653
    63  H    0.999986
    64  H    1.000102
    65  H    1.000078
    66  H    1.000129
    67  H    0.999610
    68  H    1.000395
    69  H    0.999819
    70  H    0.999785
    71  H    1.000359
    72  H    1.000277
    73  H    1.000653
    74  H    1.000775
    75  H    1.000842
    76  H    1.000339
    77  H    1.000205
    78  H    1.000072
    79  H    1.000275
    80  Mg  12.000337
    81  C    5.992698
    82  C    6.019329
    83  C    6.007984
    84  C    5.977678
    85  N    7.007314
    86  C    6.027887
    87  C    5.986675
    88  C    6.010373
    89  C    5.963028
    90  C    6.001308
    91  C    5.998710
    92  C    5.995656
    93  H    1.011308
    94  N    7.004884
    95  C    5.953416
    96  C    5.987812
    97  C    5.981209
    98  C    5.971049
    99  C    6.005621
   100  C    5.986584
   101  O    7.979195
   102  C    6.003390
   103  N    6.986028
   104  C    5.976473
   105  C    6.007816
   106  C    5.992804
   107  C    6.035666
   108  C    6.001515
   109  C    5.997741
   110  C    5.999202
   111  N    7.000550
   112  C    6.041179
   113  C    6.021077
   114  C    6.009299
   115  C    6.023541
   116  C    5.998877
   117  C    6.017412
   118  O    8.029274
   119  C    6.001394
   120  C    6.005350
   121  O    8.005458
   122  O    8.003074
   123  C    5.997350
   124  H    0.991336
   125  H    0.992279
   126  H    1.006669
   127  H    1.002578
   128  H    0.997149
   129  H    0.997500
   130  H    0.987258
   131  H    1.004628
   132  H    1.011270
   133  H    0.992033
   134  H    0.997227
   135  H    1.003896
   136  H    0.982419
   137  H    0.985082
   138  H    0.982731
   139  H    0.988499
   140  H    0.987612
   141  H    0.991908
   142  H    0.998318
   143  H    1.000617
   144  H    1.000377
   145  H    1.003707
   146  H    0.990210
   147  H    0.995180
   148  H    1.008123
   149  H    0.996577
   150  H    1.003824
   151  H    1.003061
   152  H    1.012077
   153  H    1.020864
   154  H    1.016948
   155  H    1.009514
   156  H    1.005981
   157  H    1.003097
   158  H    1.004922
 Sum of Mulliken charges = 624.00000

 Dipole moment (field-independent basis, Debye):
    X=             -3.3583    Y=              9.2789    Z=             -2.1130  Tot=             10.0916
 Quadrupole moment (field-independent basis, Debye-Ang):
   XX=            162.5295   YY=             -8.0483   ZZ=              0.8182
   XY=           -261.4364   XZ=             60.3222   YZ=              2.0841

 Normal termination of Gaussian 16 at Wed Oct 13 21:09:43 2021.
