 Gaussian 16, Revision A.03,
 Gaussian 16:  ES64L-G16RevA.03 25-Dec-2016

 --------------------------------------------------------
 #p PBE1PBE/Def2SVP td=(nstates=5) density=(transition=1)
 --------------------------------------------------------

 --------------------------------
 TDDFT excited states in gaussian
 --------------------------------
 Symbolic Z-matrix:
 Charge =  0 Multiplicity = 1

                         Standard orientation:
 ---------------------------------------------------------------------
 Center     Atomic      Atomic             Coordinates (Angstroms)
 Number     Number       Type             X           Y           Z
 ---------------------------------------------------------------------
      1         12           0      -25.465555   -0.318390    0.312324
      2          6           0      -22.093335   -0.332719   -0.901898
      3          6           0      -24.212384    1.153771    3.275663
      4          6           0      -28.623125    0.421050    1.174455
      5          6           0      -26.520696   -1.123002   -2.873999
      6          7           0      -23.377390    0.339379    1.128808
      7          6           0      -22.231042    0.233166    0.392070
      8          6           0      -21.117290    1.019036    1.065726
      9          6           0      -21.788028    1.204388    2.490907
     10          6           0      -23.231067    0.899272    2.354672
     11          6           0      -21.189246    0.378003    3.678254
     12          6           0      -20.757993    2.278967    0.214480
     13          6           0      -19.239931    2.647949   -0.046515
     14          1           0      -18.680539    3.985850    0.469695
     15          7           0      -26.315447    0.444434    1.991047
     16          6           0      -25.655955    0.990224    3.123814
     17          6           0      -26.622704    1.404408    4.123815
     18          6           0      -27.912326    1.189807    3.487117
     19          6           0      -27.629273    0.655165    2.168339
     20          6           0      -26.209930    2.042142    5.384401
     21          6           0      -29.248243    1.484577    4.191239
     22          8           0      -29.171849    2.028311    5.331583
     23          6           0      -30.648934    1.171805    3.623323
     24          7           0      -27.365605   -0.072644   -0.753868
     25          6           0      -28.529827    0.061884   -0.148217
     26          6           0      -29.610874   -0.001490   -1.178342
     27          6           0      -28.899272   -0.556788   -2.441034
     28          6           0      -27.457105   -0.511056   -2.039236
     29          6           0      -30.959169   -0.781438   -0.866788
     30          6           0      -29.186449    0.254359   -3.807966
     31          6           0      -29.937495   -0.469088   -4.952519
     32          7           0      -24.567829   -0.846603   -1.440790
     33          6           0      -25.102749   -1.144541   -2.636900
     34          6           0      -24.102217   -1.437583   -3.596559
     35          6           0      -22.903577   -1.171654   -2.930523
     36          6           0      -23.230523   -0.765943   -1.611900
     37          6           0      -24.204981   -1.913603   -4.989790
     38          6           0      -21.492905   -1.143816   -3.165676
     39          8           0      -20.896611   -1.357044   -4.197428
     40          6           0      -20.870969   -0.510916   -1.765842
     41          6           0      -19.926365   -1.460588   -1.165757
     42          8           0      -20.101550   -2.681294   -1.062292
     43          8           0      -18.848587   -0.721351   -0.727072
     44          6           0      -17.765090   -1.467955   -0.089954
     45          1           0      -23.888053    1.606344    4.213972
     46          1           0      -29.651843    0.736468    1.358843
     47          1           0      -26.793132   -1.598353   -3.818797
     48          1           0      -20.297731    0.316139    1.217449
     49          1           0      -21.700089    2.289625    2.554221
     50          1           0      -22.001375   -0.213347    4.103579
     51          1           0      -20.793973    0.986352    4.491447
     52          1           0      -20.434352   -0.360076    3.405476
     53          1           0      -21.222725    3.045807    0.833822
     54          1           0      -21.243102    2.350877   -0.758707
     55          1           0      -19.124083    2.583809   -1.128287
     56          1           0      -18.628853    1.804025    0.272159
     57          1           0      -25.555990    2.869520    5.107885
     58          1           0      -25.592376    1.355785    5.963376
     59          1           0      -26.988805    2.320830    6.094664
     60          1           0      -30.845783    1.872462    2.811717
     61          1           0      -31.273368    1.057439    4.508774
     62          1           0      -30.521224    0.168648    3.215150
     63          1           0      -29.946686    1.022445   -1.337580
     64          1           0      -29.169581   -1.612026   -2.400218
     65          1           0      -31.709948   -0.270993   -1.470531
     66          1           0      -31.150405   -0.725584    0.204738
     67          1           0      -30.814858   -1.800808   -1.225206
     68          1           0      -28.193915    0.569232   -4.129774
     69          1           0      -29.666701    1.193559   -3.533754
     70          1           0      -29.438233   -0.367867   -5.915231
     71          1           0      -30.947586   -0.063307   -5.014665
     72          1           0      -30.113886   -1.527582   -4.760360
     73          1           0      -23.267989   -2.346335   -5.338912
     74          1           0      -24.428388   -0.952266   -5.452779
     75          1           0      -25.161758   -2.423794   -5.100350
     76          1           0      -20.488759    0.497105   -1.922773
     77          1           0      -17.434350   -2.304400   -0.706061
     78          1           0      -18.086898   -1.818835    0.891675
     79          1           0      -16.911023   -0.802380    0.035487
     80         12           0       25.355299    0.503309   -0.106903
     81          6           0       22.458814   -1.645898   -0.073769
     82          6           0       27.137068   -2.180805    1.278075
     83          6           0       28.030568    2.402113   -0.238707
     84          6           0       23.331173    3.138464   -1.193180
     85          7           0       24.779504   -1.691650    0.546943
     86          6           0       23.640795   -2.379816    0.269420
     87          6           0       23.815296   -3.875781    0.474561
     88          6           0       25.239840   -4.001327    1.255613
     89          6           0       25.748846   -2.545893    1.045942
     90          6           0       25.141948   -4.498013    2.719824
     91          6           0       23.767230   -4.680105   -0.868322
     92          6           0       22.682869   -5.788155   -0.900861
     93          1           0       23.291583   -7.301565   -1.025587
     94          7           0       27.254171    0.165094    0.421438
     95          6           0       27.865214   -0.989170    1.018478
     96          6           0       29.319568   -0.829535    1.254893
     97          6           0       29.549258    0.491471    0.748236
     98          6           0       28.270869    1.060066    0.289100
     99          6           0       30.224513   -1.879172    1.903207
    100          6           0       30.808052    1.272281    0.750276
    101          8           0       31.015804    2.294232    0.105132
    102          6           0       32.014375    0.692285    1.514541
    103          7           0       25.642771    2.396385   -0.795135
    104          6           0       26.853592    2.994668   -0.720958
    105          6           0       26.795237    4.473262   -0.986814
    106          6           0       25.312333    4.740852   -1.343748
    107          6           0       24.697544    3.334651   -1.162891
    108          6           0       27.372054    5.338701    0.113836
    109          6           0       25.174058    5.248932   -2.897389
    110          6           0       24.371364    6.644419   -3.113185
    111          7           0       23.260759    0.814329   -0.300149
    112          6           0       22.616249    1.952572   -0.841680
    113          6           0       21.192286    1.630263   -0.988616
    114          6           0       21.157865    0.219958   -0.828812
    115          6           0       22.383445   -0.192517   -0.303655
    116          6           0       20.010568    2.539147   -1.313125
    117          6           0       20.185529   -0.904415   -0.723363
    118          8           0       18.935279   -1.026854   -0.847172
    119          6           0       21.059883   -2.163031   -0.348819
    120          6           0       20.448890   -2.825691    0.850518
    121          8           0       20.051685   -2.239301    1.817351
    122          8           0       20.312292   -4.165141    0.612491
    123          6           0       19.417566   -4.828534    1.594291
    124          1           0       27.610518   -2.995304    1.829871
    125          1           0       28.880967    3.084377   -0.304916
    126          1           0       22.686227    3.935691   -1.567946
    127          1           0       23.027953   -4.176939    1.165619
    128          1           0       25.950718   -4.637674    0.727847
    129          1           0       25.450824   -3.717787    3.416104
    130          1           0       25.757304   -5.387276    2.862453
    131          1           0       24.165736   -4.868908    3.032241
    132          1           0       24.715541   -5.176659   -1.075480
    133          1           0       23.549761   -4.031740   -1.717522
    134          1           0       22.082899   -5.773268   -1.811132
    135          1           0       21.942717   -5.737513   -0.102911
    136          1           0       29.852181   -2.903592    1.935329
    137          1           0       30.581487   -1.637234    2.904225
    138          1           0       31.116781   -1.900903    1.276707
    139          1           0       31.781596    0.597301    2.575115
    140          1           0       32.922565    1.276070    1.360820
    141          1           0       32.215015   -0.301225    1.113596
    142          1           0       27.463185    4.689521   -1.821685
    143          1           0       24.853811    5.432133   -0.637261
    144          1           0       28.328553    5.792905   -0.146285
    145          1           0       27.618603    4.811605    1.035439
    146          1           0       26.632701    6.100636    0.361506
    147          1           0       24.686686    4.531072   -3.556316
    148          1           0       26.142059    5.417990   -3.368346
    149          1           0       24.412541    7.153788   -2.150202
    150          1           0       23.340786    6.475734   -3.428226
    151          1           0       24.914207    7.316159   -3.777645
    152          1           0       19.235583    2.021034   -1.877642
    153          1           0       20.365874    3.292254   -2.017429
    154          1           0       19.773855    2.996813   -0.352491
    155          1           0       20.927342   -2.865482   -1.171286
    156          1           0       19.798092   -4.595141    2.588504
    157          1           0       19.605622   -5.889297    1.429134
    158          1           0       18.359148   -4.568738    1.611102
 ---------------------------------------------------------------------

 SCF Done:  E(RPBE1PBE) =  -4067.35047757     A.U. after   16 cycles

 Excitation energies and oscillator strengths:

 Excited State   1:      Singlet-A      1.8271 eV  678.60 nm  f=0.3577  <S**2>=0.000
     310 -> 315        0.18280
     311 -> 313        0.69142
     311 <- 313       -0.10667
 This state for optimization and/or second-order correction.
 Total Energy, E(TD-HF/TD-DFT) =  -4067.28333399
 Copying the excited state density for this state as the 1-particle RhoCI density.

 Excited State   2:      Singlet-A      1.8632 eV  665.42 nm  f=0.3775  <S**2>=0.000
     309 -> 316       -0.18024
     312 -> 314        0.69249
     312 <- 314       -0.10916

 Excited State   3:      Singlet-A      1.9755 eV  627.61 nm  f=0.0000  <S**2>=0.000
     312 -> 313        0.70711

 Excited State   4:      Singlet-A      1.9949 eV  621.49 nm  f=0.0000  <S**2>=0.000
     311 -> 314        0.70711

 Excited State   5:      Singlet-A      2.1728 eV  570.63 nm  f=0.1320  <S**2>=0.000
     310 -> 313        0.65739
     311 -> 315       -0.25556

 The electronic state is 1-A.
 Alpha  occ. eigenvalues --  -46.92270 -46.91973 -19.26832 -19.26299 -19.20695
 Alpha  occ. eigenvalues --  -19.19964 -19.19944 -19.19064 -19.19042 -19.18405
 Alpha  occ. eigenvalues --  -14.41960 -14.41597 -14.41368 -14.40946 -14.40313
 Alpha  occ. eigenvalues --  -14.39582 -14.39426 -14.39019 -10.37002 -10.35849
 Alpha  occ. eigenvalues --  -10.32560 -10.32457 -10.32435 -10.32119 -10.29592
 Alpha  occ. eigenvalues --  -10.29454 -10.29152 -10.29096 -10.29089 -10.29047
 Alpha  occ. eigenvalues --  -10.28907 -10.28697 -10.28488 -10.28474 -10.28259
 Alpha  occ. eigenvalues --  -10.28094 -10.28093 -10.28026 -10.28011 -10.27946
 Alpha  occ. eigenvalues --  -10.27415 -10.26878 -10.26852 -10.26803 -10.26735
 Alpha  occ. eigenvalues --  -10.26454 -10.26452 -10.26428 -10.26403 -10.26300
 Alpha  occ. eigenvalues --  -10.26272 -10.25923 -10.25802 -10.25774 -10.25681
 Alpha  occ. eigenvalues --  -10.25617 -10.25581 -10.25469 -10.25420 -10.25404
 Alpha  occ. eigenvalues --  -10.25342 -10.25172 -10.25077 -10.25053 -10.25009
 Alpha  occ. eigenvalues --  -10.24974 -10.24943 -10.24890 -10.24883 -10.24783
 Alpha  occ. eigenvalues --  -10.24557 -10.24279 -10.24137 -10.24004 -10.23988
 Alpha  occ. eigenvalues --  -10.23918 -10.23876 -10.23688 -10.23676 -10.23499
 Alpha  occ. eigenvalues --  -10.23439 -10.23223 -10.23092 -10.23000 -10.22509
 Alpha  occ. eigenvalues --  -10.22266  -3.14403  -3.14192  -1.87232  -1.87031
 Alpha  occ. eigenvalues --   -1.86765  -1.86643  -1.86566  -1.86437  -1.11731
 Alpha  occ. eigenvalues --   -1.11216  -1.05554  -1.04570  -1.03515  -1.02881
 Alpha  occ. eigenvalues --   -1.01967  -1.01900  -1.00093  -0.99384  -0.98664
 Alpha  occ. eigenvalues --   -0.98314  -0.97859  -0.97258  -0.97012  -0.96635
 Alpha  occ. eigenvalues --   -0.87462  -0.85951  -0.83651  -0.82904  -0.82774
 Alpha  occ. eigenvalues --   -0.82591  -0.82394  -0.82337  -0.82268  -0.81797
 Alpha  occ. eigenvalues --   -0.81720  -0.81246  -0.80321  -0.80088  -0.78918
 Alpha  occ. eigenvalues --   -0.78249  -0.78088  -0.77489  -0.76958  -0.76191
 Alpha  occ. eigenvalues --   -0.76083  -0.75676  -0.75499  -0.75011  -0.74771
 Alpha  occ. eigenvalues --   -0.73980  -0.73267  -0.72561  -0.71935  -0.71481
 Alpha  occ. eigenvalues --   -0.71171  -0.71118  -0.70557  -0.70332  -0.69689
 Alpha  occ. eigenvalues --   -0.69595  -0.67648  -0.67047  -0.66644  -0.65858
 Alpha  occ. eigenvalues --   -0.64146  -0.63820  -0.63496  -0.63166  -0.62826
 Alpha  occ. eigenvalues --   -0.61972  -0.61526  -0.61196  -0.60569  -0.60384
 Alpha  occ. eigenvalues --   -0.60129  -0.60026  -0.59630  -0.59271  -0.59000
 Alpha  occ. eigenvalues --   -0.58569  -0.57474  -0.56959  -0.55292  -0.54698
 Alpha  occ. eigenvalues --   -0.54535  -0.54032  -0.53870  -0.53449  -0.53327
 Alpha  occ. eigenvalues --   -0.52962  -0.52897  -0.52482  -0.52202  -0.51741
 Alpha  occ. eigenvalues --   -0.50753  -0.50700  -0.50400  -0.50133  -0.49883
 Alpha  occ. eigenvalues --   -0.49485  -0.49417  -0.49094  -0.49075  -0.48402
 Alpha  occ. eigenvalues --   -0.48294  -0.47970  -0.47947  -0.47539  -0.47285
 Alpha  occ. eigenvalues --   -0.47079  -0.46906  -0.46666  -0.46583  -0.46299
 Alpha  occ. eigenvalues --   -0.46284  -0.46056  -0.46005  -0.45907  -0.45854
 Alpha  occ. eigenvalues --   -0.45465  -0.45146  -0.45093  -0.44941  -0.44711
 Alpha  occ. eigenvalues --   -0.44558  -0.44544  -0.44499  -0.44367  -0.44204
 Alpha  occ. eigenvalues --   -0.44012  -0.43909  -0.43731  -0.43461  -0.43282
 Alpha  occ. eigenvalues --   -0.43136  -0.42960  -0.42805  -0.42647  -0.42538
 Alpha  occ. eigenvalues --   -0.42413  -0.42337  -0.42309  -0.42277  -0.42138
 Alpha  occ. eigenvalues --   -0.42075  -0.41734  -0.41706  -0.41586  -0.41353
 Alpha  occ. eigenvalues --   -0.41220  -0.41114  -0.40935  -0.40767  -0.40731
 Alpha  occ. eigenvalues --   -0.40671  -0.40352  -0.40338  -0.40032  -0.39767
 Alpha  occ. eigenvalues --   -0.39748  -0.39652  -0.39522  -0.39292  -0.39251
 Alpha  occ. eigenvalues --   -0.38905  -0.38754  -0.38549  -0.38466  -0.38413
 Alpha  occ. eigenvalues --   -0.38332  -0.38111  -0.38078  -0.37902  -0.37744
 Alpha  occ. eigenvalues --   -0.37699  -0.37626  -0.37458  -0.37207  -0.37102
 Alpha  occ. eigenvalues --   -0.36775  -0.36408  -0.36401  -0.36155  -0.36107
 Alpha  occ. eigenvalues --   -0.35897  -0.35688  -0.35680  -0.35602  -0.35372
 Alpha  occ. eigenvalues --   -0.35260  -0.35162  -0.35143  -0.34471  -0.33917
 Alpha  occ. eigenvalues --   -0.33726  -0.33573  -0.33253  -0.33202  -0.32622
 Alpha  occ. eigenvalues --   -0.32560  -0.32517  -0.32256  -0.31500  -0.31457
 Alpha  occ. eigenvalues --   -0.30844  -0.30648  -0.29899  -0.29759  -0.29371
 Alpha  occ. eigenvalues --   -0.29254  -0.28618  -0.28590  -0.27142  -0.26974
 Alpha  occ. eigenvalues --   -0.26094  -0.26003  -0.25700  -0.25694  -0.25571
 Alpha  occ. eigenvalues --   -0.25183  -0.25019  -0.24886  -0.21128  -0.20851
 Alpha  occ. eigenvalues --   -0.18928  -0.18927
 Alpha virt. eigenvalues --   -0.11405  -0.11333  -0.05323  -0.05203  -0.04077
 Alpha virt. eigenvalues --   -0.03909  -0.02382  -0.02022  -0.00531  -0.00170
 Alpha virt. eigenvalues --   -0.00009   0.00693   0.00917   0.01004   0.01282

 Mulliken charges:
               1
     1  Mg  12.000000
     2  C    6.000066
     3  C    5.999829
     4  C    5.999981
     5  C    6.000171
     6  N    6.999934
     7  C    5.999848
     8  C    6.000003
     9  C    5.999948
    10  C    6.000241
    11  C    5.999976
    12  C    6.000077
    13  C    6.000037
    14  H    0.999852
    15  N    7.000003
    16  C    6.000389
    17  C    6.000072
    18  C    6.000085
    19  C    6.000224
    20  C    5.999912
    21  C    6.000176
    22  O    8.000121
    23  C    6.000006
    24  N    7.000040
    25  C    6.000160
    26  C    5.999927
    27  C    6.000104
    28  C    5.999712
    29  C    5.999986
    30  C    5.999990
    31  C    6.000007
    32  N    6.999968
    33  C    5.999717
    34  C    5.999853
    35  C    6.000042
    36  C    5.999771
    37  C    6.000033
    38  C    5.999771
    39  O    7.999860
    40  C    5.999945
    41  C    5.999938
    42  O    7.999973
    43  O    7.999987
    44  C    6.000033
    45  H    1.000044
    46  H    1.000098
    47  H    0.999984
    48  H    0.999965
    49  H    0.999996
    50  H    0.999989
    51  H    0.999987
    52  H    1.000060
    53  H    0.999916
    54  H    1.000051
    55  H    1.000002
    56  H    0.999965
    57  H    1.000150
    58  H    1.000167
    59  H    1.000131
    60  H    1.000099
    61  H    1.000137
    62  H    1.000070
    63  H    1.000032
    64  H    0.999999
    65  H    1.000077
    66  H    0.999960
    67  H    1.000073
    68  H    1.000035
    69  H    0.999950
    70  H    1.000018
    71  H    0.999991
    72  H    1.000005
    73  H    0.999883
    74  H    0.999843
    75  H    0.999869
    76  H    0.999879
    77  H    0.999953
    78  H    0.999960
    79  H    0.999887
    80  Mg  12.004082
    81  C    5.975285
    82  C    5.997492
    83  C    6.028905
    84  C    5.997450
    85  N    6.982476
    86  C    6.032227
    87  C    5.990277
    88  C    6.011132
    89  C    5.972996
    90  C    6.002362
    91  C    5.998789
    92  C    5.997911
    93  H    1.006476
    94  N    7.002817
    95  C    5.969690
    96  C    5.975864
    97  C    5.987412
    98  C    5.973802
    99  C    6.003164
   100  C    5.988216
   101  O    7.968988
   102  C    6.003770
   103  N    7.008768
   104  C    5.964277
   105  C    6.008660
   106  C    5.989418
   107  C    6.028664
   108  C    6.000581
   109  C    5.995503
   110  C    5.999288
   111  N    6.997999
   112  C    6.036640
   113  C    6.030359
   114  C    6.002370
   115  C    6.028427
   116  C    6.001547
   117  C    6.011796
   118  O    8.028991
   119  C    6.003550
   120  C    6.006916
   121  O    8.000081
   122  O    8.001697
   123  C    5.998421
   124  H    0.986829
   125  H    0.998438
   126  H    1.012353
   127  H    0.997511
   128  H    0.999166
   129  H    1.000545
   130  H    0.996608
   131  H    0.987181
   132  H    1.007974
   133  H    0.995456
   134  H    0.997067
   135  H    0.998126
   136  H    0.985374
   137  H    0.981803
   138  H    0.985242
   139  H    0.992674
   140  H    0.986378
   141  H    0.994944
   142  H    1.001731
   143  H    1.003366
   144  H    1.002660
   145  H    1.005400
   146  H    0.991356
   147  H    0.999213
   148  H    1.011592
   149  H    1.003707
   150  H    0.997485
   151  H    1.006018
   152  H    1.013852
   153  H    1.015003
   154  H    1.015836
   155  H    1.004524
   156  H    1.004280
   157  H    1.004712
   158  H    1.000060
 Sum of Mulliken charges = 624.00000

 Dipole moment (field-independent basis, Debye):
    X=             -9.4544    Y=              2.5527    Z=             -2.7139  Tot=             10.1620
 Quadrupole moment (field-independent basis, Debye-Ang):
   XX=           -473.7587   YY=              4.8310   ZZ=             -0.4030
   XY=             60.1783   XZ=            -73.1818   YZ=             -0.9745

 Normal termination of Gaussian 16 at Thu Oct 14 11:11:22 2021.
