 Gaussian 16, Revision A.03,
 Gaussian 16:  ES64L-G16RevA.03 25-Dec-2016

 --------------------------------------------------------
 #p PBE1PBE/Def2SVP td=(nstates=5) density=(transition=1)
 --------------------------------------------------------

 --------------------------------
 TDDFT excited states in gaussian
 --------------------------------
 Symbolic Z-matrix:
 Charge =  0 Multiplicity = 1

                         Standard orientation:
 ---------------------------------------------------------------------
 Center     Atomic      Atomic             Coordinates (Angstroms)
 Number     Number       Type             X           Y           Z
 ---------------------------------------------------------------------
      1         12           0      -28.618158    0.362522   -0.656882
      2          6           0      -28.134165   -1.947102    1.897489
      3          6           0      -27.453160    2.829554    1.416617
      4          6           0      -29.414147    2.620101   -3.082570
      5          6           0      -30.023255   -2.311121   -2.530558
      6          7           0      -27.915086    0.440369    1.418687
      7          6           0      -27.698746   -0.661243    2.203817
      8          6           0      -27.043273   -0.154012    3.490698
      9          6           0      -27.123546    1.360764    3.425266
     10          6           0      -27.492759    1.558528    1.959475
     11          6           0      -28.020596    2.106038    4.376766
     12          6           0      -25.578421   -0.729604    3.792604
     13          6           0      -24.812811   -0.058202    4.977809
     14          1           0      -24.958882   -0.668984    6.396144
     15          7           0      -28.310755    2.406561   -0.841902
     16          6           0      -27.852837    3.246853    0.119225
     17          6           0      -27.904333    4.574547   -0.435431
     18          6           0      -28.480222    4.503299   -1.737923
     19          6           0      -28.787991    3.159231   -1.940679
     20          6           0      -27.412401    5.746454    0.356664
     21          6           0      -28.844789    5.709072   -2.652179
     22          8           0      -29.631581    5.599466   -3.575496
     23          6           0      -28.383592    7.067233   -2.414334
     24          7           0      -29.522633    0.167293   -2.424689
     25          6           0      -29.719477    1.225704   -3.311114
     26          6           0      -30.364604    0.774999   -4.633192
     27          6           0      -30.268933   -0.784189   -4.514916
     28          6           0      -29.864823   -0.984212   -3.063520
     29          6           0      -31.638914    1.416069   -4.999346
     30          6           0      -29.344692   -1.609869   -5.570452
     31          6           0      -29.959114   -2.689117   -6.466867
     32          7           0      -29.077576   -1.766507   -0.377217
     33          6           0      -29.653086   -2.667330   -1.228768
     34          6           0      -29.735718   -3.958802   -0.634255
     35          6           0      -29.057731   -3.751106    0.627354
     36          6           0      -28.761517   -2.364911    0.753391
     37          6           0      -30.291466   -5.154934   -1.308403
     38          6           0      -28.543584   -4.437819    1.789977
     39          8           0      -28.484708   -5.604370    2.125839
     40          6           0      -27.908503   -3.224611    2.692528
     41          6           0      -28.409774   -3.265693    4.089968
     42          8           0      -29.561920   -3.052478    4.397912
     43          8           0      -27.440496   -3.551669    4.976849
     44          6           0      -27.768480   -3.370424    6.443046
     45          1           0      -27.033015    3.610944    2.053730
     46          1           0      -29.665031    3.364954   -3.840435
     47          1           0      -30.458564   -2.990642   -3.266478
     48          1           0      -27.738075   -0.561415    4.224988
     49          1           0      -26.142671    1.782460    3.643295
     50          1           0      -28.811344    2.387525    3.682043
     51          1           0      -27.513873    2.936000    4.869416
     52          1           0      -28.501169    1.445705    5.098967
     53          1           0      -25.067454   -0.525274    2.851481
     54          1           0      -25.634293   -1.801123    3.980851
     55          1           0      -25.119085    0.977502    5.119381
     56          1           0      -23.753501   -0.040250    4.721640
     57          1           0      -26.939942    5.556834    1.320977
     58          1           0      -28.302157    6.324922    0.603066
     59          1           0      -26.779384    6.418865   -0.222683
     60          1           0      -28.467631    7.506216   -1.420716
     61          1           0      -28.760686    7.818714   -3.107880
     62          1           0      -27.332883    6.997898   -2.695162
     63          1           0      -29.575107    1.123009   -5.299848
     64          1           0      -31.331967   -1.020363   -4.559900
     65          1           0      -31.643626    2.028765   -5.901240
     66          1           0      -31.937865    2.048304   -4.162870
     67          1           0      -32.449444    0.714567   -5.196516
     68          1           0      -28.559705   -2.102528   -4.997023
     69          1           0      -28.777279   -1.031540   -6.300603
     70          1           0      -29.755182   -3.714389   -6.157013
     71          1           0      -29.797785   -2.544105   -7.534688
     72          1           0      -31.039807   -2.643815   -6.331440
     73          1           0      -31.228690   -4.875457   -1.789076
     74          1           0      -30.406515   -6.002802   -0.633670
     75          1           0      -29.677130   -5.342609   -2.189599
     76          1           0      -26.840090   -3.432476    2.740896
     77          1           0      -27.009732   -3.989580    6.921102
     78          1           0      -28.782763   -3.727847    6.619609
     79          1           0      -27.598478   -2.318300    6.672066
     80         12           0       29.114783   -0.401778    0.202456
     81          6           0       26.308193    1.446296    0.727321
     82          6           0       27.060637   -3.245618   -0.246484
     83          6           0       31.679463   -1.895735   -1.328784
     84          6           0       31.072545    2.632262    0.136207
     85          7           0       26.976638   -0.795662    0.271459
     86          6           0       26.003511    0.028445    0.477836
     87          6           0       24.624282   -0.684606    0.711111
     88          6           0       24.961752   -2.223849    0.679235
     89          6           0       26.462370   -2.143752    0.233153
     90          6           0       24.583776   -3.028896    1.923369
     91          6           0       23.479345   -0.184267   -0.354577
     92          6           0       23.926486    0.414559   -1.678297
     93          1           0       22.963910    0.486586   -2.863678
     94          7           0       29.322406   -2.309439   -0.672776
     95          6           0       28.418467   -3.344083   -0.700994
     96          6           0       28.970829   -4.433227   -1.382207
     97          6           0       30.321898   -4.075235   -1.761552
     98          6           0       30.495930   -2.676949   -1.287464
     99          6           0       28.238306   -5.760583   -1.452536
    100          6           0       31.285482   -5.010798   -2.513912
    101          8           0       30.871008   -6.151963   -2.817808
    102          6           0       32.627864   -4.690893   -2.905212
    103          7           0       31.107042    0.334642   -0.664724
    104          6           0       31.966145   -0.571802   -1.035601
    105          6           0       33.396003   -0.000998   -1.255744
    106          6           0       33.224665    1.443430   -0.736852
    107          6           0       31.693360    1.547109   -0.352665
    108          6           0       34.468548   -0.721007   -0.520935
    109          6           0       33.698569    2.545258   -1.797443
    110          6           0       35.003429    3.360498   -1.420839
    111          7           0       28.860929    1.623114    0.494204
    112          6           0       29.706177    2.739713    0.481632
    113          6           0       28.903645    3.949309    0.843846
    114          6           0       27.589612    3.462998    0.896002
    115          6           0       27.594635    2.058420    0.646958
    116          6           0       29.341851    5.319740    1.028270
    117          6           0       26.285979    3.916149    1.067632
    118          8           0       25.787944    5.024788    1.312415
    119          6           0       25.404457    2.634986    1.062209
    120          6           0       24.623250    2.583062    2.396713
    121          8           0       23.418338    2.474165    2.547954
    122          8           0       25.456252    2.670994    3.491097
    123          6           0       24.834489    2.672380    4.820630
    124          1           0       26.341805   -4.050513   -0.412503
    125          1           0       32.598064   -2.374903   -1.673192
    126          1           0       31.704452    3.510904    0.280837
    127          1           0       24.361067   -0.499741    1.752916
    128          1           0       24.487541   -2.731195   -0.161474
    129          1           0       25.487041   -3.395214    2.410858
    130          1           0       23.979635   -3.903839    1.680614
    131          1           0       23.963518   -2.508581    2.653255
    132          1           0       22.897832    0.496754    0.267284
    133          1           0       22.821521   -0.967415   -0.732080
    134          1           0       24.783840   -0.202449   -1.946000
    135          1           0       24.318345    1.399948   -1.425551
    136          1           0       28.717626   -6.665656   -1.078540
    137          1           0       27.890492   -5.910773   -2.474846
    138          1           0       27.314946   -5.683998   -0.878715
    139          1           0       33.346453   -4.460949   -2.118738
    140          1           0       32.648028   -3.750186   -3.454534
    141          1           0       33.060931   -5.403278   -3.606703
    142          1           0       33.803067    0.013172   -2.266698
    143          1           0       33.713535    1.617294    0.221804
    144          1           0       35.093997   -1.368674   -1.135100
    145          1           0       34.040710   -1.468416    0.148181
    146          1           0       35.102977   -0.010898    0.009233
    147          1           0       32.923250    3.310482   -1.854522
    148          1           0       33.962907    2.144952   -2.775273
    149          1           0       35.666311    3.407540   -2.283914
    150          1           0       35.559931    2.778036   -0.686462
    151          1           0       34.648374    4.367420   -1.200640
    152          1           0       30.360590    5.227405    1.405487
    153          1           0       28.723587    5.824629    1.771387
    154          1           0       29.192397    5.817874    0.070799
    155          1           0       24.527368    2.719886    0.421057
    156          1           0       25.514837    3.164734    5.515738
    157          1           0       24.635251    1.712498    5.296831
    158          1           0       23.842764    3.125113    4.842488
 ---------------------------------------------------------------------

 SCF Done:  E(RPBE1PBE) =  -4067.34861949     A.U. after   19 cycles

 Excitation energies and oscillator strengths:

 Excited State   1:      Singlet-A      1.7897 eV  692.77 nm  f=0.0000  <S**2>=0.000
     312 -> 313        0.70711
 This state for optimization and/or second-order correction.
 Total Energy, E(TD-HF/TD-DFT) =  -4067.28284978
 Copying the excited state density for this state as the 1-particle RhoCI density.

 Excited State   2:      Singlet-A      1.8537 eV  668.86 nm  f=0.3858  <S**2>=0.000
     309 -> 315       -0.15861
     311 -> 313        0.69623
     311 <- 313       -0.12222

 Excited State   3:      Singlet-A      1.8570 eV  667.66 nm  f=0.4135  <S**2>=0.000
     310 -> 316       -0.17271
     312 -> 314        0.69220
     312 <- 314       -0.11158

 Excited State   4:      Singlet-A      2.1461 eV  577.71 nm  f=0.0000  <S**2>=0.000
     311 -> 314        0.70711

 Excited State   5:      Singlet-A      2.2290 eV  556.24 nm  f=0.0892  <S**2>=0.000
     310 -> 314        0.64389
     312 -> 316        0.27281

 The electronic state is 1-A.
 Alpha  occ. eigenvalues --  -46.93725 -46.91254 -19.25495 -19.25051 -19.20325
 Alpha  occ. eigenvalues --  -19.19265 -19.19031 -19.18914 -19.18464 -19.17875
 Alpha  occ. eigenvalues --  -14.42711 -14.42207 -14.41534 -14.41417 -14.40124
 Alpha  occ. eigenvalues --  -14.39615 -14.38717 -14.38091 -10.36747 -10.34941
 Alpha  occ. eigenvalues --  -10.32680 -10.31799 -10.31661 -10.31604 -10.30563
 Alpha  occ. eigenvalues --  -10.29347 -10.29318 -10.29270 -10.28918 -10.28878
 Alpha  occ. eigenvalues --  -10.28837 -10.28698 -10.28698 -10.28606 -10.28584
 Alpha  occ. eigenvalues --  -10.28080 -10.27849 -10.27432 -10.27311 -10.27143
 Alpha  occ. eigenvalues --  -10.27119 -10.27083 -10.27057 -10.26982 -10.26727
 Alpha  occ. eigenvalues --  -10.26342 -10.26315 -10.26174 -10.25979 -10.25929
 Alpha  occ. eigenvalues --  -10.25865 -10.25792 -10.25746 -10.25561 -10.25322
 Alpha  occ. eigenvalues --  -10.25316 -10.25118 -10.25074 -10.25057 -10.25002
 Alpha  occ. eigenvalues --  -10.24904 -10.24823 -10.24821 -10.24810 -10.24775
 Alpha  occ. eigenvalues --  -10.24755 -10.24711 -10.24700 -10.24658 -10.24500
 Alpha  occ. eigenvalues --  -10.24495 -10.24408 -10.24343 -10.24139 -10.23944
 Alpha  occ. eigenvalues --  -10.23683 -10.23594 -10.23537 -10.23403 -10.23190
 Alpha  occ. eigenvalues --  -10.23095 -10.23091 -10.23027 -10.23019 -10.22940
 Alpha  occ. eigenvalues --  -10.22576  -3.15714  -3.13492  -1.88530  -1.88121
 Alpha  occ. eigenvalues --   -1.87902  -1.86349  -1.85869  -1.85717  -1.10866
 Alpha  occ. eigenvalues --   -1.10601  -1.05683  -1.04263  -1.03610  -1.02540
 Alpha  occ. eigenvalues --   -1.02156  -1.01539  -0.99845  -0.99611  -0.99129
 Alpha  occ. eigenvalues --   -0.98789  -0.98214  -0.97936  -0.97138  -0.96989
 Alpha  occ. eigenvalues --   -0.87250  -0.86790  -0.84044  -0.83745  -0.83468
 Alpha  occ. eigenvalues --   -0.83342  -0.83013  -0.82636  -0.82467  -0.82108
 Alpha  occ. eigenvalues --   -0.81871  -0.81244  -0.80985  -0.79769  -0.79020
 Alpha  occ. eigenvalues --   -0.78893  -0.78439  -0.77984  -0.77237  -0.76834
 Alpha  occ. eigenvalues --   -0.76783  -0.76698  -0.75703  -0.75699  -0.75086
 Alpha  occ. eigenvalues --   -0.74573  -0.73117  -0.72863  -0.72107  -0.71722
 Alpha  occ. eigenvalues --   -0.71562  -0.71271  -0.70663  -0.70194  -0.69727
 Alpha  occ. eigenvalues --   -0.69511  -0.67857  -0.67226  -0.66447  -0.66260
 Alpha  occ. eigenvalues --   -0.63991  -0.63668  -0.63286  -0.63259  -0.62770
 Alpha  occ. eigenvalues --   -0.62711  -0.61392  -0.61337  -0.60431  -0.60162
 Alpha  occ. eigenvalues --   -0.60083  -0.59901  -0.59380  -0.59125  -0.59101
 Alpha  occ. eigenvalues --   -0.58745  -0.57850  -0.55992  -0.55418  -0.55058
 Alpha  occ. eigenvalues --   -0.54597  -0.54274  -0.53598  -0.53581  -0.53436
 Alpha  occ. eigenvalues --   -0.53180  -0.52680  -0.52562  -0.51708  -0.51683
 Alpha  occ. eigenvalues --   -0.51034  -0.50962  -0.50317  -0.50274  -0.49999
 Alpha  occ. eigenvalues --   -0.49751  -0.49345  -0.49304  -0.49072  -0.48978
 Alpha  occ. eigenvalues --   -0.48434  -0.48392  -0.48061  -0.47784  -0.47779
 Alpha  occ. eigenvalues --   -0.47508  -0.47354  -0.47136  -0.47123  -0.46894
 Alpha  occ. eigenvalues --   -0.46747  -0.46724  -0.46115  -0.45867  -0.45730
 Alpha  occ. eigenvalues --   -0.45599  -0.45564  -0.45423  -0.45322  -0.45059
 Alpha  occ. eigenvalues --   -0.44861  -0.44799  -0.44549  -0.44523  -0.44203
 Alpha  occ. eigenvalues --   -0.44044  -0.43928  -0.43890  -0.43684  -0.43681
 Alpha  occ. eigenvalues --   -0.43589  -0.43445  -0.43292  -0.43211  -0.43031
 Alpha  occ. eigenvalues --   -0.42848  -0.42406  -0.42402  -0.42131  -0.42117
 Alpha  occ. eigenvalues --   -0.41917  -0.41795  -0.41575  -0.41567  -0.41388
 Alpha  occ. eigenvalues --   -0.41335  -0.41207  -0.41018  -0.40968  -0.40778
 Alpha  occ. eigenvalues --   -0.40690  -0.40508  -0.40084  -0.39896  -0.39850
 Alpha  occ. eigenvalues --   -0.39820  -0.39601  -0.39564  -0.39340  -0.39228
 Alpha  occ. eigenvalues --   -0.39166  -0.39039  -0.38858  -0.38578  -0.38515
 Alpha  occ. eigenvalues --   -0.38514  -0.38062  -0.37661  -0.37624  -0.37536
 Alpha  occ. eigenvalues --   -0.37491  -0.37210  -0.36865  -0.36762  -0.36761
 Alpha  occ. eigenvalues --   -0.36633  -0.36372  -0.36319  -0.36129  -0.35842
 Alpha  occ. eigenvalues --   -0.35804  -0.35720  -0.35586  -0.35282  -0.35076
 Alpha  occ. eigenvalues --   -0.35006  -0.34762  -0.34450  -0.34199  -0.34033
 Alpha  occ. eigenvalues --   -0.33745  -0.33611  -0.33056  -0.32900  -0.32719
 Alpha  occ. eigenvalues --   -0.32291  -0.31909  -0.31857  -0.31594  -0.31333
 Alpha  occ. eigenvalues --   -0.31320  -0.30980  -0.29798  -0.29647  -0.29474
 Alpha  occ. eigenvalues --   -0.29310  -0.29242  -0.27873  -0.27163  -0.26603
 Alpha  occ. eigenvalues --   -0.26403  -0.26050  -0.25874  -0.25335  -0.25186
 Alpha  occ. eigenvalues --   -0.25066  -0.24854  -0.24666  -0.21821  -0.21108
 Alpha  occ. eigenvalues --   -0.19335  -0.18761
 Alpha virt. eigenvalues --   -0.11955  -0.11220  -0.05447  -0.05361  -0.04209
 Alpha virt. eigenvalues --   -0.03581  -0.02379  -0.02058  -0.01710   0.00466
 Alpha virt. eigenvalues --    0.00569   0.00820   0.00824   0.01357   0.01401

 Mulliken charges:
               1
     1  Mg  12.000000
     2  C    6.000000
     3  C    6.000000
     4  C    6.000000
     5  C    6.000000
     6  N    7.000000
     7  C    6.000000
     8  C    6.000000
     9  C    6.000000
    10  C    6.000000
    11  C    6.000000
    12  C    6.000000
    13  C    6.000000
    14  H    1.000000
    15  N    7.000000
    16  C    6.000000
    17  C    6.000000
    18  C    6.000000
    19  C    6.000000
    20  C    6.000000
    21  C    6.000000
    22  O    8.000000
    23  C    6.000000
    24  N    7.000000
    25  C    6.000000
    26  C    6.000000
    27  C    6.000000
    28  C    6.000000
    29  C    6.000000
    30  C    6.000000
    31  C    6.000000
    32  N    7.000000
    33  C    6.000000
    34  C    6.000000
    35  C    6.000000
    36  C    6.000000
    37  C    6.000000
    38  C    6.000000
    39  O    8.000000
    40  C    6.000000
    41  C    6.000000
    42  O    8.000000
    43  O    8.000000
    44  C    6.000000
    45  H    1.000000
    46  H    1.000000
    47  H    1.000000
    48  H    1.000000
    49  H    1.000000
    50  H    1.000000
    51  H    1.000000
    52  H    1.000000
    53  H    1.000000
    54  H    1.000000
    55  H    1.000000
    56  H    1.000000
    57  H    1.000000
    58  H    1.000000
    59  H    1.000000
    60  H    1.000000
    61  H    1.000000
    62  H    1.000000
    63  H    1.000000
    64  H    1.000000
    65  H    1.000000
    66  H    1.000000
    67  H    1.000000
    68  H    1.000000
    69  H    1.000000
    70  H    1.000000
    71  H    1.000000
    72  H    1.000000
    73  H    1.000000
    74  H    1.000000
    75  H    1.000000
    76  H    1.000000
    77  H    1.000000
    78  H    1.000000
    79  H    1.000000
    80  Mg  12.000000
    81  C    6.000000
    82  C    6.000000
    83  C    6.000000
    84  C    6.000000
    85  N    7.000000
    86  C    6.000000
    87  C    6.000000
    88  C    6.000000
    89  C    6.000000
    90  C    6.000000
    91  C    6.000000
    92  C    6.000000
    93  H    1.000000
    94  N    7.000000
    95  C    6.000000
    96  C    6.000000
    97  C    6.000000
    98  C    6.000000
    99  C    6.000000
   100  C    6.000000
   101  O    8.000000
   102  C    6.000000
   103  N    7.000000
   104  C    6.000000
   105  C    6.000000
   106  C    6.000000
   107  C    6.000000
   108  C    6.000000
   109  C    6.000000
   110  C    6.000000
   111  N    7.000000
   112  C    6.000000
   113  C    6.000000
   114  C    6.000000
   115  C    6.000000
   116  C    6.000000
   117  C    6.000000
   118  O    8.000000
   119  C    6.000000
   120  C    6.000000
   121  O    8.000000
   122  O    8.000000
   123  C    6.000000
   124  H    1.000000
   125  H    1.000000
   126  H    1.000000
   127  H    1.000000
   128  H    1.000000
   129  H    1.000000
   130  H    1.000000
   131  H    1.000000
   132  H    1.000000
   133  H    1.000000
   134  H    1.000000
   135  H    1.000000
   136  H    1.000000
   137  H    1.000000
   138  H    1.000000
   139  H    1.000000
   140  H    1.000000
   141  H    1.000000
   142  H    1.000000
   143  H    1.000000
   144  H    1.000000
   145  H    1.000000
   146  H    1.000000
   147  H    1.000000
   148  H    1.000000
   149  H    1.000000
   150  H    1.000000
   151  H    1.000000
   152  H    1.000000
   153  H    1.000000
   154  H    1.000000
   155  H    1.000000
   156  H    1.000000
   157  H    1.000000
   158  H    1.000000
 Sum of Mulliken charges = 624.00000

 Dipole moment (field-independent basis, Debye):
    X=             -0.0000    Y=             -0.0000    Z=             -0.0000  Tot=              0.0000
 Quadrupole moment (field-independent basis, Debye-Ang):
   XX=              0.0000   YY=             -0.0000   ZZ=              0.0000
   XY=              0.0000   XZ=              0.0000   YZ=             -0.0000

 Normal termination of Gaussian 16 at Fri Oct 15 04:12:24 2021.
