 Gaussian 16, Revision A.03,
 Gaussian 16:  ES64L-G16RevA.03 25-Dec-2016

 --------------------------------------------------------
 #p PBE1PBE/Def2SVP td=(nstates=5) density=(transition=1)
 --------------------------------------------------------

 --------------------------------
 TDDFT excited states in gaussian
 --------------------------------
 Symbolic Z-matrix:
 Charge =  0 Multiplicity = 1

                         Standard orientation:
 ---------------------------------------------------------------------
 Center     Atomic      Atomic             Coordinates (Angstroms)
 Number     Number       Type             X           Y           Z
 ---------------------------------------------------------------------
      1         12           0       29.205381    0.183447    0.094979
      2          6           0       26.125085   -1.293216   -0.311359
      3          6           0       27.917941    3.291677   -0.544405
      4          6           0       32.311697    1.683028    0.706101
      5          6           0       30.416209   -2.697748    1.564271
      6          7           0       27.162839    0.864838   -0.160003
      7          6           0       26.037986    0.101249   -0.483618
      8          6           0       24.815817    0.986298   -0.741038
      9          6           0       25.528917    2.344376   -0.962692
     10          6           0       26.975511    2.212767   -0.443875
     11          6           0       25.387557    2.874655   -2.406267
     12          6           0       23.831339    0.981688    0.445192
     13          6           0       22.304483    0.909218    0.097053
     14          1           0       21.387634    1.589145    1.037273
     15          7           0       29.980437    2.157596    0.026230
     16          6           0       29.322612    3.280430   -0.343002
     17          6           0       30.196052    4.395382   -0.556059
     18          6           0       31.502360    3.929561   -0.333830
     19          6           0       31.315700    2.495132    0.137871
     20          6           0       29.746585    5.755081   -1.094784
     21          6           0       32.837577    4.746931   -0.472936
     22          8           0       32.761981    5.974909   -0.733815
     23          6           0       34.284556    4.095488   -0.386320
     24          7           0       31.007552   -0.335972    1.282064
     25          6           0       32.155320    0.383257    1.236811
     26          6           0       33.341206   -0.367492    1.785988
     27          6           0       32.754270   -1.757143    2.114861
     28          6           0       31.320613   -1.623098    1.595202
     29          6           0       34.597296   -0.378327    0.852949
     30          6           0       32.931713   -2.171762    3.652805
     31          6           0       34.015569   -3.224927    3.910545
     32          7           0       28.482963   -1.655505    0.501249
     33          6           0       29.080135   -2.793839    1.086177
     34          6           0       28.192551   -3.950771    0.909416
     35          6           0       27.073379   -3.399492    0.301232
     36          6           0       27.273292   -2.012456    0.206093
     37          6           0       28.382044   -5.373266    1.298313
     38          6           0       25.734424   -3.724083   -0.210949
     39          8           0       25.189591   -4.809074   -0.472869
     40          6           0       25.073206   -2.364909   -0.675632
     41          6           0       24.757116   -2.382125   -2.165161
     42          8           0       25.482839   -2.770881   -3.085802
     43          8           0       23.470021   -1.936364   -2.221460
     44          6           0       22.815300   -2.006113   -3.517073
     45          1           0       27.520661    4.287240   -0.752476
     46          1           0       33.342848    2.008810    0.858284
     47          1           0       30.739644   -3.642246    2.006340
     48          1           0       24.278655    0.621090   -1.616986
     49          1           0       24.978446    3.023098   -0.311290
     50          1           0       24.576218    2.509235   -3.035751
     51          1           0       26.290954    2.552023   -2.923623
     52          1           0       25.303394    3.960629   -2.439868
     53          1           0       23.999770    1.805340    1.138437
     54          1           0       24.150610    0.146298    1.068788
     55          1           0       22.007436   -0.137218    0.028063
     56          1           0       22.145062    1.413533   -0.857047
     57          1           0       30.340034    5.923132   -1.993208
     58          1           0       29.747619    6.488383   -0.288238
     59          1           0       28.725232    5.585194   -1.435367
     60          1           0       34.532069    4.053386    0.673723
     61          1           0       34.956787    4.784143   -0.897608
     62          1           0       34.252472    3.199911   -1.007404
     63          1           0       33.653094    0.126875    2.706093
     64          1           0       33.090697   -2.585413    1.491691
     65          1           0       35.031182   -1.374909    0.776057
     66          1           0       35.380645    0.297181    1.196202
     67          1           0       34.320196    0.026585   -0.119502
     68          1           0       32.032271   -2.626093    4.068160
     69          1           0       33.089094   -1.282412    4.262944
     70          1           0       34.548380   -2.985483    4.830975
     71          1           0       34.722747   -3.235075    3.081430
     72          1           0       33.632317   -4.241126    4.001207
     73          1           0       29.399640   -5.474599    1.675633
     74          1           0       28.019108   -6.027252    0.505171
     75          1           0       27.765057   -5.523437    2.184894
     76          1           0       24.178017   -2.120962   -0.102975
     77          1           0       23.434979   -1.659432   -4.345039
     78          1           0       21.856338   -1.497573   -3.616289
     79          1           0       22.546552   -3.039733   -3.736528
     80         12           0      -29.025185    0.483896    0.439131
     81          6           0      -27.421416   -2.052269   -1.374860
     82          6           0      -28.292072    2.650560   -2.134256
     83          6           0      -30.512470    2.861129    2.179367
     84          6           0      -29.543534   -1.831732    3.029860
     85          7           0      -28.051497    0.238347   -1.535475
     86          6           0      -27.433076   -0.876834   -2.101109
     87          6           0      -27.115132   -0.701968   -3.637987
     88          6           0      -27.271291    0.803240   -3.736310
     89          6           0      -27.927840    1.287171   -2.377819
     90          6           0      -25.844850    1.513710   -3.844733
     91          6           0      -28.323030   -1.440871   -4.368072
     92          6           0      -27.967379   -2.325529   -5.642824
     93          1           0      -26.805902   -1.709316   -6.379925
     94          7           0      -29.212680    2.453278    0.135280
     95          6           0      -28.863051    3.163757   -0.933404
     96          6           0      -29.239210    4.548513   -0.825551
     97          6           0      -30.044933    4.618281    0.328192
     98          6           0      -29.904588    3.266488    0.989486
     99          6           0      -28.908026    5.623971   -1.794267
    100          6           0      -30.959878    5.719374    0.823305
    101          8           0      -31.798372    5.545327    1.714954
    102          6           0      -30.793997    7.146017    0.292488
    103          7           0      -29.866969    0.498208    2.386781
    104          6           0      -30.484800    1.654692    2.800646
    105          6           0      -31.220531    1.367465    4.107770
    106          6           0      -31.016128   -0.207503    4.346525
    107          6           0      -30.145718   -0.584970    3.176805
    108          6           0      -30.718985    2.346552    5.227352
    109          6           0      -32.273169   -1.050380    4.494227
    110          6           0      -32.284231   -1.943659    5.774111
    111          7           0      -28.558099   -1.515768    0.775362
    112          6           0      -28.821219   -2.341669    1.913031
    113          6           0      -28.282929   -3.640066    1.715822
    114          6           0      -27.729278   -3.552294    0.427414
    115          6           0      -27.886703   -2.236179   -0.054355
    116          6           0      -28.313423   -4.852757    2.589258
    117          6           0      -27.046756   -4.275610   -0.597254
    118          8           0      -26.626465   -5.406868   -0.663251
    119          6           0      -26.929714   -3.343623   -1.836396
    120          6           0      -25.534821   -3.392023   -2.345208
    121          8           0      -24.529322   -2.919375   -1.822705
    122          8           0      -25.577223   -4.008177   -3.530513
    123          6           0      -24.333764   -4.100983   -4.266417
    124          1           0      -28.248019    3.403388   -2.923878
    125          1           0      -30.981320    3.694402    2.708765
    126          1           0      -29.736678   -2.599733    3.781828
    127          1           0      -26.178924   -1.237596   -3.792145
    128          1           0      -27.927269    1.060113   -4.567388
    129          1           0      -25.020913    0.801102   -3.802212
    130          1           0      -25.749625    2.216312   -3.017079
    131          1           0      -25.886799    2.043118   -4.796673
    132          1           0      -29.090474   -0.757362   -4.730111
    133          1           0      -28.810808   -2.047320   -3.604477
    134          1           0      -28.751363   -2.244534   -6.395848
    135          1           0      -27.974959   -3.389831   -5.406236
    136          1           0      -29.847563    5.915906   -2.265437
    137          1           0      -28.243174    5.263465   -2.577957
    138          1           0      -28.453401    6.499010   -1.330757
    139          1           0      -31.304325    7.693406    1.084639
    140          1           0      -31.223858    7.303531   -0.697413
    141          1           0      -29.789102    7.567800    0.297537
    142          1           0      -32.295860    1.544861    4.093104
    143          1           0      -30.419358   -0.341187    5.248890
    144          1           0      -31.619154    2.710564    5.722748
    145          1           0      -30.088623    3.155849    4.858729
    146          1           0      -30.280838    1.799764    6.063142
    147          1           0      -32.486782   -1.690485    3.638803
    148          1           0      -33.054162   -0.318888    4.706523
    149          1           0      -31.427621   -1.717778    6.409376
    150          1           0      -32.094617   -2.990138    5.536164
    151          1           0      -33.199803   -1.801840    6.348690
    152          1           0      -29.348828   -5.172747    2.469221
    153          1           0      -28.001972   -4.527757    3.581725
    154          1           0      -27.685557   -5.657201    2.208761
    155          1           0      -27.533819   -3.855500   -2.586675
    156          1           0      -23.564744   -4.556287   -3.641765
    157          1           0      -23.872757   -3.161444   -4.572976
    158          1           0      -24.540347   -4.735874   -5.128196
 ---------------------------------------------------------------------

 SCF Done:  E(RPBE1PBE) =  -4067.41852532     A.U. after   16 cycles

 Excitation energies and oscillator strengths:

 Excited State   1:      Singlet-A      1.8385 eV  674.36 nm  f=0.3472  <S**2>=0.000
     309 -> 315        0.16802
     311 -> 313        0.69269
     311 <- 313       -0.10468
 This state for optimization and/or second-order correction.
 Total Energy, E(TD-HF/TD-DFT) =  -4067.35096046
 Copying the excited state density for this state as the 1-particle RhoCI density.

 Excited State   2:      Singlet-A      1.8615 eV  666.05 nm  f=0.3697  <S**2>=0.000
     310 -> 316       -0.15511
     312 -> 314        0.69389
     312 <- 314       -0.10802

 Excited State   3:      Singlet-A      1.9941 eV  621.76 nm  f=0.0000  <S**2>=0.000
     312 -> 313        0.70711

 Excited State   4:      Singlet-A      2.0246 eV  612.38 nm  f=0.0000  <S**2>=0.000
     311 -> 314        0.70711

 Excited State   5:      Singlet-A      2.2417 eV  553.07 nm  f=0.0972  <S**2>=0.000
     309 -> 313        0.64073
     311 -> 315       -0.28287

 The electronic state is 1-A.
 Alpha  occ. eigenvalues --  -46.92575 -46.91157 -19.27073 -19.25966 -19.20575
 Alpha  occ. eigenvalues --  -19.19898 -19.19696 -19.19120 -19.18907 -19.17885
 Alpha  occ. eigenvalues --  -14.41995 -14.41766 -14.41636 -14.41125 -14.39717
 Alpha  occ. eigenvalues --  -14.39697 -14.38883 -14.38251 -10.37046 -10.35406
 Alpha  occ. eigenvalues --  -10.33695 -10.33129 -10.32112 -10.30509 -10.29717
 Alpha  occ. eigenvalues --  -10.29430 -10.29300 -10.29010 -10.29006 -10.28724
 Alpha  occ. eigenvalues --  -10.28630 -10.28473 -10.28431 -10.28385 -10.28211
 Alpha  occ. eigenvalues --  -10.28075 -10.27938 -10.27800 -10.27716 -10.27015
 Alpha  occ. eigenvalues --  -10.26551 -10.26373 -10.26352 -10.26346 -10.26281
 Alpha  occ. eigenvalues --  -10.26074 -10.25964 -10.25950 -10.25928 -10.25860
 Alpha  occ. eigenvalues --  -10.25806 -10.25749 -10.25719 -10.25702 -10.25447
 Alpha  occ. eigenvalues --  -10.25392 -10.25383 -10.25358 -10.25249 -10.25123
 Alpha  occ. eigenvalues --  -10.25054 -10.25019 -10.24978 -10.24820 -10.24808
 Alpha  occ. eigenvalues --  -10.24706 -10.24632 -10.24614 -10.24420 -10.24402
 Alpha  occ. eigenvalues --  -10.24214 -10.24184 -10.23929 -10.23904 -10.23719
 Alpha  occ. eigenvalues --  -10.23582 -10.23521 -10.23455 -10.23453 -10.23412
 Alpha  occ. eigenvalues --  -10.23403 -10.23233 -10.23177 -10.22933 -10.22605
 Alpha  occ. eigenvalues --  -10.21629  -3.14686  -3.13442  -1.87492  -1.87047
 Alpha  occ. eigenvalues --   -1.86939  -1.86295  -1.85797  -1.85697  -1.11969
 Alpha  occ. eigenvalues --   -1.11682  -1.04837  -1.04346  -1.03252  -1.03132
 Alpha  occ. eigenvalues --   -1.02667  -1.01976  -0.99445  -0.99421  -0.98738
 Alpha  occ. eigenvalues --   -0.98731  -0.98014  -0.97509  -0.97001  -0.96740
 Alpha  occ. eigenvalues --   -0.87159  -0.85872  -0.83831  -0.83174  -0.83097
 Alpha  occ. eigenvalues --   -0.82967  -0.82685  -0.82675  -0.82229  -0.81769
 Alpha  occ. eigenvalues --   -0.81538  -0.81251  -0.80936  -0.80579  -0.78572
 Alpha  occ. eigenvalues --   -0.78278  -0.78219  -0.77840  -0.76787  -0.76550
 Alpha  occ. eigenvalues --   -0.75977  -0.75788  -0.75539  -0.75316  -0.74673
 Alpha  occ. eigenvalues --   -0.74522  -0.73033  -0.72329  -0.71819  -0.71724
 Alpha  occ. eigenvalues --   -0.71116  -0.70981  -0.70240  -0.69938  -0.69613
 Alpha  occ. eigenvalues --   -0.69304  -0.67600  -0.67204  -0.66146  -0.65812
 Alpha  occ. eigenvalues --   -0.63540  -0.63466  -0.63367  -0.63241  -0.62341
 Alpha  occ. eigenvalues --   -0.62060  -0.61784  -0.61570  -0.60570  -0.59802
 Alpha  occ. eigenvalues --   -0.59714  -0.59670  -0.59558  -0.59429  -0.59128
 Alpha  occ. eigenvalues --   -0.59089  -0.57333  -0.57097  -0.55202  -0.54492
 Alpha  occ. eigenvalues --   -0.54185  -0.54184  -0.53706  -0.53548  -0.53216
 Alpha  occ. eigenvalues --   -0.53198  -0.52350  -0.52343  -0.51886  -0.51766
 Alpha  occ. eigenvalues --   -0.51166  -0.50504  -0.50417  -0.50211  -0.49862
 Alpha  occ. eigenvalues --   -0.49808  -0.49575  -0.49028  -0.48445  -0.48407
 Alpha  occ. eigenvalues --   -0.48037  -0.47950  -0.47846  -0.47438  -0.47278
 Alpha  occ. eigenvalues --   -0.47209  -0.47078  -0.46974  -0.46733  -0.46600
 Alpha  occ. eigenvalues --   -0.46405  -0.46141  -0.45963  -0.45900  -0.45741
 Alpha  occ. eigenvalues --   -0.45554  -0.45509  -0.45471  -0.45261  -0.45118
 Alpha  occ. eigenvalues --   -0.44877  -0.44585  -0.44562  -0.44245  -0.44109
 Alpha  occ. eigenvalues --   -0.43967  -0.43819  -0.43678  -0.43294  -0.43205
 Alpha  occ. eigenvalues --   -0.43050  -0.42860  -0.42853  -0.42766  -0.42580
 Alpha  occ. eigenvalues --   -0.42507  -0.42348  -0.42240  -0.42185  -0.42112
 Alpha  occ. eigenvalues --   -0.41985  -0.41888  -0.41526  -0.41506  -0.41334
 Alpha  occ. eigenvalues --   -0.41296  -0.41152  -0.41049  -0.40795  -0.40696
 Alpha  occ. eigenvalues --   -0.40383  -0.40066  -0.40057  -0.39893  -0.39536
 Alpha  occ. eigenvalues --   -0.39521  -0.39297  -0.39287  -0.39189  -0.39063
 Alpha  occ. eigenvalues --   -0.38742  -0.38683  -0.38568  -0.38546  -0.38292
 Alpha  occ. eigenvalues --   -0.38194  -0.38174  -0.37896  -0.37717  -0.37554
 Alpha  occ. eigenvalues --   -0.37429  -0.37320  -0.37255  -0.37131  -0.36987
 Alpha  occ. eigenvalues --   -0.36781  -0.36759  -0.36499  -0.36491  -0.36077
 Alpha  occ. eigenvalues --   -0.35987  -0.35752  -0.35657  -0.35544  -0.35371
 Alpha  occ. eigenvalues --   -0.35003  -0.34669  -0.34655  -0.34241  -0.33713
 Alpha  occ. eigenvalues --   -0.33650  -0.33367  -0.33287  -0.33111  -0.32647
 Alpha  occ. eigenvalues --   -0.32410  -0.32377  -0.31948  -0.31919  -0.31491
 Alpha  occ. eigenvalues --   -0.31468  -0.31337  -0.30049  -0.29752  -0.29470
 Alpha  occ. eigenvalues --   -0.29019  -0.28667  -0.28161  -0.27196  -0.26956
 Alpha  occ. eigenvalues --   -0.26461  -0.26382  -0.26257  -0.25768  -0.25612
 Alpha  occ. eigenvalues --   -0.25398  -0.25297  -0.24610  -0.21084  -0.21012
 Alpha  occ. eigenvalues --   -0.18726  -0.18678
 Alpha virt. eigenvalues --   -0.11122  -0.11059  -0.05533  -0.05317  -0.03993
 Alpha virt. eigenvalues --   -0.03534  -0.02493  -0.01617  -0.01115   0.00237
 Alpha virt. eigenvalues --    0.00553   0.00693   0.01446   0.01761   0.01985

 Mulliken charges:
               1
     1  Mg  12.001010
     2  C    5.973080
     3  C    6.009243
     4  C    6.024400
     5  C    6.000565
     6  N    6.984168
     7  C    6.034647
     8  C    5.992617
     9  C    6.008348
    10  C    5.969586
    11  C    6.002952
    12  C    6.000409
    13  C    5.998657
    14  H    1.003700
    15  N    7.004456
    16  C    5.967343
    17  C    5.979716
    18  C    5.987805
    19  C    5.962566
    20  C    6.001725
    21  C    5.988914
    22  O    7.979255
    23  C    5.997994
    24  N    7.006899
    25  C    5.965221
    26  C    6.010700
    27  C    5.992259
    28  C    6.031608
    29  C    6.000637
    30  C    5.996886
    31  C    5.999431
    32  N    7.000039
    33  C    6.035657
    34  C    6.024096
    35  C    6.003043
    36  C    6.026518
    37  C    5.998229
    38  C    6.017297
    39  O    8.030312
    40  C    6.000486
    41  C    6.005703
    42  O    8.001964
    43  O    8.001762
    44  C    5.998389
    45  H    0.989711
    46  H    0.994655
    47  H    1.012741
    48  H    0.998187
    49  H    0.995019
    50  H    0.987305
    51  H    0.999258
    52  H    1.000798
    53  H    1.008317
    54  H    0.992705
    55  H    0.995276
    56  H    1.003858
    57  H    0.986313
    58  H    0.983833
    59  H    0.985156
    60  H    0.990100
    61  H    0.989421
    62  H    0.991735
    63  H    0.999266
    64  H    0.997529
    65  H    0.990449
    66  H    1.002390
    67  H    1.003442
    68  H    0.996873
    69  H    1.011023
    70  H    1.005268
    71  H    1.005262
    72  H    0.997990
    73  H    1.014715
    74  H    1.015004
    75  H    1.018335
    76  H    1.007391
    77  H    1.004859
    78  H    1.005087
    79  H    1.000438
    80  Mg  11.999979
    81  C    6.000206
    82  C    6.000026
    83  C    5.999765
    84  C    5.999999
    85  N    7.000169
    86  C    5.999702
    87  C    6.000022
    88  C    5.999987
    89  C    6.000130
    90  C    5.999969
    91  C    5.999997
    92  C    6.000024
    93  H    0.999954
    94  N    6.999948
    95  C    6.000225
    96  C    6.000174
    97  C    6.000043
    98  C    6.000337
    99  C    5.999962
   100  C    6.000088
   101  O    8.000215
   102  C    5.999957
   103  N    6.999933
   104  C    6.000274
   105  C    5.999913
   106  C    6.000092
   107  C    5.999799
   108  C    5.999971
   109  C    6.000044
   110  C    6.000003
   111  N    7.000001
   112  C    5.999756
   113  C    5.999848
   114  C    5.999907
   115  C    5.999806
   116  C    5.999992
   117  C    5.999916
   118  O    7.999736
   119  C    5.999962
   120  C    5.999986
   121  O    7.999939
   122  O    7.999988
   123  C    6.000020
   124  H    1.000095
   125  H    1.000035
   126  H    0.999890
   127  H    1.000016
   128  H    1.000025
   129  H    1.000086
   130  H    0.999972
   131  H    1.000036
   132  H    0.999937
   133  H    1.000048
   134  H    0.999985
   135  H    1.000019
   136  H    1.000144
   137  H    1.000114
   138  H    1.000143
   139  H    1.000109
   140  H    1.000072
   141  H    1.000065
   142  H    1.000017
   143  H    0.999972
   144  H    1.000024
   145  H    0.999955
   146  H    1.000057
   147  H    1.000004
   148  H    0.999921
   149  H    0.999978
   150  H    1.000015
   151  H    0.999962
   152  H    0.999893
   153  H    0.999891
   154  H    0.999891
   155  H    0.999968
   156  H    0.999973
   157  H    0.999956
   158  H    0.999969
 Sum of Mulliken charges = 624.00000

 Dipole moment (field-independent basis, Debye):
    X=             -3.1377    Y=             -9.3443    Z=              1.5568  Tot=              9.9793
 Quadrupole moment (field-independent basis, Debye-Ang):
   XX=           -181.4294   YY=             -4.1956   ZZ=              2.3027
   XY=           -278.6551   XZ=             48.9525   YZ=             -0.4278

 Normal termination of Gaussian 16 at Fri Oct 15 16:50:46 2021.
