 Gaussian 16, Revision A.03,
 Gaussian 16:  ES64L-G16RevA.03 25-Dec-2016

 --------------------------------------------------------
 #p PBE1PBE/Def2SVP td=(nstates=5) density=(transition=1)
 --------------------------------------------------------

 --------------------------------
 TDDFT excited states in gaussian
 --------------------------------
 Symbolic Z-matrix:
 Charge =  0 Multiplicity = 1

                         Standard orientation:
 ---------------------------------------------------------------------
 Center     Atomic      Atomic             Coordinates (Angstroms)
 Number     Number       Type             X           Y           Z
 ---------------------------------------------------------------------
      1         12           0       21.363176   -0.083966    0.719787
      2          6           0       17.898906   -0.526189    0.085963
      3          6           0       21.848400   -3.308845   -0.517886
      4          6           0       24.496094    0.787377    0.208195
      5          6           0       20.519301    3.355890    1.646737
      6          7           0       19.983902   -1.662012   -0.372544
      7          6           0       18.634459   -1.692968   -0.241549
      8          6           0       18.124923   -3.073196   -0.615981
      9          6           0       19.273573   -4.008152   -0.236924
     10          6           0       20.472472   -2.946998   -0.435915
     11          6           0       19.318079   -4.571586    1.184660
     12          6           0       17.660860   -3.075892   -2.137650
     13          6           0       16.363539   -3.758022   -2.328925
     14          1           0       16.215269   -4.678188   -3.556230
     15          7           0       23.014546   -1.098981   -0.107924
     16          6           0       23.019115   -2.464660   -0.485933
     17          6           0       24.371839   -2.773777   -0.875490
     18          6           0       25.217695   -1.664520   -0.609204
     19          6           0       24.281166   -0.569137   -0.171120
     20          6           0       24.727937   -4.152524   -1.422467
     21          6           0       26.670363   -1.590603   -0.869679
     22          8           0       27.234445   -2.566926   -1.347940
     23          6           0       27.556336   -0.400379   -0.699481
     24          7           0       22.343682    1.923649    0.829154
     25          6           0       23.688298    1.869890    0.752456
     26          6           0       24.310978    3.215034    1.168029
     27          6           0       23.047272    4.034197    1.794285
     28          6           0       21.888637    3.059556    1.459381
     29          6           0       25.608779    3.089255    2.086431
     30          6           0       22.854553    5.486966    1.257246
     31          6           0       21.795996    5.711180    0.124092
     32          7           0       19.668717    1.144880    0.856163
     33          6           0       19.495124    2.483682    1.309301
     34          6           0       18.000053    2.748310    1.478150
     35          6           0       17.413315    1.605134    0.959385
     36          6           0       18.459134    0.673602    0.620790
     37          6           0       17.209116    3.961090    2.005225
     38          6           0       16.161896    0.962843    0.710362
     39          8           0       15.013079    1.326337    0.967624
     40          6           0       16.496895   -0.311759    0.021588
     41          6           0       16.044967   -0.048909   -1.433151
     42          8           0       16.640962    0.596795   -2.292701
     43          8           0       14.757085   -0.633906   -1.584201
     44          6           0       14.069890   -0.428014   -2.794040
     45          1           0       22.062174   -4.340631   -0.805001
     46          1           0       25.578829    0.922403    0.169747
     47          1           0       20.164092    4.304442    2.053125
     48          1           0       17.292462   -3.408105    0.002665
     49          1           0       19.460312   -4.914974   -0.811020
     50          1           0       18.361858   -4.528166    1.705262
     51          1           0       20.187205   -4.208549    1.733774
     52          1           0       19.496544   -5.632220    1.003955
     53          1           0       18.397314   -3.625903   -2.723602
     54          1           0       17.708468   -2.100491   -2.621943
     55          1           0       15.676626   -2.913161   -2.363281
     56          1           0       16.165472   -4.367019   -1.447014
     57          1           0       25.262759   -4.770277   -0.701309
     58          1           0       25.266570   -4.026573   -2.360536
     59          1           0       23.822208   -4.705106   -1.672702
     60          1           0       27.642074   -0.190677    0.366998
     61          1           0       27.239070    0.507002   -1.214849
     62          1           0       28.597411   -0.642327   -0.909839
     63          1           0       24.556117    3.673856    0.210409
     64          1           0       23.128022    4.015216    2.880601
     65          1           0       26.099861    2.127025    1.941992
     66          1           0       25.532750    3.328276    3.147844
     67          1           0       26.188413    3.964931    1.790171
     68          1           0       23.790606    5.933908    0.923346
     69          1           0       22.495223    6.009263    2.143589
     70          1           0       22.325679    6.535250   -0.354440
     71          1           0       20.797563    6.041548    0.411439
     72          1           0       21.797471    4.822297   -0.507104
     73          1           0       16.578130    3.680009    2.847682
     74          1           0       16.532416    4.047849    1.155670
     75          1           0       17.905125    4.795489    2.088745
     76          1           0       15.894536   -1.118972    0.438483
     77          1           0       13.083743   -0.891584   -2.841641
     78          1           0       14.677809   -0.857222   -3.589480
     79          1           0       13.974013    0.654698   -2.880331
     80         12           0      -20.816094    0.614433    0.232941
     81          6           0      -19.943554   -2.751859    0.220336
     82          6           0      -17.501106    1.363025   -0.455641
     83          6           0      -21.590610    3.778512   -0.327366
     84          6           0      -24.154633   -0.278722    0.419905
     85          7           0      -18.981235   -0.547330   -0.240240
     86          6           0      -18.830954   -1.905342   -0.047595
     87          6           0      -17.403497   -2.354146   -0.153654
     88          6           0      -16.622038   -0.976709    0.011520
     89          6           0      -17.730933    0.025589   -0.280041
     90          6           0      -15.677156   -0.680704    1.271152
     91          6           0      -17.049412   -3.209966   -1.456807
     92          6           0      -17.828991   -2.890962   -2.767126
     93          1           0      -16.976383   -2.893750   -4.013180
     94          7           0      -19.724535    2.328043   -0.433065
     95          6           0      -18.344226    2.426090   -0.648363
     96          6           0      -17.974309    3.735379   -1.111573
     97          6           0      -19.177713    4.480287   -1.107994
     98          6           0      -20.253980    3.555157   -0.643520
     99          6           0      -16.499618    4.125555   -1.223311
    100          6           0      -19.210832    5.975102   -1.499865
    101          8           0      -18.211695    6.563506   -1.925624
    102          6           0      -20.488986    6.669391   -1.282111
    103          7           0      -22.648858    1.530592   -0.041030
    104          6           0      -22.682172    2.913756    0.015791
    105          6           0      -24.112815    3.476399    0.165469
    106          6           0      -24.899654    2.101971    0.161426
    107          6           0      -23.872879    1.059030    0.129482
    108          6           0      -24.444730    4.338394    1.342430
    109          6           0      -25.866626    1.935663   -1.117533
    110          6           0      -27.227705    1.436943   -0.707381
    111          7           0      -21.896748   -1.146293    0.505504
    112          6           0      -23.262825   -1.351405    0.562649
    113          6           0      -23.549698   -2.796733    0.709419
    114          6           0      -22.248225   -3.395592    0.581594
    115          6           0      -21.321926   -2.353361    0.459023
    116          6           0      -24.830391   -3.527026    0.672704
    117          6           0      -21.465038   -4.644409    0.468275
    118          8           0      -21.850870   -5.789652    0.424243
    119          6           0      -19.958377   -4.278255    0.274016
    120          6           0      -19.144707   -4.905236    1.316297
    121          8           0      -18.240122   -5.735285    1.222715
    122          8           0      -19.768675   -4.609043    2.556519
    123          6           0      -19.063996   -5.108614    3.756587
    124          1           0      -16.428775    1.568075   -0.416335
    125          1           0      -21.940665    4.812298   -0.296330
    126          1           0      -25.225309   -0.446482    0.549430
    127          1           0      -17.159026   -3.030445    0.665389
    128          1           0      -15.977571   -1.012998   -0.867161
    129          1           0      -15.527890   -1.513237    1.958462
    130          1           0      -16.056364    0.099433    1.931090
    131          1           0      -14.655979   -0.522734    0.923159
    132          1           0      -17.099650   -4.276439   -1.239708
    133          1           0      -15.986091   -3.053149   -1.637909
    134          1           0      -18.351234   -1.937506   -2.682168
    135          1           0      -18.595773   -3.647223   -2.932826
    136          1           0      -16.296253    4.859257   -2.003967
    137          1           0      -15.923508    3.256008   -1.538589
    138          1           0      -16.232319    4.547969   -0.254406
    139          1           0      -20.647900    6.772176   -0.209080
    140          1           0      -21.293814    6.121726   -1.773437
    141          1           0      -20.354248    7.652424   -1.733234
    142          1           0      -24.384440    3.929382   -0.788298
    143          1           0      -25.312295    2.068050    1.169711
    144          1           0      -25.530888    4.431295    1.343789
    145          1           0      -24.073066    5.338419    1.118926
    146          1           0      -24.019182    3.919686    2.255174
    147          1           0      -25.352239    1.263778   -1.804490
    148          1           0      -25.985613    2.804237   -1.766474
    149          1           0      -27.333976    0.417447   -1.077326
    150          1           0      -28.031374    1.913519   -1.269694
    151          1           0      -27.285696    1.373543    0.379036
    152          1           0      -25.725303   -2.912533    0.563882
    153          1           0      -24.921192   -4.015585    1.642219
    154          1           0      -24.723948   -4.056400   -0.273938
    155          1           0      -19.709610   -4.667960   -0.712796
    156          1           0      -19.103056   -4.241065    4.416319
    157          1           0      -18.029182   -5.446728    3.701654
    158          1           0      -19.773217   -5.796334    4.217555
 ---------------------------------------------------------------------

 SCF Done:  E(RPBE1PBE) =  -4067.33198513     A.U. after   16 cycles

 Excitation energies and oscillator strengths:

 Excited State   1:      Singlet-A      1.8406 eV  673.62 nm  f=0.3479  <S**2>=0.000
     309 -> 315       -0.18898
     312 -> 314        0.68688
 This state for optimization and/or second-order correction.
 Total Energy, E(TD-HF/TD-DFT) =  -4067.26434535
 Copying the excited state density for this state as the 1-particle RhoCI density.

 Excited State   2:      Singlet-A      1.8711 eV  662.62 nm  f=0.3576  <S**2>=0.000
     310 -> 316        0.17704
     311 -> 313        0.68981
     311 <- 313       -0.10397

 Excited State   3:      Singlet-A      1.9812 eV  625.81 nm  f=0.0000  <S**2>=0.000
     312 -> 313        0.70711

 Excited State   4:      Singlet-A      2.0308 eV  610.53 nm  f=0.0000  <S**2>=0.000
     311 -> 314        0.70710

 Excited State   5:      Singlet-A      2.1946 eV  564.95 nm  f=0.0643  <S**2>=0.000
     309 -> 314        0.63434
     312 -> 315        0.29982

 The electronic state is 1-A.
 Alpha  occ. eigenvalues --  -46.94680 -46.92484 -19.25356 -19.25004 -19.21579
 Alpha  occ. eigenvalues --  -19.20747 -19.19162 -19.19096 -19.19078 -19.17828
 Alpha  occ. eigenvalues --  -14.41874 -14.41739 -14.41670 -14.41504 -14.39860
 Alpha  occ. eigenvalues --  -14.39451 -14.39232 -14.38874 -10.37640 -10.36726
 Alpha  occ. eigenvalues --  -10.32339 -10.32160 -10.31622 -10.31290 -10.29627
 Alpha  occ. eigenvalues --  -10.29317 -10.29228 -10.29205 -10.28992 -10.28950
 Alpha  occ. eigenvalues --  -10.28698 -10.28601 -10.28515 -10.28253 -10.28239
 Alpha  occ. eigenvalues --  -10.28231 -10.27942 -10.27889 -10.27876 -10.27063
 Alpha  occ. eigenvalues --  -10.27000 -10.26912 -10.26705 -10.26642 -10.26456
 Alpha  occ. eigenvalues --  -10.26366 -10.26331 -10.26280 -10.26224 -10.26188
 Alpha  occ. eigenvalues --  -10.26022 -10.25971 -10.25907 -10.25896 -10.25866
 Alpha  occ. eigenvalues --  -10.25722 -10.25665 -10.25558 -10.25455 -10.25341
 Alpha  occ. eigenvalues --  -10.25307 -10.25193 -10.25166 -10.24938 -10.24886
 Alpha  occ. eigenvalues --  -10.24841 -10.24750 -10.24735 -10.24586 -10.24541
 Alpha  occ. eigenvalues --  -10.24531 -10.24413 -10.24350 -10.24295 -10.23851
 Alpha  occ. eigenvalues --  -10.23812 -10.23684 -10.23610 -10.23329 -10.23261
 Alpha  occ. eigenvalues --  -10.23207 -10.23200 -10.23105 -10.23096 -10.22767
 Alpha  occ. eigenvalues --  -10.22642  -3.16469  -3.14590  -1.89246  -1.88893
 Alpha  occ. eigenvalues --   -1.88644  -1.87414  -1.86979  -1.86805  -1.10540
 Alpha  occ. eigenvalues --   -1.09529  -1.05174  -1.04264  -1.04126  -1.04014
 Alpha  occ. eigenvalues --   -1.03439  -1.01713  -0.99677  -0.98796  -0.98346
 Alpha  occ. eigenvalues --   -0.98055  -0.97832  -0.97470  -0.96952  -0.95972
 Alpha  occ. eigenvalues --   -0.88745  -0.86812  -0.83945  -0.83507  -0.83430
 Alpha  occ. eigenvalues --   -0.83008  -0.82268  -0.82083  -0.81938  -0.81545
 Alpha  occ. eigenvalues --   -0.81237  -0.81168  -0.80422  -0.79900  -0.79057
 Alpha  occ. eigenvalues --   -0.79026  -0.78754  -0.77937  -0.76969  -0.76941
 Alpha  occ. eigenvalues --   -0.76565  -0.75862  -0.75181  -0.75135  -0.74615
 Alpha  occ. eigenvalues --   -0.74487  -0.72678  -0.72352  -0.71769  -0.71576
 Alpha  occ. eigenvalues --   -0.71188  -0.71082  -0.70499  -0.70328  -0.70083
 Alpha  occ. eigenvalues --   -0.69570  -0.67171  -0.67102  -0.66569  -0.66312
 Alpha  occ. eigenvalues --   -0.64264  -0.63736  -0.63654  -0.63161  -0.62573
 Alpha  occ. eigenvalues --   -0.61687  -0.61239  -0.61235  -0.60854  -0.59829
 Alpha  occ. eigenvalues --   -0.59439  -0.59357  -0.59203  -0.59092  -0.59064
 Alpha  occ. eigenvalues --   -0.58536  -0.57063  -0.56757  -0.54783  -0.54474
 Alpha  occ. eigenvalues --   -0.54317  -0.53969  -0.53905  -0.53531  -0.53284
 Alpha  occ. eigenvalues --   -0.52908  -0.52882  -0.52103  -0.51762  -0.51580
 Alpha  occ. eigenvalues --   -0.50880  -0.50643  -0.50566  -0.50351  -0.50227
 Alpha  occ. eigenvalues --   -0.49893  -0.49628  -0.49422  -0.49140  -0.49101
 Alpha  occ. eigenvalues --   -0.48369  -0.48281  -0.47946  -0.47639  -0.47597
 Alpha  occ. eigenvalues --   -0.47308  -0.47248  -0.47014  -0.46731  -0.46710
 Alpha  occ. eigenvalues --   -0.46480  -0.46470  -0.46248  -0.46197  -0.45977
 Alpha  occ. eigenvalues --   -0.45804  -0.45708  -0.45378  -0.45160  -0.45048
 Alpha  occ. eigenvalues --   -0.44777  -0.44773  -0.44497  -0.44288  -0.44197
 Alpha  occ. eigenvalues --   -0.44013  -0.43869  -0.43796  -0.43602  -0.43475
 Alpha  occ. eigenvalues --   -0.43174  -0.43147  -0.42932  -0.42917  -0.42778
 Alpha  occ. eigenvalues --   -0.42509  -0.42392  -0.42201  -0.41886  -0.41837
 Alpha  occ. eigenvalues --   -0.41634  -0.41619  -0.41233  -0.40966  -0.40914
 Alpha  occ. eigenvalues --   -0.40795  -0.40627  -0.40595  -0.40530  -0.40450
 Alpha  occ. eigenvalues --   -0.40179  -0.40137  -0.40072  -0.39897  -0.39878
 Alpha  occ. eigenvalues --   -0.39794  -0.39694  -0.39503  -0.39398  -0.39292
 Alpha  occ. eigenvalues --   -0.39222  -0.38913  -0.38723  -0.38545  -0.38317
 Alpha  occ. eigenvalues --   -0.38265  -0.38130  -0.37940  -0.37823  -0.37816
 Alpha  occ. eigenvalues --   -0.37676  -0.37317  -0.37253  -0.36998  -0.36988
 Alpha  occ. eigenvalues --   -0.36767  -0.36588  -0.36510  -0.36409  -0.36147
 Alpha  occ. eigenvalues --   -0.36083  -0.35854  -0.35760  -0.35353  -0.35318
 Alpha  occ. eigenvalues --   -0.34945  -0.34857  -0.34066  -0.34044  -0.33505
 Alpha  occ. eigenvalues --   -0.33505  -0.33280  -0.32951  -0.32894  -0.32620
 Alpha  occ. eigenvalues --   -0.32430  -0.31943  -0.31589  -0.31585  -0.31304
 Alpha  occ. eigenvalues --   -0.30788  -0.30553  -0.30294  -0.30027  -0.29699
 Alpha  occ. eigenvalues --   -0.29436  -0.28961  -0.28877  -0.26903  -0.26750
 Alpha  occ. eigenvalues --   -0.26245  -0.25875  -0.25864  -0.25738  -0.25520
 Alpha  occ. eigenvalues --   -0.25331  -0.25232  -0.24845  -0.20992  -0.20991
 Alpha  occ. eigenvalues --   -0.18857  -0.18748
 Alpha virt. eigenvalues --   -0.11151  -0.11078  -0.05997  -0.05703  -0.04372
 Alpha virt. eigenvalues --   -0.03521  -0.03138  -0.02185  -0.01946  -0.01103
 Alpha virt. eigenvalues --   -0.00493   0.00109   0.00794   0.00809   0.01684

 Mulliken charges:
               1
     1  Mg  11.998044
     2  C    5.982183
     3  C    6.012378
     4  C    6.013583
     5  C    5.985166
     6  N    6.996582
     7  C    6.024683
     8  C    5.996642
     9  C    6.001756
    10  C    5.972130
    11  C    6.001209
    12  C    5.995326
    13  C    5.999147
    14  H    1.006308
    15  N    7.009553
    16  C    5.958320
    17  C    5.981927
    18  C    5.987796
    19  C    5.968993
    20  C    6.004313
    21  C    5.990374
    22  O    7.978054
    23  C    6.002639
    24  N    6.996529
    25  C    5.970249
    26  C    6.010760
    27  C    5.987863
    28  C    6.035075
    29  C    6.003105
    30  C    6.001001
    31  C    5.992242
    32  N    6.997462
    33  C    6.042490
    34  C    6.027704
    35  C    6.000576
    36  C    6.026273
    37  C    6.001667
    38  C    6.019324
    39  O    8.030748
    40  C    5.997301
    41  C    6.002677
    42  O    8.005726
    43  O    8.001567
    44  C    5.997943
    45  H    0.991128
    46  H    0.996459
    47  H    1.009186
    48  H    0.998486
    49  H    0.999679
    50  H    0.986691
    51  H    1.002199
    52  H    0.998353
    53  H    1.011798
    54  H    0.997349
    55  H    0.994364
    56  H    1.002767
    57  H    0.981818
    58  H    0.985395
    59  H    0.983572
    60  H    0.989318
    61  H    0.989042
    62  H    0.988807
    63  H    0.999345
    64  H    1.004237
    65  H    1.008268
    66  H    0.994140
    67  H    0.995491
    68  H    1.009370
    69  H    1.000087
    70  H    1.008184
    71  H    0.996159
    72  H    1.001739
    73  H    1.015904
    74  H    1.011866
    75  H    1.014695
    76  H    1.009180
    77  H    1.004343
    78  H    1.005811
    79  H    0.999383
    80  Mg  12.000034
    81  C    5.999597
    82  C    6.000107
    83  C    6.000468
    84  C    5.999932
    85  N    6.999924
    86  C    6.000540
    87  C    5.999834
    88  C    6.000239
    89  C    5.999459
    90  C    6.000071
    91  C    5.999972
    92  C    5.999913
    93  H    1.000109
    94  N    7.000115
    95  C    5.999302
    96  C    5.999708
    97  C    5.999760
    98  C    5.999335
    99  C    6.000007
   100  C    5.999777
   101  O    7.999578
   102  C    6.000049
   103  N    7.000057
   104  C    5.999332
   105  C    6.000295
   106  C    5.999760
   107  C    6.000590
   108  C    6.000038
   109  C    5.999916
   110  C    6.000000
   111  N    6.999915
   112  C    6.000601
   113  C    6.000609
   114  C    6.000096
   115  C    6.000515
   116  C    5.999973
   117  C    6.000313
   118  O    8.000532
   119  C    5.999961
   120  C    6.000148
   121  O    8.000142
   122  O    7.999931
   123  C    5.999964
   124  H    0.999661
   125  H    0.999918
   126  H    1.000282
   127  H    0.999968
   128  H    0.999852
   129  H    0.999736
   130  H    0.999992
   131  H    0.999838
   132  H    0.999940
   133  H    1.000074
   134  H    1.000142
   135  H    0.999930
   136  H    0.999693
   137  H    0.999694
   138  H    0.999619
   139  H    0.999841
   140  H    0.999869
   141  H    0.999777
   142  H    0.999998
   143  H    1.000050
   144  H    0.999902
   145  H    1.000085
   146  H    0.999911
   147  H    1.000000
   148  H    1.000249
   149  H    0.999952
   150  H    1.000143
   151  H    1.000020
   152  H    1.000356
   153  H    1.000346
   154  H    1.000311
   155  H    1.000133
   156  H    1.000064
   157  H    1.000077
   158  H    1.000059
 Sum of Mulliken charges = 624.00000

 Dipole moment (field-independent basis, Debye):
    X=             -8.1670    Y=              5.3778    Z=              2.0193  Tot=              9.9849
 Quadrupole moment (field-independent basis, Debye-Ang):
   XX=           -335.6682   YY=              0.1647   ZZ=              2.2509
   XY=            121.9044   XZ=             42.0749   YZ=              2.7403

 Normal termination of Gaussian 16 at Thu Oct 14 18:07:29 2021.
