 Gaussian 16, Revision A.03,
 Gaussian 16:  ES64L-G16RevA.03 25-Dec-2016

 --------------------------------------------------------
 #p PBE1PBE/Def2SVP td=(nstates=5) density=(transition=1)
 --------------------------------------------------------

 --------------------------------
 TDDFT excited states in gaussian
 --------------------------------
 Symbolic Z-matrix:
 Charge =  0 Multiplicity = 1

                         Standard orientation:
 ---------------------------------------------------------------------
 Center     Atomic      Atomic             Coordinates (Angstroms)
 Number     Number       Type             X           Y           Z
 ---------------------------------------------------------------------
      1         12           0      -15.543055    0.662690    0.342695
      2          6           0      -15.385392   -2.373408   -1.331111
      3          6           0      -13.166125    1.924726   -1.689937
      4          6           0      -15.658943    3.480270    2.146218
      5          6           0      -17.887210   -0.788205    2.501819
      6          7           0      -14.455055   -0.200882   -1.347270
      7          6           0      -14.595700   -1.375925   -1.912729
      8          6           0      -13.615462   -1.423471   -3.173817
      9          6           0      -12.568839   -0.454025   -2.666657
     10          6           0      -13.451414    0.549095   -1.857869
     11          6           0      -11.484218   -1.207192   -1.866628
     12          6           0      -14.418184   -1.153571   -4.518454
     13          6           0      -13.712186   -1.634147   -5.790061
     14          1           0      -12.264526   -2.084664   -5.697857
     15          7           0      -14.694952    2.488096    0.137358
     16          6           0      -13.770502    2.834985   -0.845086
     17          6           0      -13.574506    4.314140   -0.775491
     18          6           0      -14.267038    4.792368    0.417077
     19          6           0      -14.831396    3.529719    0.963561
     20          6           0      -12.730370    5.075386   -1.770061
     21          6           0      -14.457831    6.264773    1.008593
     22          8           0      -15.145526    6.520605    2.002832
     23          6           0      -13.755363    7.384684    0.269710
     24          7           0      -16.502346    1.213007    2.091628
     25          6           0      -16.390700    2.413467    2.653922
     26          6           0      -17.149684    2.517734    4.012739
     27          6           0      -18.011247    1.249114    3.936272
     28          6           0      -17.496758    0.511009    2.740535
     29          6           0      -16.232026    2.598834    5.264545
     30          6           0      -19.593816    1.399268    4.044708
     31          6           0      -20.384533    1.281299    2.783325
     32          7           0      -16.323865   -1.240563    0.712926
     33          6           0      -17.293601   -1.666283    1.556896
     34          6           0      -17.588222   -3.047957    1.418652
     35          6           0      -16.841810   -3.396816    0.249349
     36          6           0      -16.139765   -2.262300   -0.088187
     37          6           0      -18.437095   -4.022110    2.193672
     38          6           0      -16.508451   -4.415473   -0.701237
     39          8           0      -16.851689   -5.573536   -0.803039
     40          6           0      -15.677661   -3.783390   -1.863186
     41          6           0      -14.478669   -4.591359   -2.105519
     42          8           0      -13.618835   -4.759204   -1.254114
     43          8           0      -14.501445   -5.297316   -3.335513
     44          6           0      -13.376262   -6.214816   -3.574200
     45          1           0      -12.349831    2.273622   -2.324099
     46          1           0      -15.641081    4.397664    2.736974
     47          1           0      -18.582568   -1.219988    3.224181
     48          1           0      -13.231861   -2.434541   -3.303721
     49          1           0      -12.102415    0.151155   -3.443625
     50          1           0      -10.607977   -1.090330   -2.505205
     51          1           0      -11.715846   -2.263635   -1.724810
     52          1           0      -11.316981   -0.618513   -0.964906
     53          1           0      -14.599349   -0.085057   -4.638273
     54          1           0      -15.324598   -1.752446   -4.426756
     55          1           0      -13.787094   -0.821282   -6.511721
     56          1           0      -14.309677   -2.453272   -6.189485
     57          1           0      -12.786538    4.629855   -2.763918
     58          1           0      -11.675908    5.206634   -1.529371
     59          1           0      -13.157944    6.070611   -1.890831
     60          1           0      -12.726196    7.033499    0.198832
     61          1           0      -13.722184    8.332375    0.806406
     62          1           0      -14.249192    7.563556   -0.685543
     63          1           0      -17.776937    3.408254    4.050041
     64          1           0      -17.642581    0.603677    4.732678
     65          1           0      -16.695301    1.936930    5.996631
     66          1           0      -16.068746    3.585832    5.694518
     67          1           0      -15.234535    2.276694    4.965528
     68          1           0      -19.814530    2.318031    4.588209
     69          1           0      -19.986445    0.568205    4.630165
     70          1           0      -20.964366    0.360337    2.848772
     71          1           0      -19.816263    1.069467    1.876783
     72          1           0      -21.101637    2.086083    2.621134
     73          1           0      -18.858942   -3.579405    3.096669
     74          1           0      -17.863444   -4.933815    2.362976
     75          1           0      -19.365501   -4.342147    1.720170
     76          1           0      -16.250459   -3.731560   -2.788722
     77          1           0      -13.314304   -6.614978   -4.585894
     78          1           0      -13.556573   -7.015138   -2.855999
     79          1           0      -12.488312   -5.668250   -3.258717
     80         12           0       15.700272    0.375833   -0.831008
     81          6           0       15.514666   -2.894114    0.565465
     82          6           0       12.494617    0.036038   -1.989051
     83          6           0       15.528271    3.848435   -1.229143
     84          6           0       18.730488    0.861607    0.880797
     85          7           0       14.091987   -1.271459   -0.441486
     86          6           0       14.304437   -2.548816   -0.085156
     87          6           0       13.184114   -3.415524   -0.630369
     88          6           0       12.150133   -2.467030   -1.407658
     89          6           0       13.081542   -1.151519   -1.385753
     90          6           0       11.915013   -3.041417   -2.822782
     91          6           0       12.513219   -4.199097    0.486322
     92          6           0       12.332583   -3.471100    1.839534
     93          1           0       10.890778   -3.028362    2.210293
     94          7           0       14.223683    1.777698   -1.610951
     95          6           0       12.967454    1.373504   -2.007442
     96          6           0       12.363730    2.520274   -2.610278
     97          6           0       13.156568    3.700212   -2.340479
     98          6           0       14.401175    3.159867   -1.737355
     99          6           0       10.968078    2.496067   -3.189307
    100          6           0       12.744369    5.164942   -2.495564
    101          8           0       11.617729    5.444962   -2.857202
    102          6           0       13.619429    6.264700   -2.219547
    103          7           0       16.891784    2.126114   -0.172391
    104          6           0       16.679860    3.364756   -0.591982
    105          6           0       17.707422    4.359810   -0.077683
    106          6           0       18.521363    3.414606    0.907050
    107          6           0       18.093728    2.052105    0.495455
    108          6           0       18.617802    5.009033   -1.230933
    109          6           0       18.235843    3.812902    2.427921
    110          6           0       19.318441    4.421944    3.273239
    111          7           0       16.974778   -0.775399    0.212885
    112          6           0       18.243903   -0.473950    0.747622
    113          6           0       18.877685   -1.686553    1.298032
    114          6           0       17.837329   -2.610771    1.204026
    115          6           0       16.639120   -2.029288    0.660002
    116          6           0       20.358932   -1.920739    1.755227
    117          6           0       17.512161   -4.005028    1.521344
    118          8           0       18.166195   -4.938586    2.014916
    119          6           0       16.023199   -4.260669    1.115328
    120          6           0       15.448624   -4.572831    2.453928
    121          8           0       15.475391   -3.841608    3.410479
    122          8           0       15.013368   -5.829220    2.481437
    123          6           0       14.312489   -6.340902    3.710616
    124          1           0       11.617265   -0.158968   -2.609038
    125          1           0       15.640465    4.927726   -1.350021
    126          1           0       19.607035    1.145764    1.467685
    127          1           0       13.786217   -4.071147   -1.259484
    128          1           0       11.212677   -2.337384   -0.866199
    129          1           0       10.852807   -3.262045   -2.926431
    130          1           0       12.437433   -3.976949   -3.024333
    131          1           0       12.182744   -2.243185   -3.514538
    132          1           0       13.084700   -5.104817    0.689441
    133          1           0       11.498208   -4.477599    0.201477
    134          1           0       12.803685   -2.495360    1.957442
    135          1           0       12.716307   -4.175375    2.577765
    136          1           0       10.488428    1.526671   -3.051607
    137          1           0       11.035834    2.832795   -4.224344
    138          1           0       10.407883    3.300412   -2.713823
    139          1           0       13.936697    6.361218   -1.180996
    140          1           0       13.119410    7.196651   -2.482577
    141          1           0       14.490953    6.035659   -2.833762
    142          1           0       17.290408    5.140518    0.557971
    143          1           0       19.541225    3.754578    0.726149
    144          1           0       18.276203    4.657060   -2.204781
    145          1           0       19.633081    4.640299   -1.083600
    146          1           0       18.695816    6.097308   -1.223701
    147          1           0       18.021120    2.931860    3.032812
    148          1           0       17.386146    4.490299    2.501203
    149          1           0       19.791666    3.718825    3.958693
    150          1           0       18.723772    5.149213    3.826984
    151          1           0       20.010209    5.070525    2.735491
    152          1           0       20.483032   -1.444541    2.727434
    153          1           0       21.001917   -1.525806    0.968482
    154          1           0       20.502225   -2.988785    1.918073
    155          1           0       16.046693   -5.075739    0.391064
    156          1           0       15.003974   -6.703314    4.471619
    157          1           0       13.632791   -7.157869    3.464988
    158          1           0       13.729791   -5.492188    4.068686
 ---------------------------------------------------------------------

 SCF Done:  E(RPBE1PBE) =  -4067.34701054     A.U. after   16 cycles

 Excitation energies and oscillator strengths:

 Excited State   1:      Singlet-A      1.8531 eV  669.07 nm  f=0.3307  <S**2>=0.000
     309 -> 315        0.19365
     311 -> 313        0.68588
 This state for optimization and/or second-order correction.
 Total Energy, E(TD-HF/TD-DFT) =  -4067.27891107
 Copying the excited state density for this state as the 1-particle RhoCI density.

 Excited State   2:      Singlet-A      1.8724 eV  662.16 nm  f=0.3918  <S**2>=0.000
     310 -> 316        0.17534
     312 -> 314        0.69175
     312 <- 314       -0.10635

 Excited State   3:      Singlet-A      1.9692 eV  629.63 nm  f=0.0000  <S**2>=0.000
     312 -> 313        0.70710

 Excited State   4:      Singlet-A      1.9896 eV  623.17 nm  f=0.0000  <S**2>=0.000
     311 -> 314        0.70710

 Excited State   5:      Singlet-A      2.2157 eV  559.56 nm  f=0.0674  <S**2>=0.000
     309 -> 313        0.62823
     311 -> 315       -0.29821

 The electronic state is 1-A.
 Alpha  occ. eigenvalues --  -46.93609 -46.91166 -19.25719 -19.24618 -19.20472
 Alpha  occ. eigenvalues --  -19.19720 -19.19154 -19.19094 -19.18331 -19.18291
 Alpha  occ. eigenvalues --  -14.41952 -14.41486 -14.41372 -14.41085 -14.39869
 Alpha  occ. eigenvalues --  -14.39625 -14.39222 -14.38418 -10.35913 -10.35752
 Alpha  occ. eigenvalues --  -10.34176 -10.32207 -10.31442 -10.31421 -10.29796
 Alpha  occ. eigenvalues --  -10.29680 -10.29167 -10.28867 -10.28824 -10.28578
 Alpha  occ. eigenvalues --  -10.28532 -10.28524 -10.28388 -10.28380 -10.28319
 Alpha  occ. eigenvalues --  -10.28314 -10.28142 -10.27802 -10.27735 -10.27639
 Alpha  occ. eigenvalues --  -10.27498 -10.26838 -10.26738 -10.26598 -10.26564
 Alpha  occ. eigenvalues --  -10.26465 -10.26139 -10.26055 -10.26043 -10.26026
 Alpha  occ. eigenvalues --  -10.25907 -10.25905 -10.25785 -10.25748 -10.25712
 Alpha  occ. eigenvalues --  -10.25681 -10.25580 -10.25370 -10.25358 -10.25313
 Alpha  occ. eigenvalues --  -10.25238 -10.25113 -10.25031 -10.24759 -10.24754
 Alpha  occ. eigenvalues --  -10.24686 -10.24625 -10.24589 -10.24460 -10.24340
 Alpha  occ. eigenvalues --  -10.24259 -10.24187 -10.24116 -10.24021 -10.23744
 Alpha  occ. eigenvalues --  -10.23679 -10.23583 -10.23422 -10.23266 -10.23210
 Alpha  occ. eigenvalues --  -10.23068 -10.22994 -10.22958 -10.22503 -10.22179
 Alpha  occ. eigenvalues --  -10.22002  -3.15503  -3.13505  -1.88304  -1.87907
 Alpha  occ. eigenvalues --   -1.87702  -1.86360  -1.85844  -1.85778  -1.11842
 Alpha  occ. eigenvalues --   -1.09257  -1.04998  -1.04963  -1.04513  -1.03594
 Alpha  occ. eigenvalues --   -1.02535  -1.01602  -1.00364  -0.99424  -0.99241
 Alpha  occ. eigenvalues --   -0.98779  -0.98301  -0.97702  -0.97111  -0.96251
 Alpha  occ. eigenvalues --   -0.86592  -0.86329  -0.83537  -0.83277  -0.83074
 Alpha  occ. eigenvalues --   -0.82798  -0.82587  -0.82506  -0.81569  -0.81429
 Alpha  occ. eigenvalues --   -0.81266  -0.80739  -0.80505  -0.79643  -0.78937
 Alpha  occ. eigenvalues --   -0.78510  -0.78360  -0.78012  -0.77109  -0.77004
 Alpha  occ. eigenvalues --   -0.76860  -0.76570  -0.75453  -0.75325  -0.74627
 Alpha  occ. eigenvalues --   -0.74439  -0.72732  -0.72264  -0.71661  -0.71596
 Alpha  occ. eigenvalues --   -0.71010  -0.70721  -0.70584  -0.70128  -0.69418
 Alpha  occ. eigenvalues --   -0.69329  -0.67330  -0.67329  -0.66209  -0.65613
 Alpha  occ. eigenvalues --   -0.63684  -0.63253  -0.63137  -0.62955  -0.62559
 Alpha  occ. eigenvalues --   -0.62353  -0.61166  -0.60871  -0.60036  -0.59647
 Alpha  occ. eigenvalues --   -0.59576  -0.59362  -0.59158  -0.58763  -0.58595
 Alpha  occ. eigenvalues --   -0.58403  -0.57026  -0.55888  -0.55044  -0.54874
 Alpha  occ. eigenvalues --   -0.54201  -0.53879  -0.53733  -0.53622  -0.53101
 Alpha  occ. eigenvalues --   -0.52686  -0.52538  -0.52427  -0.52092  -0.51863
 Alpha  occ. eigenvalues --   -0.50771  -0.50388  -0.50385  -0.50223  -0.50000
 Alpha  occ. eigenvalues --   -0.49623  -0.49501  -0.49316  -0.49134  -0.48485
 Alpha  occ. eigenvalues --   -0.48416  -0.48206  -0.48109  -0.47720  -0.47718
 Alpha  occ. eigenvalues --   -0.47442  -0.47228  -0.47124  -0.46961  -0.46913
 Alpha  occ. eigenvalues --   -0.46692  -0.46623  -0.46436  -0.46433  -0.46104
 Alpha  occ. eigenvalues --   -0.45834  -0.45237  -0.45181  -0.45081  -0.45027
 Alpha  occ. eigenvalues --   -0.44834  -0.44388  -0.44376  -0.44306  -0.44081
 Alpha  occ. eigenvalues --   -0.44059  -0.43867  -0.43832  -0.43588  -0.43556
 Alpha  occ. eigenvalues --   -0.43470  -0.43215  -0.43152  -0.43083  -0.42943
 Alpha  occ. eigenvalues --   -0.42475  -0.42325  -0.41990  -0.41989  -0.41661
 Alpha  occ. eigenvalues --   -0.41656  -0.41640  -0.41359  -0.41247  -0.41124
 Alpha  occ. eigenvalues --   -0.41062  -0.40742  -0.40555  -0.40503  -0.40468
 Alpha  occ. eigenvalues --   -0.40315  -0.40113  -0.39952  -0.39837  -0.39663
 Alpha  occ. eigenvalues --   -0.39590  -0.39425  -0.39164  -0.39124  -0.38815
 Alpha  occ. eigenvalues --   -0.38790  -0.38597  -0.38528  -0.38382  -0.38329
 Alpha  occ. eigenvalues --   -0.38060  -0.38010  -0.37922  -0.37772  -0.37765
 Alpha  occ. eigenvalues --   -0.37393  -0.37285  -0.36967  -0.36906  -0.36657
 Alpha  occ. eigenvalues --   -0.36369  -0.36252  -0.36244  -0.36147  -0.35901
 Alpha  occ. eigenvalues --   -0.35809  -0.35742  -0.35493  -0.35035  -0.34986
 Alpha  occ. eigenvalues --   -0.34970  -0.34862  -0.34758  -0.34099  -0.33680
 Alpha  occ. eigenvalues --   -0.33159  -0.33036  -0.32955  -0.32545  -0.32434
 Alpha  occ. eigenvalues --   -0.32123  -0.31796  -0.31688  -0.31441  -0.31210
 Alpha  occ. eigenvalues --   -0.30734  -0.30558  -0.29680  -0.29305  -0.29154
 Alpha  occ. eigenvalues --   -0.29017  -0.28856  -0.28565  -0.27044  -0.26831
 Alpha  occ. eigenvalues --   -0.26607  -0.26046  -0.25984  -0.25556  -0.25456
 Alpha  occ. eigenvalues --   -0.25406  -0.25240  -0.24518  -0.21254  -0.20823
 Alpha  occ. eigenvalues --   -0.19015  -0.18957
 Alpha virt. eigenvalues --   -0.11297  -0.11278  -0.05958  -0.04788  -0.04180
 Alpha virt. eigenvalues --   -0.03996  -0.02098  -0.02015  -0.01696   0.00138
 Alpha virt. eigenvalues --    0.00385   0.00887   0.00941   0.01421   0.02046

 Mulliken charges:
               1
     1  Mg  12.000138
     2  C    5.998669
     3  C    6.000302
     4  C    6.001371
     5  C    6.000005
     6  N    6.999157
     7  C    6.001975
     8  C    5.999910
     9  C    6.000201
    10  C    5.998476
    11  C    5.999835
    12  C    5.999833
    13  C    6.000054
    14  H    1.000011
    15  N    7.000338
    16  C    5.997560
    17  C    5.998699
    18  C    5.998690
    19  C    5.998383
    20  C    6.000281
    21  C    5.999089
    22  O    7.998230
    23  C    6.000291
    24  N    7.000437
    25  C    5.997959
    26  C    6.000533
    27  C    5.999487
    28  C    6.001633
    29  C    6.000022
    30  C    5.999926
    31  C    5.999820
    32  N    7.000238
    33  C    6.001780
    34  C    6.002055
    35  C    6.000245
    36  C    6.001451
    37  C    5.999749
    38  C    6.000952
    39  O    8.001919
    40  C    6.000097
    41  C    6.000401
    42  O    8.000221
    43  O    8.000124
    44  C    5.999925
    45  H    0.999072
    46  H    0.999805
    47  H    1.000879
    48  H    0.999800
    49  H    0.999937
    50  H    0.999619
    51  H    0.999204
    52  H    1.000133
    53  H    1.000692
    54  H    0.999620
    55  H    1.000177
    56  H    0.999869
    57  H    0.998960
    58  H    0.998462
    59  H    0.999063
    60  H    0.999594
    61  H    0.999094
    62  H    0.999493
    63  H    1.000162
    64  H    1.000171
    65  H    0.999476
    66  H    1.000224
    67  H    1.000064
    68  H    1.000704
    69  H    1.000053
    70  H    0.999944
    71  H    0.999848
    72  H    1.000650
    73  H    1.001137
    74  H    1.001118
    75  H    1.001431
    76  H    1.000453
    77  H    1.000296
    78  H    1.000065
    79  H    1.000254
    80  Mg  12.005377
    81  C    6.011369
    82  C    5.976242
    83  C    5.987137
    84  C    6.018369
    85  N    7.006246
    86  C    5.973231
    87  C    6.001039
    88  C    5.986416
    89  C    6.040205
    90  C    5.999153
    91  C    6.002676
    92  C    6.007080
    93  H    0.987100
    94  N    6.991892
    95  C    6.040785
    96  C    6.017964
    97  C    6.010394
    98  C    6.034978
    99  C    5.997024
   100  C    6.011507
   101  O    8.017058
   102  C    5.996361
   103  N    7.003556
   104  C    6.026095
   105  C    5.987858
   106  C    6.014219
   107  C    5.963158
   108  C    5.997418
   109  C    6.000706
   110  C    6.001598
   111  N    7.003264
   112  C    5.960406
   113  C    5.973644
   114  C    5.998416
   115  C    5.970316
   116  C    5.995810
   117  C    5.983899
   118  O    7.968071
   119  C    6.000094
   120  C    5.993619
   121  O    7.997588
   122  O    7.998621
   123  C    6.001609
   124  H    1.006480
   125  H    1.009547
   126  H    0.991161
   127  H    1.005491
   128  H    1.005410
   129  H    1.004081
   130  H    1.010046
   131  H    0.996046
   132  H    1.004848
   133  H    0.992734
   134  H    1.000057
   135  H    1.003821
   136  H    1.017753
   137  H    1.017978
   138  H    1.015482
   139  H    1.010520
   140  H    1.011593
   141  H    1.006380
   142  H    1.001573
   143  H    0.995645
   144  H    0.996739
   145  H    1.011498
   146  H    1.001382
   147  H    1.003449
   148  H    0.987505
   149  H    1.002414
   150  H    0.995189
   151  H    0.995616
   152  H    0.984544
   153  H    0.986086
   154  H    0.990225
   155  H    0.990655
   156  H    0.998216
   157  H    0.994426
   158  H    0.995839
 Sum of Mulliken charges = 624.00000

 Dipole moment (field-independent basis, Debye):
    X=             -6.5793    Y=              5.3843    Z=             -4.6725  Tot=              9.7010
 Quadrupole moment (field-independent basis, Debye-Ang):
   XX=           -184.7838   YY=              2.8678   ZZ=              4.5264
   XY=             98.0314   XZ=            -71.7343   YZ=             -4.1347

 Normal termination of Gaussian 16 at Fri Oct 15 17:19:09 2021.
