 Gaussian 16, Revision A.03,
 Gaussian 16:  ES64L-G16RevA.03 25-Dec-2016

 --------------------------------------------------------
 #p PBE1PBE/Def2SVP td=(nstates=5) density=(transition=1)
 --------------------------------------------------------

 --------------------------------
 TDDFT excited states in gaussian
 --------------------------------
 Symbolic Z-matrix:
 Charge =  0 Multiplicity = 1

                         Standard orientation:
 ---------------------------------------------------------------------
 Center     Atomic      Atomic             Coordinates (Angstroms)
 Number     Number       Type             X           Y           Z
 ---------------------------------------------------------------------
      1         12           0      -15.516439    0.446318    0.251626
      2          6           0      -14.535987   -2.639242   -1.078527
      3          6           0      -12.142542    1.188413    0.415293
      4          6           0      -16.354689    3.536438    1.195289
      5          6           0      -18.797777   -0.175844   -0.780907
      6          7           0      -13.489994   -0.647897   -0.512663
      7          6           0      -13.379517   -1.933987   -0.896905
      8          6           0      -11.956501   -2.366862   -1.156273
      9          6           0      -11.263882   -1.189263   -0.370098
     10          6           0      -12.309493   -0.098387   -0.162677
     11          6           0      -10.791841   -1.687391    1.021966
     12          6           0      -11.694277   -2.554940   -2.655887
     13          6           0      -12.298918   -1.562943   -3.671185
     14          1           0      -11.336499   -1.006828   -4.713955
     15          7           0      -14.426775    2.106416    0.743013
     16          6           0      -13.062681    2.151221    0.858588
     17          6           0      -12.694129    3.301888    1.693608
     18          6           0      -13.887657    4.119519    1.819424
     19          6           0      -14.951536    3.237150    1.250198
     20          6           0      -11.196959    3.693257    1.995297
     21          6           0      -13.977685    5.531174    2.404396
     22          8           0      -13.030239    6.029635    2.945359
     23          6           0      -15.273640    6.287207    2.346181
     24          7           0      -17.347817    1.587755   -0.010530
     25          6           0      -17.507290    2.856930    0.576076
     26          6           0      -18.988180    3.414622    0.452652
     27          6           0      -19.753484    2.137993   -0.141588
     28          6           0      -18.565507    1.080870   -0.290351
     29          6           0      -19.719371    4.071304    1.727776
     30          6           0      -20.595912    2.342505   -1.482287
     31          6           0      -21.895318    1.395115   -1.483643
     32          7           0      -16.552879   -1.104376   -0.691026
     33          6           0      -17.899579   -1.244894   -0.957949
     34          6           0      -18.145912   -2.582954   -1.481578
     35          6           0      -16.890340   -3.243088   -1.508326
     36          6           0      -15.925083   -2.259792   -1.084595
     37          6           0      -19.489573   -3.206981   -1.753698
     38          6           0      -16.096890   -4.458245   -1.884694
     39          8           0      -16.440930   -5.473737   -2.447288
     40          6           0      -14.588867   -4.086668   -1.554996
     41          6           0      -14.126584   -5.061000   -0.506649
     42          8           0      -13.807668   -6.252414   -0.746700
     43          8           0      -13.970445   -4.402183    0.704279
     44          6           0      -13.320130   -5.148465    1.729056
     45          1           0      -11.078284    1.390320    0.553913
     46          1           0      -16.774329    4.432328    1.658099
     47          1           0      -19.852673   -0.426783   -0.911031
     48          1           0      -11.702050   -3.270311   -0.602394
     49          1           0      -10.399410   -0.709696   -0.827230
     50          1           0      -10.897404   -0.834961    1.693464
     51          1           0       -9.793492   -2.117611    0.956270
     52          1           0      -11.399722   -2.415141    1.560435
     53          1           0      -12.162234   -3.503651   -2.916875
     54          1           0      -10.616194   -2.616681   -2.804788
     55          1           0      -12.674865   -0.693424   -3.132583
     56          1           0      -13.074901   -2.084297   -4.230928
     57          1           0      -10.672671    4.182610    1.174021
     58          1           0      -10.641232    2.803725    2.292138
     59          1           0      -11.033245    4.320346    2.870931
     60          1           0      -15.154519    7.325808    2.656477
     61          1           0      -16.059091    5.840423    2.956058
     62          1           0      -15.457596    6.326931    1.272222
     63          1           0      -18.827556    4.170688   -0.314976
     64          1           0      -20.435913    1.714384    0.594698
     65          1           0      -19.493742    5.136930    1.711100
     66          1           0      -19.381264    3.618820    2.659590
     67          1           0      -20.789969    3.883096    1.644600
     68          1           0      -20.042724    1.984880   -2.350653
     69          1           0      -20.842086    3.393537   -1.635395
     70          1           0      -21.864869    0.691576   -2.315733
     71          1           0      -22.790064    2.008943   -1.583091
     72          1           0      -22.044125    0.699962   -0.658094
     73          1           0      -20.009100   -2.594713   -2.490024
     74          1           0      -20.078149   -3.221583   -0.836133
     75          1           0      -19.404569   -4.207245   -2.178052
     76          1           0      -14.051227   -4.352366   -2.464916
     77          1           0      -13.164891   -4.506711    2.596022
     78          1           0      -12.424216   -5.641327    1.351134
     79          1           0      -13.967529   -5.918967    2.147661
     80         12           0       15.623106    0.691844   -0.156815
     81          6           0       15.302143   -2.573383    1.130621
     82          6           0       12.950316    1.561788    1.854159
     83          6           0       15.736464    3.867919   -1.403526
     84          6           0       17.978446   -0.366942   -2.301719
     85          7           0       14.286653   -0.392829    1.368385
     86          6           0       14.414988   -1.691542    1.845957
     87          6           0       13.547202   -1.892643    3.072038
     88          6           0       12.561627   -0.668677    3.030841
     89          6           0       13.313803    0.206261    2.053369
     90          6           0       11.068229   -1.003794    2.642621
     91          6           0       14.342430   -1.876261    4.386002
     92          6           0       13.850330   -2.846926    5.464897
     93          1           0       12.485602   -2.562008    6.151490
     94          7           0       14.572682    2.484770    0.232625
     95          6           0       13.506444    2.559986    1.062067
     96          6           0       12.955382    3.873303    0.975870
     97          6           0       13.805801    4.676651    0.140134
     98          6           0       14.704638    3.679134   -0.413153
     99          6           0       11.715268    4.271502    1.726964
    100          6           0       13.746289    6.151437   -0.258218
    101          8           0       14.685723    6.705787   -0.870354
    102          6           0       12.518022    7.019788   -0.010445
    103          7           0       16.753488    1.623534   -1.559386
    104          6           0       16.600120    2.939040   -1.986615
    105          6           0       17.533934    3.192614   -3.125261
    106          6           0       18.349345    1.885265   -3.432187
    107          6           0       17.720210    0.978439   -2.362119
    108          6           0       16.880888    3.878587   -4.362792
    109          6           0       19.880594    2.001540   -3.271221
    110          6           0       20.619137    2.274668   -4.595762
    111          7           0       16.454098   -1.051984   -0.580449
    112          6           0       17.485805   -1.388274   -1.455783
    113          6           0       17.893423   -2.837860   -1.344744
    114          6           0       17.005593   -3.289048   -0.354630
    115          6           0       16.209103   -2.193622    0.110221
    116          6           0       18.981706   -3.541686   -2.134721
    117          6           0       16.646416   -4.492222    0.380715
    118          8           0       17.066290   -5.646981    0.295357
    119          6           0       15.593589   -4.007449    1.465590
    120          6           0       14.392494   -4.962163    1.318353
    121          8           0       13.928135   -5.382525    0.278715
    122          8           0       14.021331   -5.406281    2.586040
    123          6           0       12.886423   -6.329133    2.558239
    124          1           0       12.157933    1.821160    2.559091
    125          1           0       15.865951    4.848572   -1.865644
    126          1           0       18.655491   -0.653421   -3.108752
    127          1           0       12.945298   -2.800950    3.058344
    128          1           0       12.443886   -0.147069    3.980702
    129          1           0       10.834340   -2.064317    2.545070
    130          1           0       10.708735   -0.602616    1.695336
    131          1           0       10.383172   -0.665902    3.420217
    132          1           0       14.357361   -0.880258    4.827959
    133          1           0       15.375393   -2.180032    4.215088
    134          1           0       14.598118   -3.004408    6.242021
    135          1           0       13.761276   -3.860137    5.073562
    136          1           0       11.035547    3.456321    1.478404
    137          1           0       11.211811    5.189787    1.425010
    138          1           0       11.826637    4.302396    2.810579
    139          1           0       11.614433    6.525258   -0.367293
    140          1           0       12.761731    7.919204   -0.575727
    141          1           0       12.378197    7.208085    1.054017
    142          1           0       18.171781    4.023700   -2.822816
    143          1           0       18.136789    1.421932   -4.396504
    144          1           0       15.814511    3.980193   -4.160088
    145          1           0       17.007316    3.231121   -5.230080
    146          1           0       17.379411    4.846846   -4.419091
    147          1           0       20.215085    1.122258   -2.721140
    148          1           0       20.143502    2.888209   -2.693921
    149          1           0       19.939294    2.744321   -5.306906
    150          1           0       20.971820    1.402956   -5.147287
    151          1           0       21.417521    2.989030   -4.392662
    152          1           0       19.938022   -3.183840   -1.752861
    153          1           0       18.987805   -3.345711   -3.206759
    154          1           0       18.853650   -4.604034   -1.927681
    155          1           0       15.936927   -4.029770    2.499692
    156          1           0       11.907826   -5.853418    2.629328
    157          1           0       13.075594   -6.995227    3.399927
    158          1           0       12.737640   -6.963060    1.684126
 ---------------------------------------------------------------------

 SCF Done:  E(RPBE1PBE) =  -4067.40151941     A.U. after   16 cycles

 Excitation energies and oscillator strengths:

 Excited State   1:      Singlet-A      1.8491 eV  670.49 nm  f=0.3561  <S**2>=0.000
     310 -> 316        0.18092
     312 -> 314        0.69113
     312 <- 314       -0.10443
 This state for optimization and/or second-order correction.
 Total Energy, E(TD-HF/TD-DFT) =  -4067.33356458
 Copying the excited state density for this state as the 1-particle RhoCI density.

 Excited State   2:      Singlet-A      1.8968 eV  653.66 nm  f=0.3567  <S**2>=0.000
     309 -> 315        0.18762
     311 -> 313        0.68709

 Excited State   3:      Singlet-A      1.9260 eV  643.73 nm  f=0.0000  <S**2>=0.000
     312 -> 313        0.70710

 Excited State   4:      Singlet-A      2.0607 eV  601.67 nm  f=0.0000  <S**2>=0.000
     311 -> 314        0.70710

 Excited State   5:      Singlet-A      2.2265 eV  556.85 nm  f=0.0988  <S**2>=0.000
     310 -> 314        0.64872
     312 -> 316       -0.27333

 The electronic state is 1-A.
 Alpha  occ. eigenvalues --  -46.93826 -46.91078 -19.26730 -19.26412 -19.20620
 Alpha  occ. eigenvalues --  -19.20316 -19.19916 -19.19372 -19.19338 -19.19152
 Alpha  occ. eigenvalues --  -14.42038 -14.41897 -14.41234 -14.40970 -14.40097
 Alpha  occ. eigenvalues --  -14.39599 -14.39259 -14.39072 -10.37058 -10.36711
 Alpha  occ. eigenvalues --  -10.33113 -10.32900 -10.32363 -10.32280 -10.30522
 Alpha  occ. eigenvalues --  -10.29338 -10.29305 -10.29223 -10.28774 -10.28713
 Alpha  occ. eigenvalues --  -10.28480 -10.28464 -10.28397 -10.28372 -10.28230
 Alpha  occ. eigenvalues --  -10.28199 -10.28166 -10.28097 -10.27741 -10.27541
 Alpha  occ. eigenvalues --  -10.27227 -10.27089 -10.27082 -10.27078 -10.26902
 Alpha  occ. eigenvalues --  -10.26631 -10.26609 -10.26465 -10.26405 -10.26278
 Alpha  occ. eigenvalues --  -10.26259 -10.26186 -10.26185 -10.26159 -10.26140
 Alpha  occ. eigenvalues --  -10.26053 -10.26052 -10.25763 -10.25735 -10.25619
 Alpha  occ. eigenvalues --  -10.25533 -10.25498 -10.25320 -10.25240 -10.25120
 Alpha  occ. eigenvalues --  -10.25043 -10.24985 -10.24521 -10.24508 -10.24321
 Alpha  occ. eigenvalues --  -10.24056 -10.24026 -10.23975 -10.23939 -10.23928
 Alpha  occ. eigenvalues --  -10.23851 -10.23828 -10.23787 -10.23744 -10.23651
 Alpha  occ. eigenvalues --  -10.23613 -10.23553 -10.23510 -10.23497 -10.23171
 Alpha  occ. eigenvalues --  -10.23035  -3.15772  -3.13434  -1.88573  -1.88165
 Alpha  occ. eigenvalues --   -1.87984  -1.86275  -1.85786  -1.85702  -1.11263
 Alpha  occ. eigenvalues --   -1.11053  -1.06185  -1.05559  -1.04007  -1.03546
 Alpha  occ. eigenvalues --   -1.03001  -1.01896  -0.99376  -0.99263  -0.98474
 Alpha  occ. eigenvalues --   -0.98246  -0.97815  -0.97721  -0.96668  -0.96102
 Alpha  occ. eigenvalues --   -0.86942  -0.86924  -0.83685  -0.83322  -0.83313
 Alpha  occ. eigenvalues --   -0.82631  -0.82590  -0.82038  -0.81826  -0.81736
 Alpha  occ. eigenvalues --   -0.81225  -0.80525  -0.80504  -0.79853  -0.79141
 Alpha  occ. eigenvalues --   -0.78648  -0.77897  -0.77699  -0.76908  -0.76584
 Alpha  occ. eigenvalues --   -0.76109  -0.75848  -0.75261  -0.75183  -0.74774
 Alpha  occ. eigenvalues --   -0.74395  -0.72704  -0.71879  -0.71796  -0.71638
 Alpha  occ. eigenvalues --   -0.71573  -0.70967  -0.70748  -0.70468  -0.69695
 Alpha  occ. eigenvalues --   -0.69415  -0.67345  -0.67164  -0.66508  -0.66081
 Alpha  occ. eigenvalues --   -0.64282  -0.63810  -0.63716  -0.63265  -0.62792
 Alpha  occ. eigenvalues --   -0.62650  -0.61678  -0.61583  -0.60377  -0.60185
 Alpha  occ. eigenvalues --   -0.59930  -0.59465  -0.59359  -0.59202  -0.59011
 Alpha  occ. eigenvalues --   -0.58778  -0.58335  -0.57154  -0.54903  -0.54631
 Alpha  occ. eigenvalues --   -0.54604  -0.53916  -0.53518  -0.53501  -0.53166
 Alpha  occ. eigenvalues --   -0.52857  -0.52337  -0.52286  -0.52040  -0.51947
 Alpha  occ. eigenvalues --   -0.50810  -0.50657  -0.50629  -0.50105  -0.50018
 Alpha  occ. eigenvalues --   -0.49734  -0.49668  -0.49064  -0.48872  -0.48387
 Alpha  occ. eigenvalues --   -0.48384  -0.48096  -0.47829  -0.47701  -0.47534
 Alpha  occ. eigenvalues --   -0.47493  -0.47353  -0.47158  -0.46699  -0.46576
 Alpha  occ. eigenvalues --   -0.46431  -0.46213  -0.46209  -0.46055  -0.45813
 Alpha  occ. eigenvalues --   -0.45779  -0.45375  -0.45199  -0.45135  -0.44665
 Alpha  occ. eigenvalues --   -0.44636  -0.44579  -0.44579  -0.44405  -0.44362
 Alpha  occ. eigenvalues --   -0.44162  -0.44005  -0.43697  -0.43635  -0.43520
 Alpha  occ. eigenvalues --   -0.43396  -0.43153  -0.43096  -0.42800  -0.42719
 Alpha  occ. eigenvalues --   -0.42261  -0.42199  -0.42111  -0.42004  -0.41939
 Alpha  occ. eigenvalues --   -0.41626  -0.41503  -0.41387  -0.41383  -0.41250
 Alpha  occ. eigenvalues --   -0.41113  -0.40991  -0.40825  -0.40638  -0.40524
 Alpha  occ. eigenvalues --   -0.40300  -0.40257  -0.40151  -0.39991  -0.39737
 Alpha  occ. eigenvalues --   -0.39655  -0.39414  -0.39303  -0.39195  -0.39063
 Alpha  occ. eigenvalues --   -0.39032  -0.38839  -0.38707  -0.38472  -0.38406
 Alpha  occ. eigenvalues --   -0.38308  -0.38203  -0.38029  -0.37967  -0.37934
 Alpha  occ. eigenvalues --   -0.37835  -0.37673  -0.37482  -0.37229  -0.37168
 Alpha  occ. eigenvalues --   -0.37078  -0.36890  -0.36766  -0.36658  -0.36564
 Alpha  occ. eigenvalues --   -0.36415  -0.36182  -0.36078  -0.35895  -0.35456
 Alpha  occ. eigenvalues --   -0.35309  -0.35187  -0.34871  -0.34668  -0.34220
 Alpha  occ. eigenvalues --   -0.33930  -0.33705  -0.33333  -0.33182  -0.32942
 Alpha  occ. eigenvalues --   -0.32289  -0.32245  -0.32234  -0.31867  -0.31761
 Alpha  occ. eigenvalues --   -0.31678  -0.31409  -0.30356  -0.29865  -0.29831
 Alpha  occ. eigenvalues --   -0.29486  -0.28736  -0.28445  -0.26960  -0.26708
 Alpha  occ. eigenvalues --   -0.26325  -0.26222  -0.26101  -0.26067  -0.25803
 Alpha  occ. eigenvalues --   -0.25797  -0.25537  -0.25481  -0.21017  -0.20864
 Alpha  occ. eigenvalues --   -0.19068  -0.18705
 Alpha virt. eigenvalues --   -0.11198  -0.11067  -0.05574  -0.05252  -0.04234
 Alpha virt. eigenvalues --   -0.04166  -0.02639  -0.02437  -0.02021  -0.00161
 Alpha virt. eigenvalues --    0.00297   0.00511   0.01107   0.01329   0.01643

 Mulliken charges:
               1
     1  Mg  12.000089
     2  C    5.999543
     3  C    6.000049
     4  C    6.000720
     5  C    5.999929
     6  N    6.999701
     7  C    6.000876
     8  C    5.999749
     9  C    6.000114
    10  C    5.999390
    11  C    6.000079
    12  C    5.999909
    13  C    5.999877
    14  H    1.000123
    15  N    7.000171
    16  C    5.999083
    17  C    5.999411
    18  C    5.999654
    19  C    5.998961
    20  C    6.000110
    21  C    5.999662
    22  O    7.999300
    23  C    6.000089
    24  N    7.000162
    25  C    5.998846
    26  C    6.000297
    27  C    5.999793
    28  C    6.000700
    29  C    6.000020
    30  C    5.999890
    31  C    5.999948
    32  N    6.999915
    33  C    6.000877
    34  C    6.000896
    35  C    6.000061
    36  C    6.000880
    37  C    5.999926
    38  C    6.000596
    39  O    8.000866
    40  C    6.000003
    41  C    6.000006
    42  O    8.000298
    43  O    7.999992
    44  C    5.999887
    45  H    0.999496
    46  H    0.999823
    47  H    1.000334
    48  H    1.000098
    49  H    0.999861
    50  H    1.000145
    51  H    0.999735
    52  H    0.999766
    53  H    0.999951
    54  H    1.000164
    55  H    1.000176
    56  H    0.999896
    57  H    0.999266
    58  H    0.999498
    59  H    0.999468
    60  H    0.999598
    61  H    0.999799
    62  H    0.999806
    63  H    0.999972
    64  H    1.000080
    65  H    1.000067
    66  H    0.999991
    67  H    0.999838
    68  H    0.999981
    69  H    1.000298
    70  H    0.999946
    71  H    1.000214
    72  H    0.999987
    73  H    1.000524
    74  H    1.000581
    75  H    1.000455
    76  H    1.000251
    77  H    1.000174
    78  H    1.000168
    79  H    1.000143
    80  Mg  12.000481
    81  C    6.017368
    82  C    5.989632
    83  C    5.982605
    84  C    6.009043
    85  N    7.006086
    86  C    5.968119
    87  C    6.009325
    88  C    5.989609
    89  C    6.032045
    90  C    5.996994
    91  C    6.003127
    92  C    6.001314
    93  H    0.990724
    94  N    6.996398
    95  C    6.034677
    96  C    6.024306
    97  C    6.013118
    98  C    6.028683
    99  C    5.997816
   100  C    6.011104
   101  O    8.026546
   102  C    5.996752
   103  N    6.994002
   104  C    6.032358
   105  C    5.991244
   106  C    6.011207
   107  C    5.969451
   108  C    5.998088
   109  C    6.003702
   110  C    6.000011
   111  N    6.999666
   112  C    5.966051
   113  C    5.967804
   114  C    6.000850
   115  C    5.970820
   116  C    5.999374
   117  C    5.983390
   118  O    7.970996
   119  C    6.000013
   120  C    5.993858
   121  O    7.997491
   122  O    7.997883
   123  C    6.002314
   124  H    1.009598
   125  H    1.006142
   126  H    0.990675
   127  H    0.999618
   128  H    1.000824
   129  H    1.013097
   130  H    0.999007
   131  H    1.002208
   132  H    0.988528
   133  H    1.006516
   134  H    0.999544
   135  H    1.003871
   136  H    1.015417
   137  H    1.014918
   138  H    1.020636
   139  H    1.006523
   140  H    1.012571
   141  H    1.007417
   142  H    1.000920
   143  H    0.998724
   144  H    0.995091
   145  H    1.010231
   146  H    1.001354
   147  H    1.005653
   148  H    0.990131
   149  H    0.994089
   150  H    1.001655
   151  H    0.995871
   152  H    0.982126
   153  H    0.982274
   154  H    0.988510
   155  H    0.992139
   156  H    0.992965
   157  H    0.996439
   158  H    0.998272
 Sum of Mulliken charges = 624.00000

 Dipole moment (field-independent basis, Debye):
    X=             -5.2479    Y=              8.4712    Z=              1.5081  Tot=             10.0785
 Quadrupole moment (field-independent basis, Debye-Ang):
   XX=           -151.4338   YY=             10.1987   ZZ=             -2.1464
   XY=            133.2445   XZ=             28.4587   YZ=              0.5464

 Normal termination of Gaussian 16 at Thu Oct 14 23:43:24 2021.
