 Gaussian 16, Revision A.03,
 Gaussian 16:  ES64L-G16RevA.03 25-Dec-2016

 --------------------------------------------------------
 #p PBE1PBE/Def2SVP td=(nstates=5) density=(transition=1)
 --------------------------------------------------------

 --------------------------------
 TDDFT excited states in gaussian
 --------------------------------
 Symbolic Z-matrix:
 Charge =  0 Multiplicity = 1

                         Standard orientation:
 ---------------------------------------------------------------------
 Center     Atomic      Atomic             Coordinates (Angstroms)
 Number     Number       Type             X           Y           Z
 ---------------------------------------------------------------------
      1         12           0       14.378098   -0.138602   -0.012667
      2          6           0       11.148873   -1.164269   -0.715267
      3          6           0       14.109421    2.293445   -2.457400
      4          6           0       17.183511    1.274206    1.223647
      5          6           0       14.313130   -2.450140    2.650079
      6          7           0       12.686080    0.673588   -1.235657
      7          6           0       11.581266   -0.043963   -1.457751
      8          6           0       10.653212    0.702017   -2.465679
      9          6           0       11.712055    1.639590   -3.216848
     10          6           0       12.979350    1.491861   -2.290679
     11          6           0       11.883500    1.278008   -4.711964
     12          6           0        9.639581    1.544621   -1.725420
     13          6           0        8.234953    1.542613   -2.308196
     14          1           0        7.318181    2.823320   -2.329356
     15          7           0       15.575711    1.489493   -0.700987
     16          6           0       15.290535    2.404447   -1.643482
     17          6           0       16.404102    3.292390   -1.731154
     18          6           0       17.405109    2.913955   -0.785821
     19          6           0       16.775046    1.819383   -0.037235
     20          6           0       16.515179    4.296057   -2.818643
     21          6           0       18.659258    3.677137   -0.546902
     22          8           0       18.936527    4.636100   -1.247926
     23          6           0       19.661629    3.252619    0.519689
     24          7           0       15.660983   -0.624799    1.726389
     25          6           0       16.711016    0.197364    2.005203
     26          6           0       17.268614   -0.099923    3.359201
     27          6           0       16.318993   -1.307852    3.811405
     28          6           0       15.382337   -1.569452    2.658138
     29          6           0       18.780343   -0.393345    3.385250
     30          6           0       15.551081   -1.111846    5.193010
     31          6           0       15.626010   -2.195168    6.294563
     32          7           0       13.072431   -1.523867    0.797896
     33          6           0       13.209259   -2.421074    1.810095
     34          6           0       12.209139   -3.391003    1.729284
     35          6           0       11.343087   -2.983205    0.724259
     36          6           0       11.868126   -1.810801    0.241373
     37          6           0       12.065488   -4.594501    2.706394
     38          6           0       10.186415   -3.277931    0.016652
     39          8           0        9.374237   -4.170201    0.234306
     40          6           0        9.900981   -2.068801   -0.998548
     41          6           0        9.970627   -2.485083   -2.352715
     42          8           0       10.940649   -2.737436   -3.071375
     43          8           0        8.654549   -2.558010   -2.798675
     44          6           0        8.351893   -2.961377   -4.161226
     45          1           0       14.093083    2.955860   -3.325117
     46          1           0       18.086899    1.616955    1.733343
     47          1           0       14.439980   -3.184313    3.448559
     48          1           0       10.155654   -0.048879   -3.078804
     49          1           0       11.505697    2.705356   -3.124068
     50          1           0       11.332029    0.375846   -4.975967
     51          1           0       12.942547    1.143548   -4.934357
     52          1           0       11.553573    2.137119   -5.295615
     53          1           0        9.890882    2.588675   -1.537506
     54          1           0        9.673743    1.169482   -0.702594
     55          1           0        7.708598    0.712437   -1.837484
     56          1           0        8.436875    1.242501   -3.336414
     57          1           0       17.158174    3.793713   -3.541112
     58          1           0       16.946523    5.230413   -2.458938
     59          1           0       15.556226    4.544704   -3.273397
     60          1           0       19.259425    3.621467    1.463359
     61          1           0       20.549111    3.860372    0.344992
     62          1           0       19.814641    2.173677    0.499528
     63          1           0       17.029909    0.833231    3.868415
     64          1           0       16.893941   -2.205110    4.040527
     65          1           0       19.246790    0.490643    3.821354
     66          1           0       19.186491   -0.620686    2.399081
     67          1           0       18.974714   -1.222389    4.065262
     68          1           0       14.489565   -0.990925    4.977473
     69          1           0       15.887924   -0.233369    5.743828
     70          1           0       14.766458   -2.800781    6.007620
     71          1           0       15.433702   -1.755312    7.272300
     72          1           0       16.424087   -2.937327    6.280508
     73          1           0       11.697040   -4.220381    3.660726
     74          1           0       12.988911   -5.108129    2.974632
     75          1           0       11.351374   -5.323901    2.323136
     76          1           0        8.936403   -1.656778   -0.701620
     77          1           0        7.388294   -3.469248   -4.134819
     78          1           0        9.138107   -3.524460   -4.664828
     79          1           0        8.152329   -2.055053   -4.733110
     80         12           0      -13.608992    0.962614    0.203697
     81          6           0      -13.742742   -2.527872   -0.133479
     82          6           0      -10.274950    0.900781    0.246776
     83          6           0      -13.689505    4.174300    0.593839
     84          6           0      -17.091080    0.745374    1.161061
     85          7           0      -12.215867   -0.680718    0.172861
     86          6           0      -12.428138   -1.967439   -0.130617
     87          6           0      -11.151077   -2.767339   -0.120251
     88          6           0      -10.097016   -1.716283    0.413603
     89          6           0      -10.879279   -0.426184    0.260939
     90          6           0       -9.516506   -1.908135    1.852267
     91          6           0      -10.758073   -3.224894   -1.616787
     92          6           0      -10.376508   -4.737667   -1.724836
     93          1           0      -10.294352   -5.223629   -3.271924
     94          7           0      -12.227324    2.328757    0.141787
     95          6           0      -10.856623    2.135995    0.113813
     96          6           0      -10.224890    3.397860   -0.157607
     97          6           0      -11.213420    4.463899   -0.102884
     98          6           0      -12.493854    3.686111    0.108979
     99          6           0       -8.674526    3.452372   -0.274822
    100          6           0      -11.192982    5.981903   -0.241307
    101          8           0      -12.182821    6.735797   -0.252441
    102          6           0       -9.825863    6.514011   -0.488623
    103          7           0      -15.162499    2.174979    0.944621
    104          6           0      -14.860223    3.513457    0.993074
    105          6           0      -16.015296    4.313635    1.596146
    106          6           0      -17.182751    3.299025    1.477749
    107          6           0      -16.458085    1.972410    1.241826
    108          6           0      -15.614237    4.845414    3.029153
    109          6           0      -18.259592    3.602525    0.351308
    110          6           0      -19.661320    3.005692    0.555151
    111          7           0      -15.158012   -0.545931    0.438372
    112          6           0      -16.462883   -0.451517    0.817053
    113          6           0      -17.136997   -1.724429    0.692291
    114          6           0      -16.085496   -2.545641    0.245771
    115          6           0      -14.894188   -1.810284    0.166743
    116          6           0      -18.599222   -2.153583    0.952895
    117          6           0      -15.791157   -3.889667   -0.166453
    118          8           0      -16.476044   -4.844690   -0.424229
    119          6           0      -14.179558   -3.951377   -0.269355
    120          6           0      -14.015205   -4.700185   -1.518094
    121          8           0      -14.050555   -4.281569   -2.702813
    122          8           0      -13.827289   -5.974927   -1.135244
    123          6           0      -13.667748   -6.993933   -2.173621
    124          1           0       -9.185520    0.898525    0.170071
    125          1           0      -13.737524    5.263841    0.652539
    126          1           0      -18.163533    0.754680    1.366514
    127          1           0      -11.180566   -3.681576    0.473191
    128          1           0       -9.215723   -1.563110   -0.209551
    129          1           0       -9.916674   -1.111357    2.479228
    130          1           0       -8.439055   -1.789168    1.739388
    131          1           0       -9.730333   -2.835214    2.382997
    132          1           0       -9.981234   -2.636188   -2.106116
    133          1           0      -11.606760   -2.957226   -2.246317
    134          1           0      -11.113869   -5.355554   -1.212792
    135          1           0       -9.388027   -4.995339   -1.345319
    136          1           0       -8.412895    3.295743   -1.320394
    137          1           0       -8.172735    2.578629    0.142779
    138          1           0       -8.164364    4.253395    0.259643
    139          1           0       -9.357208    6.154734   -1.404119
    140          1           0       -9.302200    6.219476    0.421661
    141          1           0       -9.776718    7.603055   -0.510235
    142          1           0      -16.143111    5.171356    0.935651
    143          1           0      -17.749242    3.294971    2.408924
    144          1           0      -16.144674    4.286938    3.800309
    145          1           0      -15.811677    5.888626    3.274421
    146          1           0      -14.581598    4.685707    3.340099
    147          1           0      -17.864808    3.057894   -0.506805
    148          1           0      -18.423327    4.644807    0.076711
    149          1           0      -19.899194    2.250197   -0.194802
    150          1           0      -20.525931    3.669695    0.563393
    151          1           0      -19.597885    2.437475    1.482102
    152          1           0      -18.991338   -1.438101    1.675691
    153          1           0      -18.646307   -3.170587    1.344479
    154          1           0      -19.122757   -2.044181    0.003194
    155          1           0      -13.784694   -4.559489    0.544707
    156          1           0      -12.636335   -7.345593   -2.155828
    157          1           0      -14.032921   -6.656264   -3.142949
    158          1           0      -14.249390   -7.868452   -1.882321
 ---------------------------------------------------------------------

 SCF Done:  E(RPBE1PBE) =  -4067.34867283     A.U. after   16 cycles

 Excitation energies and oscillator strengths:

 Excited State   1:      Singlet-A      1.7858 eV  694.29 nm  f=0.0000  <S**2>=0.000
     312 -> 313        0.70710
 This state for optimization and/or second-order correction.
 Total Energy, E(TD-HF/TD-DFT) =  -4067.28304744
 Copying the excited state density for this state as the 1-particle RhoCI density.

 Excited State   2:      Singlet-A      1.8605 eV  666.40 nm  f=0.4103  <S**2>=0.000
     309 -> 315        0.17786
     311 -> 313        0.69205
     311 <- 313       -0.11022

 Excited State   3:      Singlet-A      1.8754 eV  661.12 nm  f=0.3508  <S**2>=0.000
     310 -> 316       -0.18958
     312 -> 314        0.68771

 Excited State   4:      Singlet-A      2.1302 eV  582.04 nm  f=0.0000  <S**2>=0.000
     311 -> 314        0.70710

 Excited State   5:      Singlet-A      2.2365 eV  554.37 nm  f=0.0977  <S**2>=0.000
     309 -> 313        0.64805
     311 -> 315       -0.26578

 The electronic state is 1-A.
 Alpha  occ. eigenvalues --  -46.93144 -46.90969 -19.25492 -19.25359 -19.20431
 Alpha  occ. eigenvalues --  -19.19800 -19.19601 -19.19273 -19.18674 -19.18661
 Alpha  occ. eigenvalues --  -14.42045 -14.41960 -14.41582 -14.41268 -14.39547
 Alpha  occ. eigenvalues --  -14.39101 -14.38961 -14.38075 -10.36609 -10.35534
 Alpha  occ. eigenvalues --  -10.33014 -10.32448 -10.31856 -10.31821 -10.29422
 Alpha  occ. eigenvalues --  -10.29357 -10.29232 -10.29123 -10.28965 -10.28949
 Alpha  occ. eigenvalues --  -10.28872 -10.28703 -10.28470 -10.28204 -10.28202
 Alpha  occ. eigenvalues --  -10.28054 -10.27704 -10.27587 -10.27564 -10.27198
 Alpha  occ. eigenvalues --  -10.27007 -10.26930 -10.26546 -10.26424 -10.26422
 Alpha  occ. eigenvalues --  -10.26278 -10.26221 -10.26203 -10.26201 -10.26153
 Alpha  occ. eigenvalues --  -10.26089 -10.26078 -10.26038 -10.25745 -10.25649
 Alpha  occ. eigenvalues --  -10.25591 -10.25559 -10.25554 -10.25537 -10.25531
 Alpha  occ. eigenvalues --  -10.25488 -10.25178 -10.25153 -10.25035 -10.24910
 Alpha  occ. eigenvalues --  -10.24703 -10.24537 -10.24448 -10.24426 -10.24421
 Alpha  occ. eigenvalues --  -10.24115 -10.24092 -10.24036 -10.23948 -10.23923
 Alpha  occ. eigenvalues --  -10.23739 -10.23479 -10.23429 -10.23418 -10.23392
 Alpha  occ. eigenvalues --  -10.23362 -10.23246 -10.22825 -10.22617 -10.22466
 Alpha  occ. eigenvalues --  -10.22215  -3.15054  -3.13383  -1.87906  -1.87422
 Alpha  occ. eigenvalues --   -1.87268  -1.86210  -1.85770  -1.85623  -1.10684
 Alpha  occ. eigenvalues --   -1.10525  -1.05545  -1.04882  -1.04824  -1.04012
 Alpha  occ. eigenvalues --   -1.02358  -1.00292  -1.00278  -0.99829  -0.98969
 Alpha  occ. eigenvalues --   -0.98793  -0.98561  -0.98255  -0.97390  -0.97019
 Alpha  occ. eigenvalues --   -0.88363  -0.87084  -0.83890  -0.83482  -0.83408
 Alpha  occ. eigenvalues --   -0.82766  -0.82507  -0.82340  -0.82327  -0.81775
 Alpha  occ. eigenvalues --   -0.81322  -0.81154  -0.80633  -0.80604  -0.79805
 Alpha  occ. eigenvalues --   -0.78983  -0.78794  -0.78101  -0.77413  -0.76675
 Alpha  occ. eigenvalues --   -0.76557  -0.76441  -0.75909  -0.75610  -0.75170
 Alpha  occ. eigenvalues --   -0.74606  -0.72603  -0.72443  -0.72013  -0.71619
 Alpha  occ. eigenvalues --   -0.71187  -0.70958  -0.70875  -0.70215  -0.69718
 Alpha  occ. eigenvalues --   -0.69618  -0.68019  -0.67230  -0.66956  -0.66578
 Alpha  occ. eigenvalues --   -0.64411  -0.63740  -0.63577  -0.63190  -0.62633
 Alpha  occ. eigenvalues --   -0.62282  -0.61864  -0.61602  -0.60638  -0.60457
 Alpha  occ. eigenvalues --   -0.60416  -0.60143  -0.59990  -0.59508  -0.59414
 Alpha  occ. eigenvalues --   -0.58994  -0.57329  -0.56333  -0.55139  -0.54761
 Alpha  occ. eigenvalues --   -0.54596  -0.54355  -0.53786  -0.53742  -0.53600
 Alpha  occ. eigenvalues --   -0.53246  -0.52910  -0.52700  -0.52610  -0.51540
 Alpha  occ. eigenvalues --   -0.51022  -0.50890  -0.50744  -0.50374  -0.50176
 Alpha  occ. eigenvalues --   -0.50026  -0.49450  -0.49007  -0.48859  -0.48474
 Alpha  occ. eigenvalues --   -0.48315  -0.48080  -0.47912  -0.47649  -0.47439
 Alpha  occ. eigenvalues --   -0.47246  -0.47076  -0.46985  -0.46802  -0.46749
 Alpha  occ. eigenvalues --   -0.46598  -0.46433  -0.46212  -0.46191  -0.45950
 Alpha  occ. eigenvalues --   -0.45931  -0.45572  -0.45206  -0.45082  -0.45019
 Alpha  occ. eigenvalues --   -0.44804  -0.44748  -0.44626  -0.44557  -0.44332
 Alpha  occ. eigenvalues --   -0.44161  -0.44005  -0.43790  -0.43755  -0.43700
 Alpha  occ. eigenvalues --   -0.43496  -0.43117  -0.43056  -0.43032  -0.42686
 Alpha  occ. eigenvalues --   -0.42617  -0.42281  -0.42105  -0.41948  -0.41676
 Alpha  occ. eigenvalues --   -0.41596  -0.41576  -0.41500  -0.41414  -0.41183
 Alpha  occ. eigenvalues --   -0.41079  -0.40913  -0.40769  -0.40610  -0.40583
 Alpha  occ. eigenvalues --   -0.40461  -0.40320  -0.40253  -0.40170  -0.39927
 Alpha  occ. eigenvalues --   -0.39882  -0.39627  -0.39579  -0.39387  -0.38896
 Alpha  occ. eigenvalues --   -0.38779  -0.38561  -0.38538  -0.38373  -0.38348
 Alpha  occ. eigenvalues --   -0.38265  -0.38061  -0.37914  -0.37867  -0.37684
 Alpha  occ. eigenvalues --   -0.37637  -0.37401  -0.37117  -0.37019  -0.36969
 Alpha  occ. eigenvalues --   -0.36887  -0.36842  -0.36756  -0.36668  -0.36455
 Alpha  occ. eigenvalues --   -0.36212  -0.35992  -0.35961  -0.35673  -0.35503
 Alpha  occ. eigenvalues --   -0.35283  -0.35180  -0.34738  -0.34496  -0.33663
 Alpha  occ. eigenvalues --   -0.33364  -0.33253  -0.33045  -0.32811  -0.32510
 Alpha  occ. eigenvalues --   -0.32419  -0.32336  -0.31996  -0.31245  -0.30776
 Alpha  occ. eigenvalues --   -0.30449  -0.30329  -0.29892  -0.29646  -0.29437
 Alpha  occ. eigenvalues --   -0.29161  -0.29124  -0.27847  -0.27522  -0.26962
 Alpha  occ. eigenvalues --   -0.26502  -0.26390  -0.26008  -0.25951  -0.25570
 Alpha  occ. eigenvalues --   -0.25551  -0.25190  -0.25167  -0.21587  -0.21090
 Alpha  occ. eigenvalues --   -0.19292  -0.18770
 Alpha virt. eigenvalues --   -0.11729  -0.10987  -0.05844  -0.05723  -0.04487
 Alpha virt. eigenvalues --   -0.04449  -0.02179  -0.01930  -0.00514  -0.00288
 Alpha virt. eigenvalues --    0.00195   0.00375   0.00869   0.00977   0.01284

 Mulliken charges:
               1
     1  Mg  12.000000
     2  C    6.000000
     3  C    6.000000
     4  C    6.000000
     5  C    6.000000
     6  N    7.000000
     7  C    6.000000
     8  C    6.000000
     9  C    6.000000
    10  C    6.000000
    11  C    6.000000
    12  C    6.000000
    13  C    6.000000
    14  H    1.000000
    15  N    7.000000
    16  C    6.000000
    17  C    6.000000
    18  C    6.000000
    19  C    6.000000
    20  C    6.000000
    21  C    6.000000
    22  O    8.000000
    23  C    6.000000
    24  N    7.000000
    25  C    6.000000
    26  C    6.000000
    27  C    6.000000
    28  C    6.000000
    29  C    6.000000
    30  C    6.000000
    31  C    6.000000
    32  N    7.000000
    33  C    6.000000
    34  C    6.000000
    35  C    6.000000
    36  C    6.000000
    37  C    6.000000
    38  C    6.000000
    39  O    8.000000
    40  C    6.000000
    41  C    6.000000
    42  O    8.000000
    43  O    8.000000
    44  C    6.000000
    45  H    1.000000
    46  H    1.000000
    47  H    1.000000
    48  H    1.000000
    49  H    1.000000
    50  H    1.000000
    51  H    1.000000
    52  H    1.000000
    53  H    1.000000
    54  H    1.000000
    55  H    1.000000
    56  H    1.000000
    57  H    1.000000
    58  H    1.000000
    59  H    1.000000
    60  H    1.000000
    61  H    1.000000
    62  H    1.000000
    63  H    1.000000
    64  H    1.000000
    65  H    1.000000
    66  H    1.000000
    67  H    1.000000
    68  H    1.000000
    69  H    1.000000
    70  H    1.000000
    71  H    1.000000
    72  H    1.000000
    73  H    1.000000
    74  H    1.000000
    75  H    1.000000
    76  H    1.000000
    77  H    1.000000
    78  H    1.000000
    79  H    1.000000
    80  Mg  12.000000
    81  C    6.000000
    82  C    6.000000
    83  C    6.000000
    84  C    6.000000
    85  N    7.000000
    86  C    6.000000
    87  C    6.000000
    88  C    6.000000
    89  C    6.000000
    90  C    6.000000
    91  C    6.000000
    92  C    6.000000
    93  H    1.000000
    94  N    7.000000
    95  C    6.000000
    96  C    6.000000
    97  C    6.000000
    98  C    6.000000
    99  C    6.000000
   100  C    6.000000
   101  O    8.000000
   102  C    6.000000
   103  N    7.000000
   104  C    6.000000
   105  C    6.000000
   106  C    6.000000
   107  C    6.000000
   108  C    6.000000
   109  C    6.000000
   110  C    6.000000
   111  N    7.000000
   112  C    6.000000
   113  C    6.000000
   114  C    6.000000
   115  C    6.000000
   116  C    6.000000
   117  C    6.000000
   118  O    8.000000
   119  C    6.000000
   120  C    6.000000
   121  O    8.000000
   122  O    8.000000
   123  C    6.000000
   124  H    1.000000
   125  H    1.000000
   126  H    1.000000
   127  H    1.000000
   128  H    1.000000
   129  H    1.000000
   130  H    1.000000
   131  H    1.000000
   132  H    1.000000
   133  H    1.000000
   134  H    1.000000
   135  H    1.000000
   136  H    1.000000
   137  H    1.000000
   138  H    1.000000
   139  H    1.000000
   140  H    1.000000
   141  H    1.000000
   142  H    1.000000
   143  H    1.000000
   144  H    1.000000
   145  H    1.000000
   146  H    1.000000
   147  H    1.000000
   148  H    1.000000
   149  H    1.000000
   150  H    1.000000
   151  H    1.000000
   152  H    1.000000
   153  H    1.000000
   154  H    1.000000
   155  H    1.000000
   156  H    1.000000
   157  H    1.000000
   158  H    1.000000
 Sum of Mulliken charges = 624.00000

 Dipole moment (field-independent basis, Debye):
    X=             -0.0000    Y=             -0.0000    Z=              0.0000  Tot=              0.0000
 Quadrupole moment (field-independent basis, Debye-Ang):
   XX=             -0.0000   YY=             -0.0000   ZZ=              0.0000
   XY=             -0.0000   XZ=              0.0000   YZ=              0.0000

 Normal termination of Gaussian 16 at Thu Oct 14 10:32:08 2021.
