 Gaussian 16, Revision A.03,
 Gaussian 16:  ES64L-G16RevA.03 25-Dec-2016

 --------------------------------------------------------
 #p PBE1PBE/Def2SVP td=(nstates=5) density=(transition=1)
 --------------------------------------------------------

 --------------------------------
 TDDFT excited states in gaussian
 --------------------------------
 Symbolic Z-matrix:
 Charge =  0 Multiplicity = 1

                         Standard orientation:
 ---------------------------------------------------------------------
 Center     Atomic      Atomic             Coordinates (Angstroms)
 Number     Number       Type             X           Y           Z
 ---------------------------------------------------------------------
      1         12           0        8.801051    0.668006   -0.178717
      2          6           0        6.547264   -1.467460   -2.082707
      3          6           0        7.126228    3.359167   -1.498640
      4          6           0        9.718418    2.452963    2.496125
      5          6           0       10.430011   -2.105035    0.918129
      6          7           0        6.885438    0.877156   -1.495414
      7          6           0        6.182880   -0.151153   -2.221308
      8          6           0        5.215359    0.498913   -3.214331
      9          6           0        5.672843    1.985739   -3.284362
     10          6           0        6.643887    2.147507   -2.033443
     11          6           0        6.441052    2.358078   -4.639688
     12          6           0        3.749993    0.245673   -3.011999
     13          6           0        3.300825   -0.283962   -1.629674
     14          1           0        1.855937   -0.549157   -1.168777
     15          7           0        8.580194    2.704071    0.357050
     16          6           0        7.830449    3.640257   -0.320165
     17          6           0        8.030845    4.965095    0.345686
     18          6           0        8.675368    4.646962    1.538394
     19          6           0        8.993234    3.221274    1.569251
     20          6           0        7.459562    6.208554   -0.237933
     21          6           0        8.989319    5.669558    2.669060
     22          8           0        8.569671    6.805979    2.540500
     23          6           0        9.637580    5.324765    3.968792
     24          7           0        9.795067    0.127105    1.534285
     25          6           0       10.167785    1.133287    2.424835
     26          6           0       11.131926    0.598319    3.483668
     27          6           0       11.618602   -0.755646    2.851060
     28          6           0       10.617757   -0.908973    1.703570
     29          6           0       12.320922    1.492107    3.920843
     30          6           0       11.671567   -1.985136    3.813668
     31          6           0       13.129531   -2.464845    4.254737
     32          7           0        8.634651   -1.387226   -0.546302
     33          6           0        9.452063   -2.400796   -0.067678
     34          6           0        9.125417   -3.629749   -0.748224
     35          6           0        7.965251   -3.285998   -1.455345
     36          6           0        7.740466   -1.895421   -1.303543
     37          6           0        9.849724   -4.963707   -0.497312
     38          6           0        6.959775   -3.761521   -2.355402
     39          8           0        6.890540   -4.922539   -2.806683
     40          6           0        6.052487   -2.590290   -2.940381
     41          6           0        4.668391   -3.053195   -2.716491
     42          8           0        4.200346   -3.501021   -1.664402
     43          8           0        3.980667   -2.773066   -3.850528
     44          6           0        2.592002   -3.324207   -3.937346
     45          1           0        6.581352    4.212843   -1.905895
     46          1           0       10.022064    3.052801    3.356921
     47          1           0       11.053392   -2.956950    1.196250
     48          1           0        5.564856   -0.021529   -4.106044
     49          1           0        4.873186    2.688632   -3.050048
     50          1           0        5.754283    3.045740   -5.131621
     51          1           0        6.650985    1.446384   -5.199527
     52          1           0        7.340824    2.889610   -4.327838
     53          1           0        3.438426   -0.390954   -3.839889
     54          1           0        3.345216    1.240128   -3.202887
     55          1           0        3.732086    0.416966   -0.914264
     56          1           0        3.743414   -1.264697   -1.454246
     57          1           0        6.664556    6.517329    0.440205
     58          1           0        7.086650    5.975125   -1.234747
     59          1           0        8.252196    6.947744   -0.359014
     60          1           0        9.105425    4.661739    4.649866
     61          1           0        9.755904    6.189130    4.621564
     62          1           0       10.609261    4.977887    3.617484
     63          1           0       10.400106    0.487433    4.284658
     64          1           0       12.592818   -0.519635    2.422348
     65          1           0       12.150666    2.012175    4.864067
     66          1           0       12.469215    2.284247    3.187691
     67          1           0       13.211884    0.863450    3.937312
     68          1           0       11.151050   -2.868142    3.441856
     69          1           0       11.078388   -1.669273    4.671938
     70          1           0       12.993310   -2.639681    5.321671
     71          1           0       13.925033   -1.739938    4.081486
     72          1           0       13.379725   -3.320405    3.628437
     73          1           0        9.868698   -5.649992   -1.344213
     74          1           0        9.222866   -5.388814    0.285795
     75          1           0       10.911217   -4.788652   -0.323502
     76          1           0        6.292736   -2.442751   -3.994315
     77          1           0        2.146040   -3.025572   -4.886680
     78          1           0        1.961125   -2.931600   -3.139652
     79          1           0        2.771599   -4.396081   -3.866947
     80         12           0       -8.767800   -0.045257   -0.028470
     81          6           0       -6.017476   -2.170703    0.265340
     82          6           0       -7.099571    1.815958   -2.226143
     83          6           0      -10.844778    2.546774    0.779389
     84          6           0      -10.453993   -1.996433    2.313737
     85          7           0       -6.816865   -0.264729   -1.017465
     86          6           0       -5.908550   -1.195038   -0.749737
     87          6           0       -4.719646   -1.055134   -1.767912
     88          6           0       -5.045823    0.286621   -2.466502
     89          6           0       -6.394012    0.673842   -1.866221
     90          6           0       -4.024255    1.476759   -2.108029
     91          6           0       -4.577790   -2.249751   -2.816767
     92          6           0       -3.157701   -2.645447   -3.035123
     93          1           0       -2.616343   -2.742303   -4.453147
     94          7           0       -8.947076    1.898155   -0.667376
     95          6           0       -8.161043    2.491529   -1.619351
     96          6           0       -8.799547    3.747174   -2.037931
     97          6           0       -9.893211    3.948890   -1.150391
     98          6           0       -9.888132    2.777715   -0.258133
     99          6           0       -8.219621    4.668237   -3.158363
    100          6           0      -10.858310    5.168890   -1.055587
    101          8           0      -11.783381    5.254215   -0.255703
    102          6           0      -10.662092    6.285475   -2.010045
    103          7           0      -10.342006    0.252307    1.321552
    104          6           0      -11.045336    1.437867    1.555009
    105          6           0      -11.953633    1.265503    2.800483
    106          6           0      -12.243824   -0.299255    2.812778
    107          6           0      -10.924683   -0.684628    2.085132
    108          6           0      -11.340256    1.856141    4.088218
    109          6           0      -13.447035   -0.781108    2.053113
    110          6           0      -13.415797   -0.920609    0.560070
    111          7           0       -8.478117   -1.842068    0.947843
    112          6           0       -9.215739   -2.506423    1.900310
    113          6           0       -8.557747   -3.737601    2.343702
    114          6           0       -7.203992   -3.611393    1.792061
    115          6           0       -7.238633   -2.423186    0.963056
    116          6           0       -9.058463   -4.678850    3.314978
    117          6           0       -5.868049   -4.193333    1.748283
    118          8           0       -5.376943   -5.096271    2.314984
    119          6           0       -5.060623   -3.299603    0.669653
    120          6           0       -3.695229   -2.854385    1.129040
    121          8           0       -3.449735   -1.793863    1.696227
    122          8           0       -2.757847   -3.800192    0.715019
    123          6           0       -1.342064   -3.543139    1.035306
    124          1           0       -6.793813    2.434728   -3.072791
    125          1           0      -11.460415    3.422534    0.996752
    126          1           0      -11.075560   -2.609844    2.968798
    127          1           0       -3.761584   -0.920715   -1.265147
    128          1           0       -5.058242    0.273730   -3.556340
    129          1           0       -3.247620    1.464050   -2.873006
    130          1           0       -3.489237    1.364259   -1.165407
    131          1           0       -4.574006    2.416841   -2.167140
    132          1           0       -4.989809   -1.982965   -3.790134
    133          1           0       -5.127652   -3.158470   -2.571447
    134          1           0       -3.132321   -3.672833   -2.672925
    135          1           0       -2.386322   -2.104625   -2.487583
    136          1           0       -7.547624    5.359780   -2.650917
    137          1           0       -9.011243    5.152882   -3.730321
    138          1           0       -7.482691    4.180577   -3.797389
    139          1           0       -9.667501    6.643842   -2.275029
    140          1           0      -11.195280    7.167345   -1.655782
    141          1           0      -11.287722    6.118975   -2.887417
    142          1           0      -12.864947    1.793462    2.521124
    143          1           0      -12.320446   -0.698269    3.824065
    144          1           0      -11.267607    1.187445    4.945951
    145          1           0      -11.740517    2.834791    4.354000
    146          1           0      -10.300578    2.130222    3.910068
    147          1           0      -14.345493   -0.186500    2.213904
    148          1           0      -13.705313   -1.767805    2.437859
    149          1           0      -13.169655   -1.974737    0.433544
    150          1           0      -12.641178   -0.352821    0.044159
    151          1           0      -14.401629   -0.686749    0.156847
    152          1           0       -8.722566   -5.659006    2.976012
    153          1           0      -10.146428   -4.638296    3.268357
    154          1           0       -8.643308   -4.461701    4.298655
    155          1           0       -4.912487   -3.924911   -0.210783
    156          1           0       -1.290242   -3.350316    2.107204
    157          1           0       -0.985479   -2.648046    0.526320
    158          1           0       -0.590984   -4.297304    0.799747
 ---------------------------------------------------------------------

 SCF Done:  E(RPBE1PBE) =  -4067.35020748     A.U. after   16 cycles

 Excitation energies and oscillator strengths:

 Excited State   1:      Singlet-A      1.7419 eV  711.78 nm  f=0.0000  <S**2>=0.000
     312 -> 313        0.70708
 This state for optimization and/or second-order correction.
 Total Energy, E(TD-HF/TD-DFT) =  -4067.28619458
 Copying the excited state density for this state as the 1-particle RhoCI density.

 Excited State   2:      Singlet-A      1.8040 eV  687.27 nm  f=0.2635  <S**2>=0.000
     309 -> 315        0.15155
     311 -> 313        0.69210
     311 <- 313       -0.11677

 Excited State   3:      Singlet-A      1.8412 eV  673.39 nm  f=0.4233  <S**2>=0.000
     310 -> 316        0.16990
     312 -> 314        0.68881
     312 <- 314       -0.11222

 Excited State   4:      Singlet-A      1.8886 eV  656.50 nm  f=0.0000  <S**2>=0.000
     311 -> 314        0.70709

 Excited State   5:      Singlet-A      2.2618 eV  548.16 nm  f=0.1226  <S**2>=0.000
     309 -> 313       -0.11440
     310 -> 314        0.63502
     312 -> 316       -0.27486

 The electronic state is 1-A.
 Alpha  occ. eigenvalues --  -46.92765 -46.91245 -19.26256 -19.25294 -19.19968
 Alpha  occ. eigenvalues --  -19.19939 -19.19613 -19.19389 -19.19133 -19.17703
 Alpha  occ. eigenvalues --  -14.42042 -14.41539 -14.41245 -14.40934 -14.39338
 Alpha  occ. eigenvalues --  -14.38827 -14.38822 -14.38585 -10.36413 -10.36354
 Alpha  occ. eigenvalues --  -10.32763 -10.32540 -10.32381 -10.31065 -10.29577
 Alpha  occ. eigenvalues --  -10.29562 -10.29334 -10.29085 -10.28920 -10.28499
 Alpha  occ. eigenvalues --  -10.28474 -10.28359 -10.28303 -10.28257 -10.28207
 Alpha  occ. eigenvalues --  -10.27735 -10.27562 -10.27262 -10.27186 -10.27134
 Alpha  occ. eigenvalues --  -10.27022 -10.26610 -10.26496 -10.26492 -10.26480
 Alpha  occ. eigenvalues --  -10.26290 -10.26263 -10.26134 -10.26020 -10.25934
 Alpha  occ. eigenvalues --  -10.25858 -10.25782 -10.25776 -10.25742 -10.25671
 Alpha  occ. eigenvalues --  -10.25650 -10.25616 -10.25436 -10.25343 -10.25307
 Alpha  occ. eigenvalues --  -10.25174 -10.25025 -10.24981 -10.24933 -10.24909
 Alpha  occ. eigenvalues --  -10.24832 -10.24829 -10.24450 -10.24433 -10.24423
 Alpha  occ. eigenvalues --  -10.24231 -10.24019 -10.23931 -10.23740 -10.23709
 Alpha  occ. eigenvalues --  -10.23701 -10.23617 -10.23575 -10.23389 -10.23330
 Alpha  occ. eigenvalues --  -10.23095 -10.23089 -10.23015 -10.22949 -10.22108
 Alpha  occ. eigenvalues --  -10.21884  -3.14834  -3.13523  -1.87645  -1.87231
 Alpha  occ. eigenvalues --   -1.87037  -1.86368  -1.85874  -1.85774  -1.11088
 Alpha  occ. eigenvalues --   -1.09529  -1.07468  -1.05290  -1.04873  -1.02525
 Alpha  occ. eigenvalues --   -1.01909  -1.01764  -0.99765  -0.99705  -0.98852
 Alpha  occ. eigenvalues --   -0.98126  -0.97483  -0.97347  -0.96703  -0.94973
 Alpha  occ. eigenvalues --   -0.86514  -0.86012  -0.83709  -0.83324  -0.83238
 Alpha  occ. eigenvalues --   -0.83004  -0.82798  -0.82280  -0.81335  -0.81176
 Alpha  occ. eigenvalues --   -0.81152  -0.80980  -0.80586  -0.80526  -0.78704
 Alpha  occ. eigenvalues --   -0.78383  -0.78165  -0.77746  -0.76839  -0.76703
 Alpha  occ. eigenvalues --   -0.76680  -0.76001  -0.75468  -0.75137  -0.74632
 Alpha  occ. eigenvalues --   -0.74554  -0.72494  -0.72355  -0.72147  -0.71450
 Alpha  occ. eigenvalues --   -0.70972  -0.70909  -0.70456  -0.69925  -0.69659
 Alpha  occ. eigenvalues --   -0.69133  -0.67630  -0.66589  -0.66179  -0.65815
 Alpha  occ. eigenvalues --   -0.64077  -0.63512  -0.63464  -0.62816  -0.62287
 Alpha  occ. eigenvalues --   -0.62050  -0.61408  -0.61087  -0.60626  -0.60033
 Alpha  occ. eigenvalues --   -0.59893  -0.59367  -0.59078  -0.58662  -0.58439
 Alpha  occ. eigenvalues --   -0.58251  -0.56903  -0.56151  -0.54667  -0.54174
 Alpha  occ. eigenvalues --   -0.54011  -0.53843  -0.53778  -0.53333  -0.52665
 Alpha  occ. eigenvalues --   -0.52659  -0.52186  -0.52116  -0.51907  -0.51443
 Alpha  occ. eigenvalues --   -0.51438  -0.50887  -0.50356  -0.49960  -0.49870
 Alpha  occ. eigenvalues --   -0.49648  -0.49267  -0.49232  -0.48914  -0.48451
 Alpha  occ. eigenvalues --   -0.48382  -0.47995  -0.47827  -0.47809  -0.47505
 Alpha  occ. eigenvalues --   -0.47360  -0.47244  -0.47051  -0.46946  -0.46613
 Alpha  occ. eigenvalues --   -0.46592  -0.46153  -0.46065  -0.45999  -0.45903
 Alpha  occ. eigenvalues --   -0.45815  -0.45611  -0.45593  -0.45430  -0.44913
 Alpha  occ. eigenvalues --   -0.44652  -0.44649  -0.44462  -0.44460  -0.44085
 Alpha  occ. eigenvalues --   -0.44042  -0.43946  -0.43734  -0.43718  -0.43479
 Alpha  occ. eigenvalues --   -0.43179  -0.43150  -0.42890  -0.42889  -0.42549
 Alpha  occ. eigenvalues --   -0.42539  -0.42339  -0.42338  -0.41962  -0.41656
 Alpha  occ. eigenvalues --   -0.41571  -0.41444  -0.41329  -0.41268  -0.41255
 Alpha  occ. eigenvalues --   -0.41104  -0.40919  -0.40706  -0.40574  -0.40336
 Alpha  occ. eigenvalues --   -0.40314  -0.40133  -0.40054  -0.39846  -0.39671
 Alpha  occ. eigenvalues --   -0.39547  -0.39375  -0.39367  -0.39063  -0.38917
 Alpha  occ. eigenvalues --   -0.38849  -0.38816  -0.38485  -0.38429  -0.38331
 Alpha  occ. eigenvalues --   -0.38103  -0.37990  -0.37775  -0.37669  -0.37612
 Alpha  occ. eigenvalues --   -0.37439  -0.37431  -0.37142  -0.37137  -0.36890
 Alpha  occ. eigenvalues --   -0.36793  -0.36668  -0.36332  -0.36150  -0.36094
 Alpha  occ. eigenvalues --   -0.36021  -0.35861  -0.35784  -0.35303  -0.35087
 Alpha  occ. eigenvalues --   -0.34987  -0.34443  -0.34101  -0.33962  -0.33584
 Alpha  occ. eigenvalues --   -0.33549  -0.32918  -0.32601  -0.32501  -0.32260
 Alpha  occ. eigenvalues --   -0.31888  -0.31815  -0.31556  -0.31494  -0.31134
 Alpha  occ. eigenvalues --   -0.31059  -0.30871  -0.29446  -0.29438  -0.29149
 Alpha  occ. eigenvalues --   -0.29028  -0.28402  -0.28231  -0.27185  -0.26707
 Alpha  occ. eigenvalues --   -0.26145  -0.25893  -0.25871  -0.25583  -0.25470
 Alpha  occ. eigenvalues --   -0.25364  -0.25043  -0.24399  -0.21356  -0.20812
 Alpha  occ. eigenvalues --   -0.18539  -0.18346
 Alpha virt. eigenvalues --   -0.11179  -0.10842  -0.05379  -0.04816  -0.03743
 Alpha virt. eigenvalues --   -0.03211  -0.02091  -0.01828  -0.01480  -0.00037
 Alpha virt. eigenvalues --   -0.00018   0.00318   0.00907   0.01304   0.01491

 Mulliken charges:
               1
     1  Mg  12.000000
     2  C    5.999996
     3  C    5.999999
     4  C    6.000002
     5  C    5.999995
     6  N    6.999997
     7  C    6.000009
     8  C    5.999997
     9  C    6.000000
    10  C    5.999997
    11  C    6.000000
    12  C    6.000001
    13  C    5.999996
    14  H    0.999991
    15  N    7.000001
    16  C    5.999991
    17  C    5.999995
    18  C    5.999997
    19  C    5.999992
    20  C    6.000001
    21  C    5.999998
    22  O    7.999996
    23  C    6.000000
    24  N    6.999998
    25  C    5.999994
    26  C    6.000001
    27  C    5.999998
    28  C    6.000005
    29  C    6.000000
    30  C    5.999999
    31  C    6.000000
    32  N    7.000001
    33  C    6.000005
    34  C    6.000001
    35  C    6.000000
    36  C    6.000004
    37  C    6.000001
    38  C    6.000002
    39  O    8.000005
    40  C    6.000001
    41  C    6.000000
    42  O    8.000000
    43  O    8.000000
    44  C    6.000000
    45  H    0.999998
    46  H    0.999999
    47  H    1.000002
    48  H    0.999999
    49  H    1.000000
    50  H    1.000000
    51  H    0.999998
    52  H    1.000001
    53  H    1.000000
    54  H    1.000000
    55  H    1.000003
    56  H    0.999997
    57  H    0.999997
    58  H    0.999997
    59  H    0.999997
    60  H    0.999998
    61  H    0.999998
    62  H    0.999999
    63  H    1.000000
    64  H    1.000001
    65  H    1.000000
    66  H    1.000000
    67  H    0.999998
    68  H    0.999999
    69  H    1.000001
    70  H    1.000001
    71  H    1.000001
    72  H    1.000000
    73  H    1.000002
    74  H    1.000002
    75  H    1.000002
    76  H    1.000001
    77  H    1.000001
    78  H    1.000000
    79  H    1.000000
    80  Mg  12.000001
    81  C    6.000003
    82  C    6.000005
    83  C    6.000001
    84  C    6.000000
    85  N    7.000001
    86  C    5.999999
    87  C    6.000008
    88  C    6.000000
    89  C    5.999999
    90  C    6.000013
    91  C    5.999999
    92  C    6.000002
    93  H    1.000003
    94  N    7.000000
    95  C    5.999999
    96  C    6.000005
    97  C    6.000000
    98  C    6.000002
    99  C    6.000000
   100  C    6.000000
   101  O    8.000000
   102  C    6.000001
   103  N    7.000000
   104  C    6.000001
   105  C    6.000000
   106  C    6.000000
   107  C    6.000007
   108  C    6.000000
   109  C    6.000000
   110  C    6.000000
   111  N    6.999999
   112  C    6.000005
   113  C    6.000006
   114  C    6.000005
   115  C    6.000004
   116  C    6.000000
   117  C    6.000002
   118  O    8.000004
   119  C    5.999998
   120  C    6.000001
   121  O    8.000002
   122  O    8.000002
   123  C    5.999998
   124  H    1.000000
   125  H    0.999999
   126  H    1.000000
   127  H    0.999997
   128  H    1.000002
   129  H    0.999992
   130  H    0.999993
   131  H    0.999999
   132  H    1.000001
   133  H    1.000000
   134  H    1.000000
   135  H    0.999984
   136  H    1.000000
   137  H    0.999999
   138  H    0.999999
   139  H    1.000000
   140  H    0.999999
   141  H    0.999999
   142  H    1.000000
   143  H    1.000000
   144  H    0.999999
   145  H    1.000000
   146  H    1.000000
   147  H    1.000001
   148  H    1.000000
   149  H    1.000000
   150  H    1.000001
   151  H    1.000000
   152  H    1.000001
   153  H    1.000001
   154  H    1.000002
   155  H    1.000001
   156  H    1.000001
   157  H    0.999995
   158  H    1.000000
 Sum of Mulliken charges = 624.00000

 Dipole moment (field-independent basis, Debye):
    X=             -0.0034    Y=             -0.0021    Z=              0.0001  Tot=              0.0040
 Quadrupole moment (field-independent basis, Debye-Ang):
   XX=              0.0097   YY=             -0.0016   ZZ=              0.0003
   XY=             -0.0106   XZ=             -0.0059   YZ=             -0.0016

 Normal termination of Gaussian 16 at Wed Oct 13 22:46:49 2021.
