 Gaussian 16, Revision A.03,
 Gaussian 16:  ES64L-G16RevA.03 25-Dec-2016

 --------------------------------------------------------
 #p PBE1PBE/Def2SVP td=(nstates=5) density=(transition=1)
 --------------------------------------------------------

 --------------------------------
 TDDFT excited states in gaussian
 --------------------------------
 Symbolic Z-matrix:
 Charge =  0 Multiplicity = 1

                         Standard orientation:
 ---------------------------------------------------------------------
 Center     Atomic      Atomic             Coordinates (Angstroms)
 Number     Number       Type             X           Y           Z
 ---------------------------------------------------------------------
      1         12           0      -11.177023    0.181749   -0.770404
      2          6           0       -8.193611   -1.698722   -0.280286
      3          6           0      -13.008047   -2.700663   -0.502451
      4          6           0      -14.038062    2.111371   -0.188962
      5          6           0       -9.292048    3.129585   -0.445440
      6          7           0      -10.554634   -1.982666   -0.154110
      7          6           0       -9.335103   -2.537277   -0.248437
      8          6           0       -9.478528   -4.033146   -0.461435
      9          6           0      -11.042202   -4.390685   -0.466190
     10          6           0      -11.561926   -2.865651   -0.518423
     11          6           0      -11.363074   -5.203093   -1.740871
     12          6           0       -8.718024   -4.807127    0.603306
     13          6           0       -8.742863   -4.229350    2.038348
     14          1           0       -9.611381   -4.982918    3.082423
     15          7           0      -13.297171   -0.234530   -0.477935
     16          6           0      -13.786168   -1.519751   -0.389743
     17          6           0      -15.209765   -1.392610   -0.376284
     18          6           0      -15.584317   -0.007851   -0.187102
     19          6           0      -14.301451    0.727385   -0.322969
     20          6           0      -16.133147   -2.586076   -0.294365
     21          6           0      -16.951129    0.549583    0.213507
     22          8           0      -17.873128   -0.208418    0.445590
     23          6           0      -17.222758    1.948874    0.353459
     24          7           0      -11.608976    2.298623   -0.271182
     25          6           0      -12.827708    2.817301   -0.241732
     26          6           0      -12.839486    4.315403    0.015315
     27          6           0      -11.292482    4.548106    0.295023
     28          6           0      -10.666766    3.301390   -0.217684
     29          6           0      -13.398985    5.182027   -1.216022
     30          6           0      -11.046510    4.875869    1.839459
     31          6           0      -10.593873    6.243452    2.266486
     32          7           0       -9.224452    0.650417   -0.685384
     33          6           0       -8.590170    1.909455   -0.683902
     34          6           0       -7.126198    1.754333   -0.772014
     35          6           0       -6.984820    0.373052   -0.639981
     36          6           0       -8.249260   -0.289795   -0.462181
     37          6           0       -6.022446    2.829842   -1.060063
     38          6           0       -5.957806   -0.671250   -0.568898
     39          8           0       -4.718267   -0.650234   -0.646398
     40          6           0       -6.675844   -2.044309   -0.353631
     41          6           0       -6.121318   -2.410629    0.979688
     42          8           0       -6.225549   -1.750977    1.981880
     43          8           0       -5.381416   -3.511135    0.878944
     44          6           0       -4.788434   -4.118282    2.121392
     45          1           0      -13.569020   -3.612191   -0.718284
     46          1           0      -14.845125    2.837989   -0.076066
     47          1           0       -8.813043    4.088890   -0.236146
     48          1           0       -8.976736   -4.102048   -1.426636
     49          1           0      -11.353557   -4.918849    0.435425
     50          1           0      -11.763116   -6.169480   -1.434666
     51          1           0      -10.498642   -5.420830   -2.368657
     52          1           0      -12.140427   -4.643670   -2.260630
     53          1           0       -7.670121   -4.889231    0.314630
     54          1           0       -9.133141   -5.808936    0.717347
     55          1           0       -9.189947   -3.245711    2.181453
     56          1           0       -7.696901   -4.224934    2.345229
     57          1           0      -15.580132   -3.521884   -0.209567
     58          1           0      -16.817072   -2.531207   -1.142017
     59          1           0      -16.794782   -2.423910    0.555820
     60          1           0      -16.673447    2.455215    1.147460
     61          1           0      -18.282321    2.089809    0.566063
     62          1           0      -16.901913    2.351168   -0.608046
     63          1           0      -13.341571    4.603800    0.938461
     64          1           0      -11.130258    5.499577   -0.211743
     65          1           0      -13.739971    4.512521   -2.006240
     66          1           0      -12.561266    5.758163   -1.609412
     67          1           0      -14.171892    5.913394   -0.974783
     68          1           0      -10.220351    4.288712    2.240635
     69          1           0      -11.935209    4.659693    2.430816
     70          1           0       -9.528798    6.306417    2.489678
     71          1           0      -11.179506    6.347289    3.180509
     72          1           0      -10.983056    7.064432    1.664071
     73          1           0       -5.881319    3.409696   -0.148357
     74          1           0       -6.357544    3.408221   -1.921199
     75          1           0       -5.080218    2.313262   -1.242064
     76          1           0       -6.379970   -2.671450   -1.195417
     77          1           0       -3.837779   -3.664070    2.401687
     78          1           0       -4.619362   -5.188379    1.994650
     79          1           0       -5.547008   -3.969111    2.889755
     80         12           0       10.530145    0.730560   -0.254158
     81          6           0       10.930108   -2.650130    0.030147
     82          6           0        7.080613    0.227266    0.460022
     83          6           0       10.164805    4.082833   -0.132890
     84          6           0       13.982830    1.128808   -0.014376
     85          7           0        9.197636   -1.072190    0.585688
     86          6           0        9.576468   -2.361565    0.360484
     87          6           0        8.459540   -3.294439    0.738858
     88          6           0        7.194556   -2.346278    0.913075
     89          6           0        7.805233   -0.937470    0.629306
     90          6           0        5.911121   -2.846491    0.358005
     91          6           0        8.672642   -4.355983    1.919152
     92          6           0        9.583817   -3.983912    3.051093
     93          1           0        9.061750   -4.211550    4.462801
     94          7           0        8.822909    1.950455   -0.125096
     95          6           0        7.538635    1.581989    0.131083
     96          6           0        6.656295    2.709428    0.194194
     97          6           0        7.545564    3.867567   -0.101138
     98          6           0        8.920863    3.324088   -0.138876
     99          6           0        5.222745    2.729284    0.436100
    100          6           0        7.171403    5.326555   -0.319567
    101          8           0        6.071779    5.701044   -0.113935
    102          6           0        8.106016    6.442279   -0.697032
    103          7           0       11.854537    2.331179    0.032029
    104          6           0       11.455715    3.600213   -0.143596
    105          6           0       12.670597    4.627095    0.150618
    106          6           0       13.894648    3.647925   -0.199212
    107          6           0       13.212102    2.316252    0.004159
    108          6           0       12.666745    5.918434   -0.672253
    109          6           0       15.157385    3.951955    0.627044
    110          6           0       16.528787    4.065340   -0.049146
    111          7           0       12.146219   -0.493461    0.075062
    112          6           0       13.510209   -0.231910    0.112458
    113          6           0       14.267267   -1.422783    0.128886
    114          6           0       13.328076   -2.437297    0.043783
    115          6           0       12.023521   -1.828645    0.012263
    116          6           0       15.758021   -1.563914    0.143716
    117          6           0       13.055191   -3.809099   -0.072720
    118          8           0       13.869600   -4.729770   -0.092259
    119          6           0       11.525016   -4.037022    0.086884
    120          6           0       11.182933   -4.923422   -1.101638
    121          8           0       10.562361   -6.004203   -1.014607
    122          8           0       11.548856   -4.245456   -2.240519
    123          6           0       11.142057   -4.699798   -3.592764
    124          1           0        6.066075    0.018188    0.805463
    125          1           0       10.052337    5.141637    0.108976
    126          1           0       15.066329    1.262065   -0.011337
    127          1           0        8.298531   -3.989078   -0.086366
    128          1           0        7.019142   -2.279819    1.986425
    129          1           0        5.386531   -2.111466   -0.252325
    130          1           0        5.277754   -3.295568    1.123055
    131          1           0        6.115326   -3.650481   -0.349165
    132          1           0        9.091546   -5.309257    1.596623
    133          1           0        7.729664   -4.503196    2.446597
    134          1           0       10.077017   -3.018571    2.942180
    135          1           0       10.390142   -4.718061    3.058500
    136          1           0        4.790430    1.807085    0.049087
    137          1           0        4.706876    3.576811   -0.013630
    138          1           0        5.089848    2.770449    1.517787
    139          1           0        8.770222    5.813162   -1.290086
    140          1           0        8.629739    6.865915    0.159339
    141          1           0        7.687602    7.271282   -1.268044
    142          1           0       12.663431    4.788571    1.228995
    143          1           0       14.241500    3.593212   -1.230809
    144          1           0       13.453092    5.817610   -1.420811
    145          1           0       12.668730    6.787235   -0.014655
    146          1           0       11.746117    6.064125   -1.236552
    147          1           0       15.227461    3.169751    1.383390
    148          1           0       14.957491    4.842282    1.223438
    149          1           0       17.152069    4.930899    0.175929
    150          1           0       16.484953    3.913816   -1.128468
    151          1           0       16.998654    3.127628    0.245815
    152          1           0       16.140188   -2.424816   -0.405355
    153          1           0       16.085966   -1.639000    1.180755
    154          1           0       16.275052   -0.725063   -0.324066
    155          1           0       11.458503   -4.545567    1.047912
    156          1           0       10.883801   -3.871898   -4.252827
    157          1           0       10.276207   -5.353028   -3.483418
    158          1           0       11.818826   -5.291542   -4.207873
 ---------------------------------------------------------------------

 SCF Done:  E(RPBE1PBE) =  -4067.28741500     A.U. after   16 cycles

 Excitation energies and oscillator strengths:

 Excited State   1:      Singlet-A      1.7420 eV  711.74 nm  f=0.0000  <S**2>=0.000
     312 -> 313        0.70709
 This state for optimization and/or second-order correction.
 Total Energy, E(TD-HF/TD-DFT) =  -4067.22339826
 Copying the excited state density for this state as the 1-particle RhoCI density.

 Excited State   2:      Singlet-A      1.7936 eV  691.27 nm  f=0.4202  <S**2>=0.000
     309 -> 316       -0.16463
     311 -> 313        0.69283
     311 <- 313       -0.11713

 Excited State   3:      Singlet-A      1.8535 eV  668.93 nm  f=0.3145  <S**2>=0.000
     310 -> 315        0.19333
     312 -> 314        0.68414

 Excited State   4:      Singlet-A      2.0022 eV  619.24 nm  f=0.0000  <S**2>=0.000
     311 -> 314        0.70706

 Excited State   5:      Singlet-A      2.1560 eV  575.07 nm  f=0.1259  <S**2>=0.000
     308 -> 313        0.10135
     309 -> 313        0.65370
     311 -> 316        0.23187

 The electronic state is 1-A.
 Alpha  occ. eigenvalues --  -46.93575 -46.93254 -19.26689 -19.25724 -19.20424
 Alpha  occ. eigenvalues --  -19.19133 -19.19087 -19.18427 -19.18249 -19.17512
 Alpha  occ. eigenvalues --  -14.42021 -14.41920 -14.41450 -14.41406 -14.39835
 Alpha  occ. eigenvalues --  -14.39729 -14.39186 -14.39128 -10.37356 -10.35746
 Alpha  occ. eigenvalues --  -10.32187 -10.31401 -10.31165 -10.30811 -10.29866
 Alpha  occ. eigenvalues --  -10.29765 -10.29698 -10.29554 -10.29137 -10.29107
 Alpha  occ. eigenvalues --  -10.28787 -10.28786 -10.28693 -10.28558 -10.28542
 Alpha  occ. eigenvalues --  -10.28494 -10.28344 -10.28139 -10.28075 -10.27704
 Alpha  occ. eigenvalues --  -10.27464 -10.26764 -10.26708 -10.26692 -10.26561
 Alpha  occ. eigenvalues --  -10.26537 -10.26143 -10.26129 -10.26041 -10.26040
 Alpha  occ. eigenvalues --  -10.26002 -10.25889 -10.25872 -10.25801 -10.25751
 Alpha  occ. eigenvalues --  -10.25692 -10.25675 -10.25671 -10.25658 -10.25537
 Alpha  occ. eigenvalues --  -10.25312 -10.25139 -10.25075 -10.25048 -10.24916
 Alpha  occ. eigenvalues --  -10.24717 -10.24642 -10.24553 -10.24408 -10.24329
 Alpha  occ. eigenvalues --  -10.24299 -10.24215 -10.24170 -10.24070 -10.23970
 Alpha  occ. eigenvalues --  -10.23764 -10.23654 -10.23584 -10.23550 -10.23411
 Alpha  occ. eigenvalues --  -10.22941 -10.22915 -10.22884 -10.22541 -10.22534
 Alpha  occ. eigenvalues --  -10.22461  -3.15469  -3.15306  -1.88270  -1.88102
 Alpha  occ. eigenvalues --   -1.87873  -1.87716  -1.87668  -1.87503  -1.11843
 Alpha  occ. eigenvalues --   -1.10247  -1.06278  -1.04921  -1.03823  -1.03577
 Alpha  occ. eigenvalues --   -1.02530  -1.01903  -0.99660  -0.99204  -0.98845
 Alpha  occ. eigenvalues --   -0.98270  -0.97530  -0.97078  -0.96811  -0.96216
 Alpha  occ. eigenvalues --   -0.87844  -0.86304  -0.84032  -0.83237  -0.83050
 Alpha  occ. eigenvalues --   -0.82899  -0.82644  -0.82549  -0.82089  -0.81478
 Alpha  occ. eigenvalues --   -0.81396  -0.80468  -0.80240  -0.79604  -0.78906
 Alpha  occ. eigenvalues --   -0.78774  -0.78319  -0.78150  -0.77288  -0.77080
 Alpha  occ. eigenvalues --   -0.76832  -0.76336  -0.75432  -0.75225  -0.74781
 Alpha  occ. eigenvalues --   -0.74595  -0.72713  -0.72232  -0.72028  -0.71630
 Alpha  occ. eigenvalues --   -0.71272  -0.70872  -0.70689  -0.70558  -0.69765
 Alpha  occ. eigenvalues --   -0.69292  -0.67966  -0.67294  -0.66177  -0.66118
 Alpha  occ. eigenvalues --   -0.64301  -0.63732  -0.63225  -0.62911  -0.62625
 Alpha  occ. eigenvalues --   -0.62534  -0.61131  -0.61075  -0.60583  -0.60003
 Alpha  occ. eigenvalues --   -0.59995  -0.59618  -0.59335  -0.59141  -0.58741
 Alpha  occ. eigenvalues --   -0.58565  -0.58020  -0.57016  -0.54838  -0.54749
 Alpha  occ. eigenvalues --   -0.53911  -0.53847  -0.53588  -0.53426  -0.53087
 Alpha  occ. eigenvalues --   -0.52536  -0.52394  -0.51895  -0.51832  -0.51745
 Alpha  occ. eigenvalues --   -0.51039  -0.50748  -0.50359  -0.50282  -0.49777
 Alpha  occ. eigenvalues --   -0.49598  -0.49548  -0.49489  -0.49109  -0.48895
 Alpha  occ. eigenvalues --   -0.48451  -0.48420  -0.48061  -0.47867  -0.47685
 Alpha  occ. eigenvalues --   -0.47653  -0.47206  -0.46982  -0.46922  -0.46659
 Alpha  occ. eigenvalues --   -0.46412  -0.46405  -0.46300  -0.46277  -0.46074
 Alpha  occ. eigenvalues --   -0.45907  -0.45574  -0.45290  -0.45213  -0.45083
 Alpha  occ. eigenvalues --   -0.44792  -0.44522  -0.44362  -0.44279  -0.44217
 Alpha  occ. eigenvalues --   -0.44044  -0.44033  -0.43808  -0.43749  -0.43541
 Alpha  occ. eigenvalues --   -0.43518  -0.43116  -0.42921  -0.42861  -0.42436
 Alpha  occ. eigenvalues --   -0.42390  -0.42206  -0.41950  -0.41902  -0.41833
 Alpha  occ. eigenvalues --   -0.41744  -0.41626  -0.41599  -0.41561  -0.41325
 Alpha  occ. eigenvalues --   -0.41089  -0.41022  -0.40834  -0.40528  -0.40281
 Alpha  occ. eigenvalues --   -0.40198  -0.40079  -0.40058  -0.40046  -0.39916
 Alpha  occ. eigenvalues --   -0.39815  -0.39658  -0.39564  -0.39478  -0.39130
 Alpha  occ. eigenvalues --   -0.38887  -0.38754  -0.38716  -0.38564  -0.38344
 Alpha  occ. eigenvalues --   -0.38217  -0.37985  -0.37856  -0.37747  -0.37419
 Alpha  occ. eigenvalues --   -0.37384  -0.37250  -0.37013  -0.36878  -0.36801
 Alpha  occ. eigenvalues --   -0.36681  -0.36454  -0.36331  -0.36326  -0.36216
 Alpha  occ. eigenvalues --   -0.36122  -0.36118  -0.35715  -0.35390  -0.35018
 Alpha  occ. eigenvalues --   -0.34993  -0.34955  -0.34718  -0.33844  -0.33639
 Alpha  occ. eigenvalues --   -0.33586  -0.32950  -0.32931  -0.32404  -0.32237
 Alpha  occ. eigenvalues --   -0.32099  -0.31776  -0.31748  -0.31412  -0.31057
 Alpha  occ. eigenvalues --   -0.30715  -0.30576  -0.29721  -0.29274  -0.29130
 Alpha  occ. eigenvalues --   -0.28887  -0.28837  -0.28493  -0.27062  -0.27012
 Alpha  occ. eigenvalues --   -0.26237  -0.26014  -0.25534  -0.25364  -0.25184
 Alpha  occ. eigenvalues --   -0.24835  -0.24481  -0.23638  -0.21315  -0.21221
 Alpha  occ. eigenvalues --   -0.19257  -0.18980
 Alpha virt. eigenvalues --   -0.11956  -0.11263  -0.05923  -0.05386  -0.03965
 Alpha virt. eigenvalues --   -0.03791  -0.02064  -0.01796  -0.01693  -0.01665
 Alpha virt. eigenvalues --    0.00033   0.00419   0.00714   0.00955   0.01907

 Mulliken charges:
               1
     1  Mg  12.000000
     2  C    6.000000
     3  C    6.000000
     4  C    6.000000
     5  C    6.000000
     6  N    7.000000
     7  C    6.000000
     8  C    6.000000
     9  C    6.000000
    10  C    6.000000
    11  C    6.000000
    12  C    6.000000
    13  C    6.000000
    14  H    1.000000
    15  N    7.000000
    16  C    6.000000
    17  C    6.000000
    18  C    6.000000
    19  C    6.000000
    20  C    6.000000
    21  C    6.000000
    22  O    8.000000
    23  C    6.000000
    24  N    7.000000
    25  C    6.000000
    26  C    6.000000
    27  C    6.000000
    28  C    6.000000
    29  C    6.000000
    30  C    6.000000
    31  C    6.000000
    32  N    7.000000
    33  C    6.000000
    34  C    6.000000
    35  C    6.000000
    36  C    6.000000
    37  C    6.000000
    38  C    6.000000
    39  O    8.000000
    40  C    6.000000
    41  C    6.000000
    42  O    8.000000
    43  O    8.000000
    44  C    6.000000
    45  H    1.000000
    46  H    1.000000
    47  H    1.000000
    48  H    1.000000
    49  H    1.000000
    50  H    1.000000
    51  H    1.000000
    52  H    1.000000
    53  H    1.000000
    54  H    1.000000
    55  H    1.000000
    56  H    1.000000
    57  H    1.000000
    58  H    1.000000
    59  H    1.000000
    60  H    1.000000
    61  H    1.000000
    62  H    1.000000
    63  H    1.000000
    64  H    1.000000
    65  H    1.000000
    66  H    1.000000
    67  H    1.000000
    68  H    1.000000
    69  H    1.000000
    70  H    1.000000
    71  H    1.000000
    72  H    1.000000
    73  H    1.000000
    74  H    1.000000
    75  H    1.000000
    76  H    1.000000
    77  H    1.000000
    78  H    1.000000
    79  H    1.000000
    80  Mg  12.000000
    81  C    6.000000
    82  C    6.000000
    83  C    6.000000
    84  C    6.000000
    85  N    7.000000
    86  C    6.000000
    87  C    6.000000
    88  C    6.000000
    89  C    6.000000
    90  C    6.000000
    91  C    6.000000
    92  C    6.000000
    93  H    1.000000
    94  N    7.000000
    95  C    6.000000
    96  C    6.000000
    97  C    6.000000
    98  C    6.000000
    99  C    6.000000
   100  C    6.000000
   101  O    8.000000
   102  C    6.000000
   103  N    7.000000
   104  C    6.000000
   105  C    6.000000
   106  C    6.000000
   107  C    6.000000
   108  C    6.000000
   109  C    6.000000
   110  C    6.000000
   111  N    7.000000
   112  C    6.000000
   113  C    6.000000
   114  C    6.000000
   115  C    6.000000
   116  C    6.000000
   117  C    6.000000
   118  O    8.000000
   119  C    6.000000
   120  C    6.000000
   121  O    8.000000
   122  O    8.000000
   123  C    6.000000
   124  H    1.000000
   125  H    1.000000
   126  H    1.000000
   127  H    1.000000
   128  H    1.000000
   129  H    1.000000
   130  H    1.000000
   131  H    1.000000
   132  H    1.000000
   133  H    1.000000
   134  H    1.000000
   135  H    1.000000
   136  H    1.000000
   137  H    1.000000
   138  H    1.000000
   139  H    1.000000
   140  H    1.000000
   141  H    1.000000
   142  H    1.000000
   143  H    1.000000
   144  H    1.000000
   145  H    1.000000
   146  H    1.000000
   147  H    1.000000
   148  H    1.000000
   149  H    1.000000
   150  H    1.000000
   151  H    1.000000
   152  H    1.000000
   153  H    1.000000
   154  H    1.000000
   155  H    1.000000
   156  H    1.000000
   157  H    1.000000
   158  H    1.000000
 Sum of Mulliken charges = 624.00000

 Dipole moment (field-independent basis, Debye):
    X=              0.0000    Y=             -0.0000    Z=              0.0000  Tot=              0.0000
 Quadrupole moment (field-independent basis, Debye-Ang):
   XX=              0.0000   YY=             -0.0000   ZZ=             -0.0000
   XY=             -0.0000   XZ=             -0.0000   YZ=             -0.0000

 Normal termination of Gaussian 16 at Wed Oct 13 22:54:26 2021.
