 Gaussian 16, Revision A.03,
 Gaussian 16:  ES64L-G16RevA.03 25-Dec-2016

 --------------------------------------------------------
 #p PBE1PBE/Def2SVP td=(nstates=5) density=(transition=1)
 --------------------------------------------------------

 --------------------------------
 TDDFT excited states in gaussian
 --------------------------------
 Symbolic Z-matrix:
 Charge =  0 Multiplicity = 1

                         Standard orientation:
 ---------------------------------------------------------------------
 Center     Atomic      Atomic             Coordinates (Angstroms)
 Number     Number       Type             X           Y           Z
 ---------------------------------------------------------------------
      1         12           0       -0.749939    0.246736   -0.012557
      2          6           0        2.825619   -0.019547   -0.263605
      3          6           0       -0.800715   -3.295571   -0.155272
      4          6           0       -4.240715    0.277709    0.086625
      5          6           0       -0.606229    3.573381   -0.282893
      6          7           0        0.918468   -1.462688   -0.405852
      7          6           0        2.257260   -1.296648   -0.347783
      8          6           0        2.977363   -2.677030   -0.557978
      9          6           0        1.735562   -3.623648   -0.726770
     10          6           0        0.508792   -2.771230   -0.328831
     11          6           0        1.639554   -4.229772   -2.170364
     12          6           0        3.873372   -3.078563    0.613435
     13          6           0        5.212120   -3.637906    0.259187
     14          1           0        6.198039   -3.967433    1.389352
     15          7           0       -2.284040   -1.234977    0.175090
     16          6           0       -2.078129   -2.607472    0.082943
     17          6           0       -3.357607   -3.266660    0.254394
     18          6           0       -4.338676   -2.304160    0.426052
     19          6           0       -3.648786   -0.998707    0.151771
     20          6           0       -3.584908   -4.743950    0.109278
     21          6           0       -5.903335   -2.434871    0.631401
     22          8           0       -6.705249   -1.544345    0.772856
     23          6           0       -6.491570   -3.812941    0.843883
     24          7           0       -2.206490    1.635979   -0.232853
     25          6           0       -3.568130    1.495793   -0.164480
     26          6           0       -4.309422    2.802754   -0.530802
     27          6           0       -3.165366    3.896340   -0.402051
     28          6           0       -1.901413    2.964571   -0.264629
     29          6           0       -5.020204    2.733227   -1.920231
     30          6           0       -3.332482    4.869160    0.804730
     31          6           0       -3.162760    4.243897    2.187499
     32          7           0        0.714541    1.548018   -0.255255
     33          6           0        0.656336    2.969217   -0.288395
     34          6           0        1.996326    3.534887   -0.428627
     35          6           0        2.847738    2.417097   -0.367431
     36          6           0        2.056138    1.243892   -0.251317
     37          6           0        2.325227    4.951760   -0.530159
     38          6           0        4.263165    2.063741   -0.404898
     39          8           0        5.243212    2.788938   -0.437739
     40          6           0        4.320833    0.442435   -0.429293
     41          6           0        5.263567    0.203138    0.752520
     42          8           0        5.030590    0.339685    1.967099
     43          8           0        6.454353   -0.129633    0.285522
     44          6           0        7.493822   -0.696694    1.237294
     45          1           0       -0.798463   -4.386870   -0.125158
     46          1           0       -5.327867    0.386638    0.107623
     47          1           0       -0.628758    4.664835   -0.292011
     48          1           0        3.629602   -2.508776   -1.414275
     49          1           0        1.756799   -4.447193   -0.011770
     50          1           0        1.592552   -5.317136   -2.229763
     51          1           0        2.356331   -3.810723   -2.876826
     52          1           0        0.704731   -4.054486   -2.703267
     53          1           0        3.411780   -4.019901    0.912148
     54          1           0        3.865115   -2.354691    1.429070
     55          1           0        5.834349   -3.134083   -0.482247
     56          1           0        4.961375   -4.597794   -0.192437
     57          1           0       -2.642202   -5.285819    0.037694
     58          1           0       -4.191362   -5.038261   -0.748696
     59          1           0       -4.081083   -5.229218    0.949929
     60          1           0       -6.078796   -4.309938    1.721717
     61          1           0       -6.260833   -4.294033   -0.106650
     62          1           0       -7.565599   -3.627480    0.829744
     63          1           0       -5.124400    2.845934    0.192584
     64          1           0       -2.850726    4.403072   -1.314637
     65          1           0       -6.106965    2.730992   -1.836690
     66          1           0       -4.715474    1.952178   -2.615914
     67          1           0       -4.665302    3.657066   -2.377390
     68          1           0       -4.208187    5.487089    0.605726
     69          1           0       -2.526483    5.600173    0.743118
     70          1           0       -3.051908    3.160393    2.210034
     71          1           0       -4.079995    4.479554    2.726599
     72          1           0       -2.253399    4.515728    2.722241
     73          1           0        3.387540    5.172219   -0.636915
     74          1           0        1.937464    5.396281    0.386349
     75          1           0        1.757583    5.360235   -1.367443
     76          1           0        4.869699    0.060393   -1.290025
     77          1           0        8.236132   -1.183847    0.604646
     78          1           0        7.097468   -1.483261    1.878695
     79          1           0        7.925832    0.050061    1.904509
 ---------------------------------------------------------------------

 SCF Done:  E(RPBE1PBE) =  -2033.67333860     A.U. after   16 cycles

 Excitation energies and oscillator strengths:

 Excited State   1:      Singlet-A      1.8203 eV  681.13 nm  f=0.3579  <S**2>=0.000
     155 ->158         0.17695
     156 ->157         0.69236
     156 <-157        -0.10910
 This state for optimization and/or second-order correction.
 Total Energy, E(TD-HF/TD-DFT) =  -2033.60644487
 Copying the excited state density for this state as the 1-particle RhoCI density.

 Excited State   2:      Singlet-A      2.2320 eV  555.49 nm  f=0.0928  <S**2>=0.000
     155 ->157         0.63927
     156 ->158        -0.29194

 Excited State   3:      Singlet-A      3.0750 eV  403.20 nm  f=0.0041  <S**2>=0.000
     152 ->157        -0.37760
     152 ->159         0.10763
     153 ->157        -0.23815
     154 ->157         0.50662

 Excited State   4:      Singlet-A      3.0942 eV  400.69 nm  f=0.0014  <S**2>=0.000
     152 ->157         0.29569
     153 ->157         0.41105
     154 ->157         0.44685
     156 ->158         0.10386

 Excited State   5:      Singlet-A      3.1668 eV  391.51 nm  f=0.0001  <S**2>=0.000
     151 ->157        -0.15477
     152 ->157        -0.45038
     153 ->157         0.47964
     154 ->157        -0.15525

 The electronic state is 1-A.
 Alpha  occ. eigenvalues --  -46.91712 -19.25577 -19.19653 -19.19628 -19.18271
 Alpha  occ. eigenvalues --  -14.41961 -14.41112 -14.39730 -14.39415 -10.35513
 Alpha  occ. eigenvalues --  -10.32685 -10.32606 -10.29426 -10.29234 -10.29087
 Alpha  occ. eigenvalues --  -10.28983 -10.28820 -10.28680 -10.28287 -10.27833
 Alpha  occ. eigenvalues --  -10.27676 -10.26667 -10.26551 -10.26413 -10.26300
 Alpha  occ. eigenvalues --  -10.26236 -10.26214 -10.26201 -10.25986 -10.25948
 Alpha  occ. eigenvalues --  -10.25843 -10.25171 -10.24918 -10.24490 -10.24266
 Alpha  occ. eigenvalues --  -10.24212 -10.23694 -10.23656 -10.23571 -10.23468
 Alpha  occ. eigenvalues --  -10.23213 -10.22962 -10.22819  -3.13979  -1.86805
 Alpha  occ. eigenvalues --   -1.86370  -1.86208  -1.10735  -1.06144  -1.04823
 Alpha  occ. eigenvalues --   -1.00099  -0.98385  -0.97737  -0.96861  -0.96375
 Alpha  occ. eigenvalues --   -0.85214  -0.83483  -0.83018  -0.82285  -0.81706
 Alpha  occ. eigenvalues --   -0.81236  -0.80753  -0.78386  -0.77858  -0.76634
 Alpha  occ. eigenvalues --   -0.75653  -0.75329  -0.74495  -0.72421  -0.71609
 Alpha  occ. eigenvalues --   -0.71245  -0.70273  -0.69479  -0.67053  -0.66082
 Alpha  occ. eigenvalues --   -0.64405  -0.63161  -0.61963  -0.60653  -0.59886
 Alpha  occ. eigenvalues --   -0.59619  -0.59134  -0.58648  -0.56396  -0.54109
 Alpha  occ. eigenvalues --   -0.53920  -0.53480  -0.52387  -0.51962  -0.50641
 Alpha  occ. eigenvalues --   -0.50273  -0.49993  -0.49631  -0.49150  -0.48502
 Alpha  occ. eigenvalues --   -0.47806  -0.47733  -0.47527  -0.47258  -0.46957
 Alpha  occ. eigenvalues --   -0.46638  -0.46199  -0.45570  -0.45459  -0.44714
 Alpha  occ. eigenvalues --   -0.44385  -0.44203  -0.43876  -0.43843  -0.43560
 Alpha  occ. eigenvalues --   -0.43217  -0.43070  -0.42742  -0.42237  -0.42151
 Alpha  occ. eigenvalues --   -0.41499  -0.41349  -0.41061  -0.40914  -0.40566
 Alpha  occ. eigenvalues --   -0.40295  -0.39900  -0.39699  -0.39221  -0.39000
 Alpha  occ. eigenvalues --   -0.38817  -0.38415  -0.38248  -0.37936  -0.37872
 Alpha  occ. eigenvalues --   -0.37768  -0.37226  -0.36970  -0.36729  -0.36231
 Alpha  occ. eigenvalues --   -0.35730  -0.35265  -0.35140  -0.34542  -0.34024
 Alpha  occ. eigenvalues --   -0.33563  -0.33057  -0.32529  -0.31723  -0.31080
 Alpha  occ. eigenvalues --   -0.30660  -0.29110  -0.28672  -0.27630  -0.26917
 Alpha  occ. eigenvalues --   -0.26081  -0.25843  -0.25682  -0.25523  -0.21041
 Alpha  occ. eigenvalues --   -0.18638
 Alpha virt. eigenvalues --   -0.11158  -0.05497  -0.03594  -0.02057   0.00602
 Alpha virt. eigenvalues --    0.00861   0.01359   0.01739   0.02754   0.03747
 Alpha virt. eigenvalues --    0.04489   0.05212   0.05822   0.06742   0.06964

 Mulliken charges:
               1
     1  Mg  12.000228
     2  C    5.983271
     3  C    6.014528
     4  C    6.020813
     5  C    5.999290
     6  N    6.991044
     7  C    6.025761
     8  C    5.995308
     9  C    6.005794
    10  C    5.970119
    11  C    6.001909
    12  C    5.994950
    13  C    5.998319
    14  H    1.000174
    15  N    7.004523
    16  C    5.958413
    17  C    5.984260
    18  C    5.983450
    19  C    5.965685
    20  C    6.005299
    21  C    5.987551
    22  O    7.974475
    23  C    6.003101
    24  N    7.011160
    25  C    5.962862
    26  C    6.006240
    27  C    5.996074
    28  C    6.031163
    29  C    6.004429
    30  C    5.995156
    31  C    5.994482
    32  N    6.997772
    33  C    6.032387
    34  C    6.028663
    35  C    6.002149
    36  C    6.029777
    37  C    5.999552
    38  C    6.015824
    39  O    8.026698
    40  C    6.001990
    41  C    6.003363
    42  O    8.005238
    43  O    8.000217
    44  C    5.998137
    45  H    0.989928
    46  H    0.993789
    47  H    1.011695
    48  H    0.996401
    49  H    1.001299
    50  H    0.997478
    51  H    0.988271
    52  H    1.002343
    53  H    1.008567
    54  H    0.996514
    55  H    0.996767
    56  H    1.005279
    57  H    0.983941
    58  H    0.981453
    59  H    0.982636
    60  H    0.992725
    61  H    0.995258
    62  H    0.986871
    63  H    1.002773
    64  H    0.997856
    65  H    1.000542
    66  H    1.001540
    67  H    0.987864
    68  H    1.009514
    69  H    0.996056
    70  H    1.010273
    71  H    1.007827
    72  H    0.996166
    73  H    1.013447
    74  H    1.017023
    75  H    1.017023
    76  H    1.008427
    77  H    1.004307
    78  H    1.005028
    79  H    1.001518
 Sum of Mulliken charges = 312.00000

 Dipole moment (field-independent basis, Debye):
    X=              7.1224    Y=              7.2659    Z=             -0.4090  Tot=             10.1828
 Quadrupole moment (field-independent basis, Debye-Ang):
   XX=             -9.6431   YY=              2.3577   ZZ=             -0.2086
   XY=             -6.1470   XZ=              1.0405   YZ=             -0.5888

 Normal termination of Gaussian 16 at Wed Oct 13 19:15:24 2021.
