 Gaussian 16, Revision A.03,
 Gaussian 16:  ES64L-G16RevA.03 25-Dec-2016

 --------------------------------------------------------
 #p PBE1PBE/Def2SVP td=(nstates=5) density=(transition=1)
 --------------------------------------------------------

 --------------------------------
 TDDFT excited states in gaussian
 --------------------------------
 Symbolic Z-matrix:
 Charge =  0 Multiplicity = 1

                         Standard orientation:
 ---------------------------------------------------------------------
 Center     Atomic      Atomic             Coordinates (Angstroms)
 Number     Number       Type             X           Y           Z
 ---------------------------------------------------------------------
      1         12           0      -21.242739    0.090235   -0.463628
      2          6           0      -17.871791   -0.874567   -0.063312
      3          6           0      -22.214486   -3.127427    0.469135
      4          6           0      -24.360420    1.333295    0.127342
      5          6           0      -20.021911    3.431917   -0.879079
      6          7           0      -20.165935   -1.740236    0.084449
      7          6           0      -18.829987   -1.891076    0.206158
      8          6           0      -18.473331   -3.304641    0.770793
      9          6           0      -19.863616   -4.059095    0.545818
     10          6           0      -20.874294   -2.890897    0.307205
     11          6           0      -20.046602   -5.051386   -0.624903
     12          6           0      -18.048881   -3.157930    2.280942
     13          6           0      -16.918165   -4.129940    2.718380
     14          1           0      -17.084887   -4.768456    4.157183
     15          7           0      -23.140963   -0.826177    0.024139
     16          6           0      -23.281057   -2.157922    0.311952
     17          6           0      -24.660993   -2.383855    0.519149
     18          6           0      -25.343105   -1.130990    0.505602
     19          6           0      -24.296281   -0.112803    0.157194
     20          6           0      -25.284339   -3.729128    0.807477
     21          6           0      -26.754490   -0.876334    0.912272
     22          8           0      -27.462366   -1.757328    1.373256
     23          6           0      -27.402632    0.408735    0.875703
     24          7           0      -22.026718    2.159503   -0.286591
     25          6           0      -23.414147    2.346536   -0.198909
     26          6           0      -23.765817    3.785361   -0.414329
     27          6           0      -22.387659    4.498856   -0.674221
     28          6           0      -21.411326    3.336726   -0.615442
     29          6           0      -24.760932    3.887210   -1.577358
     30          6           0      -22.156419    5.776049    0.218163
     31          6           0      -21.888359    7.064256   -0.499235
     32          7           0      -19.320316    1.137313   -0.515524
     33          6           0      -19.027401    2.459035   -0.746160
     34          6           0      -17.567655    2.645138   -0.898611
     35          6           0      -17.113643    1.341990   -0.563146
     36          6           0      -18.188381    0.482342   -0.434074
     37          6           0      -16.772874    3.921233   -1.127272
     38          6           0      -15.919621    0.603524   -0.248265
     39          8           0      -14.739832    0.983986   -0.191653
     40          6           0      -16.299880   -0.842947    0.066837
     41          6           0      -15.578637   -1.787950   -0.806024
     42          8           0      -14.870017   -2.627293   -0.381824
     43          8           0      -15.960687   -1.725238   -2.114873
     44          6           0      -15.401033   -2.861502   -2.878549
     45          1           0      -22.554217   -4.143645    0.681875
     46          1           0      -25.399193    1.648446    0.237798
     47          1           0      -19.469427    4.371222   -0.956906
     48          1           0      -17.656573   -3.710444    0.173603
     49          1           0      -20.342255   -4.431973    1.451192
     50          1           0      -19.361414   -4.809278   -1.438106
     51          1           0      -21.053762   -5.140506   -1.032199
     52          1           0      -19.745817   -6.023023   -0.234497
     53          1           0      -18.913953   -3.255816    2.937431
     54          1           0      -17.699281   -2.128980    2.366004
     55          1           0      -16.024571   -3.506665    2.680594
     56          1           0      -16.883106   -4.840745    1.892476
     57          1           0      -26.347323   -3.826885    0.586629
     58          1           0      -25.104219   -3.866590    1.873325
     59          1           0      -24.736054   -4.605299    0.461288
     60          1           0      -27.402032    0.730782   -0.166423
     61          1           0      -26.908673    1.118668    1.539725
     62          1           0      -28.427278    0.287664    1.227312
     63          1           0      -24.121094    4.236060    0.512049
     64          1           0      -22.138140    4.756135   -1.703848
     65          1           0      -25.212467    2.931095   -1.843158
     66          1           0      -24.281846    4.245996   -2.488319
     67          1           0      -25.654124    4.415622   -1.245382
     68          1           0      -21.313488    5.511562    0.856621
     69          1           0      -23.030542    6.076977    0.794461
     70          1           0      -20.951644    7.459468   -0.107126
     71          1           0      -22.651419    7.813465   -0.287407
     72          1           0      -21.929352    6.968566   -1.584296
     73          1           0      -16.592739    4.475851   -0.206152
     74          1           0      -17.204920    4.565905   -1.893705
     75          1           0      -15.803799    3.509559   -1.408990
     76          1           0      -15.931150   -1.110910    1.056121
     77          1           0      -15.736342   -2.762385   -3.911276
     78          1           0      -15.730442   -3.810186   -2.454997
     79          1           0      -14.317535   -2.837771   -2.989810
     80         12           0       20.470981    0.771863   -0.221122
     81          6           0       20.316138   -2.659189   -0.586278
     82          6           0       17.303086    0.675478    1.122557
     83          6           0       20.841943    4.062187    0.692857
     84          6           0       23.679035    0.769890   -1.469953
     85          7           0       19.075695   -0.811248    0.397391
     86          6           0       19.222368   -2.143888    0.066266
     87          6           0       18.013964   -2.972619    0.493792
     88          6           0       16.938529   -1.845195    0.718469
     89          6           0       17.822118   -0.608692    0.795408
     90          6           0       15.729906   -1.767171   -0.320459
     91          6           0       18.227943   -3.942257    1.699594
     92          6           0       17.662576   -5.336649    1.530489
     93          1           0       16.470729   -5.586461    2.441476
     94          7           0       19.241764    2.121254    0.771942
     95          6           0       17.996014    1.908272    1.210616
     96          6           0       17.421755    3.130384    1.746236
     97          6           0       18.342759    4.162565    1.680533
     98          6           0       19.567613    3.479755    1.078999
     99          6           0       15.960462    3.181495    2.402040
    100          6           0       18.111173    5.662294    2.067406
    101          8           0       17.002442    5.991932    2.575998
    102          6           0       19.167055    6.687135    1.901773
    103          7           0       22.175939    2.216085   -0.144084
    104          6           0       22.023619    3.497724    0.097946
    105          6           0       23.181769    4.332999   -0.406474
    106          6           0       24.205902    3.335390   -1.046401
    107          6           0       23.305999    2.010357   -0.972061
    108          6           0       22.908617    5.674684   -1.158455
    109          6           0       25.606929    3.119727   -0.404156
    110          6           0       26.597534    2.471679   -1.349209
    111          7           0       21.778738   -0.678167   -0.897368
    112          6           0       23.061609   -0.526328   -1.472562
    113          6           0       23.484988   -1.814191   -1.950700
    114          6           0       22.427518   -2.711419   -1.663551
    115          6           0       21.471565   -1.950042   -0.996889
    116          6           0       24.694030   -2.102465   -2.828165
    117          6           0       22.046300   -4.026365   -1.820721
    118          8           0       22.574517   -5.031010   -2.212820
    119          6           0       20.670170   -4.111761   -0.977062
    120          6           0       21.089193   -4.757561    0.342753
    121          8           0       21.618826   -4.185698    1.276050
    122          8           0       20.766706   -6.101779    0.248709
    123          6           0       21.184052   -6.937308    1.370028
    124          1           0       16.241216    0.742655    1.367612
    125          1           0       20.886455    5.109413    0.998096
    126          1           0       24.619077    0.639749   -2.010150
    127          1           0       17.686627   -3.542430   -0.375361
    128          1           0       16.607678   -1.935011    1.753793
    129          1           0       15.426190   -0.724964   -0.222779
    130          1           0       14.837285   -2.311501   -0.011187
    131          1           0       15.948930   -2.042369   -1.352064
    132          1           0       17.723688   -3.430533    2.519581
    133          1           0       19.228773   -3.983830    2.128879
    134          1           0       18.467893   -6.039732    1.744405
    135          1           0       17.309451   -5.524027    0.516249
    136          1           0       15.438005    2.225056    2.448342
    137          1           0       15.324554    3.885654    1.864455
    138          1           0       15.975973    3.433183    3.461565
    139          1           0       19.450653    6.750575    0.851701
    140          1           0       19.975403    6.551154    2.620352
    141          1           0       18.635771    7.630247    2.023585
    142          1           0       23.850067    4.722232    0.361901
    143          1           0       24.252531    3.424295   -2.132025
    144          1           0       21.853700    5.898483   -0.993932
    145          1           0       23.226027    5.668274   -2.201833
    146          1           0       23.442799    6.532986   -0.750686
    147          1           0       25.433316    2.552829    0.510395
    148          1           0       25.907309    4.115858   -0.079366
    149          1           0       27.588601    2.845472   -1.090771
    150          1           0       26.439824    2.682537   -2.407591
    151          1           0       26.647090    1.404460   -1.132981
    152          1           0       24.710920   -3.112082   -3.238738
    153          1           0       25.585593   -1.903712   -2.234840
    154          1           0       24.738468   -1.419811   -3.676833
    155          1           0       19.882915   -4.603767   -1.549084
    156          1           0       22.272847   -6.969131    1.413436
    157          1           0       20.750644   -7.935360    1.315420
    158          1           0       20.870622   -6.472298    2.304283
 ---------------------------------------------------------------------

 SCF Done:  E(RPBE1PBE) =  -4067.35011645     A.U. after   17 cycles

 Excitation energies and oscillator strengths:

 Excited State   1:      Singlet-A      1.8469 eV  671.32 nm  f=0.3962  <S**2>=0.000
     309 -> 315       -0.16873
     311 -> 313        0.69408
     311 <- 313       -0.11312
 This state for optimization and/or second-order correction.
 Total Energy, E(TD-HF/TD-DFT) =  -4067.28224549
 Copying the excited state density for this state as the 1-particle RhoCI density.

 Excited State   2:      Singlet-A      1.8527 eV  669.22 nm  f=0.0000  <S**2>=0.000
     312 -> 313        0.70710

 Excited State   3:      Singlet-A      1.8859 eV  657.42 nm  f=0.3571  <S**2>=0.000
     310 -> 316        0.14503
     312 -> 314        0.69229

 Excited State   4:      Singlet-A      2.1427 eV  578.63 nm  f=0.0000  <S**2>=0.000
     311 -> 314        0.70711

 Excited State   5:      Singlet-A      2.2121 eV  560.47 nm  f=0.1068  <S**2>=0.000
     309 -> 313        0.65186
     311 -> 315        0.25461

 The electronic state is 1-A.
 Alpha  occ. eigenvalues --  -46.94203 -46.92764 -19.25717 -19.25291 -19.20243
 Alpha  occ. eigenvalues --  -19.20117 -19.20044 -19.18992 -19.18444 -19.17636
 Alpha  occ. eigenvalues --  -14.42429 -14.42306 -14.41691 -14.41555 -14.39946
 Alpha  occ. eigenvalues --  -14.39597 -14.38889 -14.38388 -10.36271 -10.35716
 Alpha  occ. eigenvalues --  -10.33799 -10.31837 -10.30913 -10.30700 -10.30193
 Alpha  occ. eigenvalues --  -10.29935 -10.29681 -10.29662 -10.29655 -10.29035
 Alpha  occ. eigenvalues --  -10.28980 -10.28907 -10.28808 -10.28512 -10.28445
 Alpha  occ. eigenvalues --  -10.28089 -10.27816 -10.27805 -10.27684 -10.26873
 Alpha  occ. eigenvalues --  -10.26858 -10.26852 -10.26834 -10.26811 -10.26629
 Alpha  occ. eigenvalues --  -10.26333 -10.26297 -10.26295 -10.26277 -10.26110
 Alpha  occ. eigenvalues --  -10.26090 -10.26029 -10.26023 -10.25990 -10.25829
 Alpha  occ. eigenvalues --  -10.25797 -10.25574 -10.25499 -10.25372 -10.25321
 Alpha  occ. eigenvalues --  -10.25295 -10.25235 -10.25107 -10.24991 -10.24587
 Alpha  occ. eigenvalues --  -10.24536 -10.24526 -10.24524 -10.24499 -10.24496
 Alpha  occ. eigenvalues --  -10.24475 -10.24424 -10.24418 -10.24387 -10.24261
 Alpha  occ. eigenvalues --  -10.24043 -10.23917 -10.23801 -10.23595 -10.23317
 Alpha  occ. eigenvalues --  -10.23165 -10.23092 -10.23052 -10.22831 -10.22656
 Alpha  occ. eigenvalues --  -10.21411  -3.15942  -3.14785  -1.88794  -1.88295
 Alpha  occ. eigenvalues --   -1.88157  -1.87609  -1.87163  -1.87012  -1.12727
 Alpha  occ. eigenvalues --   -1.10338  -1.05007  -1.04375  -1.03872  -1.03599
 Alpha  occ. eigenvalues --   -1.03452  -1.02861  -0.99741  -0.99134  -0.98407
 Alpha  occ. eigenvalues --   -0.98348  -0.98033  -0.97869  -0.97274  -0.97181
 Alpha  occ. eigenvalues --   -0.86941  -0.86204  -0.83712  -0.83448  -0.83369
 Alpha  occ. eigenvalues --   -0.82728  -0.82563  -0.82356  -0.82147  -0.81349
 Alpha  occ. eigenvalues --   -0.81277  -0.80545  -0.80330  -0.80222  -0.79177
 Alpha  occ. eigenvalues --   -0.78936  -0.78621  -0.77905  -0.77201  -0.77018
 Alpha  occ. eigenvalues --   -0.76756  -0.76322  -0.75229  -0.75162  -0.74926
 Alpha  occ. eigenvalues --   -0.74570  -0.73002  -0.71955  -0.71907  -0.71319
 Alpha  occ. eigenvalues --   -0.71197  -0.70896  -0.70794  -0.69819  -0.69721
 Alpha  occ. eigenvalues --   -0.69452  -0.67606  -0.66992  -0.66912  -0.66085
 Alpha  occ. eigenvalues --   -0.64061  -0.63795  -0.63640  -0.63452  -0.62451
 Alpha  occ. eigenvalues --   -0.62424  -0.61580  -0.61335  -0.60776  -0.60160
 Alpha  occ. eigenvalues --   -0.59993  -0.59885  -0.59597  -0.59228  -0.59188
 Alpha  occ. eigenvalues --   -0.58681  -0.57832  -0.56368  -0.54683  -0.54561
 Alpha  occ. eigenvalues --   -0.54328  -0.54119  -0.53591  -0.53538  -0.53502
 Alpha  occ. eigenvalues --   -0.52961  -0.52866  -0.52498  -0.52037  -0.51671
 Alpha  occ. eigenvalues --   -0.51016  -0.50804  -0.50620  -0.50182  -0.50100
 Alpha  occ. eigenvalues --   -0.49665  -0.49641  -0.49116  -0.48692  -0.48311
 Alpha  occ. eigenvalues --   -0.48216  -0.48064  -0.47998  -0.47996  -0.47783
 Alpha  occ. eigenvalues --   -0.47733  -0.47412  -0.47185  -0.47100  -0.46887
 Alpha  occ. eigenvalues --   -0.46578  -0.46317  -0.46176  -0.46026  -0.45886
 Alpha  occ. eigenvalues --   -0.45679  -0.45576  -0.45445  -0.45196  -0.44724
 Alpha  occ. eigenvalues --   -0.44717  -0.44523  -0.44510  -0.44236  -0.44224
 Alpha  occ. eigenvalues --   -0.43948  -0.43910  -0.43715  -0.43687  -0.43350
 Alpha  occ. eigenvalues --   -0.43256  -0.43223  -0.43093  -0.42843  -0.42793
 Alpha  occ. eigenvalues --   -0.42258  -0.42232  -0.42004  -0.41986  -0.41668
 Alpha  occ. eigenvalues --   -0.41578  -0.41574  -0.41439  -0.41232  -0.41093
 Alpha  occ. eigenvalues --   -0.41026  -0.41008  -0.40790  -0.40568  -0.40512
 Alpha  occ. eigenvalues --   -0.40057  -0.39995  -0.39940  -0.39899  -0.39816
 Alpha  occ. eigenvalues --   -0.39672  -0.39544  -0.39492  -0.39410  -0.39159
 Alpha  occ. eigenvalues --   -0.38849  -0.38847  -0.38774  -0.38481  -0.38475
 Alpha  occ. eigenvalues --   -0.38240  -0.38221  -0.37866  -0.37826  -0.37674
 Alpha  occ. eigenvalues --   -0.37510  -0.37473  -0.37352  -0.37153  -0.37070
 Alpha  occ. eigenvalues --   -0.37040  -0.36831  -0.36641  -0.36425  -0.36172
 Alpha  occ. eigenvalues --   -0.35937  -0.35818  -0.35598  -0.35337  -0.35068
 Alpha  occ. eigenvalues --   -0.35028  -0.34866  -0.34580  -0.34163  -0.34162
 Alpha  occ. eigenvalues --   -0.33919  -0.33650  -0.33003  -0.32898  -0.32559
 Alpha  occ. eigenvalues --   -0.32408  -0.32244  -0.31958  -0.31518  -0.31443
 Alpha  occ. eigenvalues --   -0.31388  -0.30451  -0.29819  -0.29615  -0.29363
 Alpha  occ. eigenvalues --   -0.29231  -0.29061  -0.28670  -0.27188  -0.27149
 Alpha  occ. eigenvalues --   -0.26738  -0.26362  -0.25985  -0.25719  -0.25277
 Alpha  occ. eigenvalues --   -0.25065  -0.24905  -0.24613  -0.21458  -0.20837
 Alpha  occ. eigenvalues --   -0.19258  -0.18916
 Alpha virt. eigenvalues --   -0.11791  -0.11062  -0.05766  -0.05443  -0.03910
 Alpha virt. eigenvalues --   -0.03883  -0.02486  -0.02014  -0.01537  -0.00902
 Alpha virt. eigenvalues --    0.00572   0.00920   0.01285   0.01293   0.01417

 Mulliken charges:
               1
     1  Mg  12.001513
     2  C    6.018877
     3  C    5.987585
     4  C    5.983244
     5  C    6.001632
     6  N    7.003813
     7  C    5.967515
     8  C    6.007658
     9  C    5.997452
    10  C    6.028316
    11  C    5.992387
    12  C    6.001655
    13  C    6.001117
    14  H    0.992777
    15  N    6.990901
    16  C    6.042574
    17  C    6.019552
    18  C    6.007786
    19  C    6.043170
    20  C    5.996838
    21  C    6.011191
    22  O    8.020435
    23  C    5.995564
    24  N    6.998747
    25  C    6.031847
    26  C    5.988532
    27  C    6.006523
    28  C    5.970510
    29  C    5.997601
    30  C    6.000638
    31  C    6.002033
    32  N    7.001384
    33  C    5.967980
    34  C    5.967342
    35  C    5.999693
    36  C    5.972111
    37  C    5.999981
    38  C    5.982527
    39  O    7.968994
    40  C    6.001680
    41  C    5.995712
    42  O    7.991572
    43  O    8.003591
    44  C    6.002570
    45  H    1.009326
    46  H    1.007370
    47  H    0.992166
    48  H    1.002205
    49  H    0.997003
    50  H    1.013297
    51  H    0.994930
    52  H    1.007696
    53  H    0.989015
    54  H    1.007900
    55  H    1.004799
    56  H    0.996958
    57  H    1.013977
    58  H    1.019649
    59  H    1.019412
    60  H    1.009137
    61  H    1.010622
    62  H    1.012141
    63  H    1.002405
    64  H    1.004133
    65  H    0.992657
    66  H    1.009998
    67  H    1.002158
    68  H    1.002658
    69  H    0.989828
    70  H    1.002151
    71  H    0.994360
    72  H    0.998003
    73  H    0.979810
    74  H    0.982780
    75  H    0.988577
    76  H    0.991285
    77  H    0.995868
    78  H    0.992812
    79  H    0.997796
    80  Mg  12.000000
    81  C    6.000133
    82  C    5.999871
    83  C    5.999848
    84  C    6.000052
    85  N    7.000063
    86  C    5.999676
    87  C    6.000150
    88  C    5.999837
    89  C    6.000468
    90  C    5.999969
    91  C    6.000079
    92  C    6.000007
    93  H    0.999926
    94  N    6.999918
    95  C    6.000465
    96  C    6.000340
    97  C    6.000139
    98  C    6.000543
    99  C    5.999996
   100  C    6.000195
   101  O    8.000383
   102  C    5.999946
   103  N    7.000033
   104  C    6.000447
   105  C    5.999748
   106  C    6.000073
   107  C    5.999549
   108  C    6.000003
   109  C    6.000075
   110  C    6.000061
   111  N    6.999988
   112  C    5.999429
   113  C    5.999603
   114  C    5.999980
   115  C    5.999629
   116  C    5.999942
   117  C    5.999692
   118  O    7.999489
   119  C    5.999972
   120  C    5.999965
   121  O    7.999873
   122  O    7.999985
   123  C    6.000043
   124  H    1.000227
   125  H    1.000080
   126  H    0.999857
   127  H    1.000036
   128  H    1.000029
   129  H    0.999980
   130  H    1.000194
   131  H    1.000172
   132  H    0.999860
   133  H    0.999992
   134  H    0.999999
   135  H    1.000021
   136  H    1.000317
   137  H    1.000331
   138  H    1.000260
   139  H    1.000128
   140  H    1.000087
   141  H    1.000208
   142  H    1.000077
   143  H    1.000022
   144  H    0.999961
   145  H    1.000111
   146  H    1.000011
   147  H    0.999948
   148  H    0.999814
   149  H    0.999867
   150  H    0.999976
   151  H    1.000078
   152  H    0.999778
   153  H    0.999690
   154  H    0.999702
   155  H    0.999849
   156  H    0.999940
   157  H    0.999903
   158  H    0.999918
 Sum of Mulliken charges = 624.00000

 Dipole moment (field-independent basis, Debye):
    X=             -9.4474    Y=             -4.6772    Z=              1.4166  Tot=             10.6365
 Quadrupole moment (field-independent basis, Debye-Ang):
   XX=            389.3308   YY=             -2.6228   ZZ=             -0.9351
   XY=            103.5604   XZ=            -27.4122   YZ=              1.1189

 Normal termination of Gaussian 16 at Thu Oct 14 05:25:59 2021.
