 Gaussian 16, Revision A.03,
 Gaussian 16:  ES64L-G16RevA.03 25-Dec-2016

 --------------------------------------------------------
 #p PBE1PBE/Def2SVP td=(nstates=5) density=(transition=1)
 --------------------------------------------------------

 --------------------------------
 TDDFT excited states in gaussian
 --------------------------------
 Symbolic Z-matrix:
 Charge =  0 Multiplicity = 1

                         Standard orientation:
 ---------------------------------------------------------------------
 Center     Atomic      Atomic             Coordinates (Angstroms)
 Number     Number       Type             X           Y           Z
 ---------------------------------------------------------------------
      1         12           0      -10.657726    0.195500    0.051400
      2          6           0       -7.779254   -0.058356   -2.165559
      3          6           0      -10.679927   -3.235922    0.171497
      4          6           0      -12.154123    0.386397    3.035821
      5          6           0      -10.570995    3.574573   -0.295999
      6          7           0       -9.214939   -1.447859   -0.763920
      7          6           0       -8.143572   -1.303822   -1.717521
      8          6           0       -7.714849   -2.687957   -2.212641
      9          6           0       -8.866483   -3.634468   -1.762415
     10          6           0       -9.690768   -2.764219   -0.714983
     11          6           0       -9.814441   -4.108764   -2.963293
     12          6           0       -6.313020   -3.124953   -1.902357
     13          6           0       -5.557393   -2.362978   -0.788125
     14          1           0       -4.148128   -2.673264   -0.251329
     15          7           0      -11.460644   -1.251639    1.371437
     16          6           0      -11.340820   -2.617622    1.241388
     17          6           0      -12.135558   -3.259311    2.334705
     18          6           0      -12.440433   -2.204495    3.191200
     19          6           0      -11.988626   -0.942631    2.609694
     20          6           0      -12.317887   -4.734987    2.382694
     21          6           0      -13.145429   -2.365531    4.569503
     22          8           0      -13.370373   -3.495788    4.964477
     23          6           0      -13.432151   -1.243922    5.511953
     24          7           0      -11.111721    1.808261    1.237954
     25          6           0      -11.876488    1.588644    2.383073
     26          6           0      -12.355815    2.910192    2.983607
     27          6           0      -12.134020    3.923506    1.802815
     28          6           0      -11.280829    3.075248    0.857058
     29          6           0      -13.797996    2.986780    3.547467
     30          6           0      -11.485775    5.293029    2.183935
     31          6           0      -12.462579    6.556349    2.169918
     32          7           0       -9.500132    1.538221   -1.063885
     33          6           0       -9.653423    2.914019   -1.154721
     34          6           0       -8.799921    3.414390   -2.204162
     35          6           0       -8.029512    2.290123   -2.530757
     36          6           0       -8.530075    1.176612   -1.811863
     37          6           0       -8.727567    4.895835   -2.612947
     38          6           0       -6.990898    1.789712   -3.378153
     39          8           0       -6.376107    2.458991   -4.232850
     40          6           0       -6.848117    0.204837   -3.307868
     41          6           0       -5.408249   -0.022651   -3.073007
     42          8           0       -4.702094    0.529993   -2.223045
     43          8           0       -5.042703   -1.045000   -3.884582
     44          6           0       -3.576982   -1.336248   -3.965336
     45          1           0      -10.674452   -4.326299    0.222067
     46          1           0      -12.655802    0.432442    4.004931
     47          1           0      -10.654266    4.648220   -0.475061
     48          1           0       -7.816679   -2.488890   -3.279488
     49          1           0       -8.518690   -4.466719   -1.150196
     50          1           0       -9.609162   -5.176265   -3.032805
     51          1           0       -9.573759   -3.539627   -3.861531
     52          1           0      -10.833795   -3.947574   -2.610727
     53          1           0       -5.783478   -3.132954   -2.854875
     54          1           0       -6.483357   -4.164950   -1.621975
     55          1           0       -6.230582   -2.392653    0.069215
     56          1           0       -5.427621   -1.321475   -1.082969
     57          1           0      -11.741786   -5.077996    3.241589
     58          1           0      -11.952394   -5.152543    1.445010
     59          1           0      -13.382218   -4.965486    2.441005
     60          1           0      -12.589078   -0.711778    5.950932
     61          1           0      -13.923979   -1.577831    6.425108
     62          1           0      -14.116718   -0.649490    4.907036
     63          1           0      -11.612282    2.971107    3.779151
     64          1           0      -13.121861    4.039771    1.356446
     65          1           0      -13.846152    2.896936    4.633165
     66          1           0      -14.380617    2.146501    3.171341
     67          1           0      -14.243443    3.910955    3.177640
     68          1           0      -10.618438    5.561728    1.580272
     69          1           0      -11.073409    5.118039    3.177710
     70          1           0      -12.178704    7.067728    3.089362
     71          1           0      -13.525962    6.316510    2.174882
     72          1           0      -12.289803    7.074434    1.227279
     73          1           0       -8.458162    5.079408   -3.653288
     74          1           0       -7.916247    5.241639   -1.973333
     75          1           0       -9.715282    5.352073   -2.550607
     76          1           0       -7.206556   -0.229401   -4.242332
     77          1           0       -3.414923   -2.177939   -4.639571
     78          1           0       -3.175575   -1.613717   -2.990480
     79          1           0       -3.182833   -0.396904   -4.350570
     80         12           0       10.315524   -0.026556    0.428653
     81          6           0        7.904275   -1.572836   -1.489904
     82          6           0        9.619259    2.937298   -1.457793
     83          6           0       12.797018    1.472644    1.927903
     84          6           0       11.115149   -3.036108    1.934773
     85          7           0        9.017041    0.520308   -1.463266
     86          6           0        7.999528   -0.223667   -1.863352
     87          6           0        6.964743    0.626267   -2.653559
     88          6           0        7.869246    1.845024   -3.050364
     89          6           0        8.931252    1.818757   -1.939477
     90          6           0        8.496172    1.684650   -4.480915
     91          6           0        5.839953    0.970983   -1.652146
     92          6           0        4.610049    1.689310   -2.223783
     93          1           0        4.639716    2.248149   -3.632195
     94          7           0       11.079694    1.906653    0.402765
     95          6           0       10.615407    2.982904   -0.429138
     96          6           0       11.302842    4.177255    0.042469
     97          6           0       12.157109    3.768925    1.114031
     98          6           0       12.076496    2.310439    1.179978
     99          6           0       11.066472    5.629602   -0.516994
    100          6           0       12.995435    4.694186    2.056714
    101          8           0       13.752899    4.174212    2.829435
    102          6           0       12.878873    6.180925    1.963043
    103          7           0       11.710638   -0.678810    1.830457
    104          6           0       12.669104    0.133034    2.330963
    105          6           0       13.636206   -0.583987    3.272284
    106          6           0       13.000577   -1.990165    3.370675
    107          6           0       11.847277   -1.898065    2.290653
    108          6           0       15.138605   -0.618655    2.808011
    109          6           0       12.613720   -2.481912    4.742128
    110          6           0       11.825441   -1.583980    5.725950
    111          7           0        9.712152   -1.948271    0.306120
    112          6           0       10.101433   -3.074683    0.972714
    113          6           0        9.203020   -4.137672    0.574268
    114          6           0        8.267440   -3.622030   -0.387360
    115          6           0        8.656080   -2.260147   -0.512813
    116          6           0        9.279805   -5.538583    1.095981
    117          6           0        7.194591   -3.914352   -1.277442
    118          8           0        6.573624   -4.965813   -1.546065
    119          6           0        7.130538   -2.593870   -2.222064
    120          6           0        5.650997   -2.347368   -2.521712
    121          8           0        4.800269   -2.249397   -1.722382
    122          8           0        5.498183   -2.308418   -3.878455
    123          6           0        4.277796   -1.736644   -4.409270
    124          1           0        9.448014    3.816843   -2.081187
    125          1           0       13.669220    1.909557    2.418676
    126          1           0       11.328852   -4.018449    2.359380
    127          1           0        6.636096    0.131718   -3.567505
    128          1           0        7.197828    2.698556   -2.953596
    129          1           0        7.969175    2.332236   -5.180551
    130          1           0        8.414247    0.635060   -4.763971
    131          1           0        9.536202    2.005875   -4.538653
    132          1           0        6.256759    1.669052   -0.926611
    133          1           0        5.564245    0.116250   -1.035235
    134          1           0        4.130352    2.355397   -1.506272
    135          1           0        3.832881    0.924808   -2.222817
    136          1           0       11.998977    6.129804   -0.780079
    137          1           0       10.499603    6.150023    0.254798
    138          1           0       10.388831    5.584091   -1.370392
    139          1           0       13.119399    6.486492    2.981558
    140          1           0       11.853497    6.513415    1.805407
    141          1           0       13.326703    6.721152    1.129000
    142          1           0       13.563073   -0.041525    4.214615
    143          1           0       13.622418   -2.769847    2.930835
    144          1           0       15.523112   -1.582515    3.140456
    145          1           0       15.573310    0.204692    3.375166
    146          1           0       15.214903   -0.386619    1.745777
    147          1           0       13.592333   -2.485792    5.220957
    148          1           0       12.139863   -3.461538    4.812958
    149          1           0       12.296216   -1.317516    6.671315
    150          1           0       10.942334   -2.095046    6.109330
    151          1           0       11.579029   -0.643781    5.232371
    152          1           0        8.512382   -6.092714    0.556267
    153          1           0        9.001830   -5.559527    2.150588
    154          1           0       10.271943   -5.988737    1.079949
    155          1           0        7.735247   -2.847206   -3.093084
    156          1           0        4.090941   -2.628606   -5.007429
    157          1           0        4.418708   -0.769752   -4.892816
    158          1           0        3.472582   -1.636691   -3.680971
 ---------------------------------------------------------------------

 SCF Done:  E(RPBE1PBE) =  -4067.33652820     A.U. after   16 cycles

 Excitation energies and oscillator strengths:

 Excited State   1:      Singlet-A      1.8048 eV  686.98 nm  f=0.3351  <S**2>=0.000
     309 -> 315       -0.15278
     312 -> 313        0.69761
     312 <- 313       -0.11776
 This state for optimization and/or second-order correction.
 Total Energy, E(TD-HF/TD-DFT) =  -4067.27020455
 Copying the excited state density for this state as the 1-particle RhoCI density.

 Excited State   2:      Singlet-A      1.8848 eV  657.82 nm  f=0.0000  <S**2>=0.000
     311 -> 313        0.70709

 Excited State   3:      Singlet-A      1.8853 eV  657.62 nm  f=0.3680  <S**2>=0.000
     310 -> 316        0.18999
     311 -> 314        0.68803
     311 <- 314       -0.10020

 Excited State   4:      Singlet-A      1.8900 eV  656.00 nm  f=0.0000  <S**2>=0.000
     312 -> 314        0.70710

 Excited State   5:      Singlet-A      2.2133 eV  560.18 nm  f=0.0919  <S**2>=0.000
     310 -> 314        0.64986
     311 -> 316       -0.26341

 The electronic state is 1-A.
 Alpha  occ. eigenvalues --  -46.92635 -46.91540 -19.26006 -19.24911 -19.20273
 Alpha  occ. eigenvalues --  -19.19687 -19.19238 -19.19087 -19.19035 -19.17569
 Alpha  occ. eigenvalues --  -14.41922 -14.41132 -14.41098 -14.41043 -14.39212
 Alpha  occ. eigenvalues --  -14.38891 -14.38803 -14.38454 -10.36171 -10.35746
 Alpha  occ. eigenvalues --  -10.32443 -10.32348 -10.32045 -10.30926 -10.29407
 Alpha  occ. eigenvalues --  -10.29305 -10.29220 -10.28971 -10.28563 -10.28333
 Alpha  occ. eigenvalues --  -10.28256 -10.28245 -10.28239 -10.28173 -10.28126
 Alpha  occ. eigenvalues --  -10.28118 -10.28033 -10.27105 -10.27064 -10.26814
 Alpha  occ. eigenvalues --  -10.26577 -10.26409 -10.26407 -10.26342 -10.26178
 Alpha  occ. eigenvalues --  -10.26170 -10.26139 -10.26051 -10.26022 -10.25775
 Alpha  occ. eigenvalues --  -10.25713 -10.25566 -10.25529 -10.25528 -10.25469
 Alpha  occ. eigenvalues --  -10.25382 -10.25300 -10.25196 -10.25150 -10.25135
 Alpha  occ. eigenvalues --  -10.25058 -10.24986 -10.24936 -10.24907 -10.24873
 Alpha  occ. eigenvalues --  -10.24791 -10.24690 -10.24350 -10.24256 -10.24198
 Alpha  occ. eigenvalues --  -10.24129 -10.24071 -10.23981 -10.23940 -10.23889
 Alpha  occ. eigenvalues --  -10.23720 -10.23630 -10.23612 -10.23451 -10.23430
 Alpha  occ. eigenvalues --  -10.23421 -10.23266 -10.23054 -10.22586 -10.22521
 Alpha  occ. eigenvalues --  -10.21979  -3.14704  -3.13754  -1.87514  -1.87100
 Alpha  occ. eigenvalues --   -1.86907  -1.86596  -1.86145  -1.85969  -1.12226
 Alpha  occ. eigenvalues --   -1.10838  -1.06216  -1.05193  -1.04494  -1.02565
 Alpha  occ. eigenvalues --   -1.02328  -1.01575  -0.99759  -0.99639  -0.98734
 Alpha  occ. eigenvalues --   -0.98526  -0.97562  -0.97222  -0.96696  -0.94808
 Alpha  occ. eigenvalues --   -0.87216  -0.86353  -0.83614  -0.83556  -0.83170
 Alpha  occ. eigenvalues --   -0.82933  -0.82815  -0.82598  -0.81526  -0.81043
 Alpha  occ. eigenvalues --   -0.80858  -0.80588  -0.80467  -0.79828  -0.78542
 Alpha  occ. eigenvalues --   -0.78220  -0.78035  -0.77888  -0.76712  -0.76580
 Alpha  occ. eigenvalues --   -0.76541  -0.75836  -0.75616  -0.75293  -0.74483
 Alpha  occ. eigenvalues --   -0.74474  -0.72242  -0.72213  -0.72043  -0.71557
 Alpha  occ. eigenvalues --   -0.70914  -0.70792  -0.70302  -0.70054  -0.69779
 Alpha  occ. eigenvalues --   -0.69466  -0.67498  -0.66979  -0.66331  -0.66033
 Alpha  occ. eigenvalues --   -0.64526  -0.64000  -0.63256  -0.63159  -0.62338
 Alpha  occ. eigenvalues --   -0.62095  -0.61271  -0.60555  -0.60524  -0.59743
 Alpha  occ. eigenvalues --   -0.59524  -0.59302  -0.59211  -0.58700  -0.58492
 Alpha  occ. eigenvalues --   -0.58072  -0.56773  -0.56705  -0.54962  -0.54078
 Alpha  occ. eigenvalues --   -0.54063  -0.53718  -0.53635  -0.53578  -0.53251
 Alpha  occ. eigenvalues --   -0.52613  -0.52469  -0.52258  -0.51992  -0.51755
 Alpha  occ. eigenvalues --   -0.51312  -0.50666  -0.50642  -0.50469  -0.50124
 Alpha  occ. eigenvalues --   -0.49745  -0.49685  -0.49134  -0.48723  -0.48674
 Alpha  occ. eigenvalues --   -0.48246  -0.48160  -0.47919  -0.47725  -0.47541
 Alpha  occ. eigenvalues --   -0.47426  -0.47086  -0.46929  -0.46851  -0.46626
 Alpha  occ. eigenvalues --   -0.46486  -0.46417  -0.46115  -0.45877  -0.45756
 Alpha  occ. eigenvalues --   -0.45452  -0.45276  -0.45240  -0.45128  -0.44661
 Alpha  occ. eigenvalues --   -0.44562  -0.44501  -0.44293  -0.44149  -0.43994
 Alpha  occ. eigenvalues --   -0.43940  -0.43820  -0.43776  -0.43603  -0.43282
 Alpha  occ. eigenvalues --   -0.43234  -0.42923  -0.42797  -0.42764  -0.42669
 Alpha  occ. eigenvalues --   -0.42491  -0.42431  -0.42237  -0.42174  -0.41820
 Alpha  occ. eigenvalues --   -0.41511  -0.41420  -0.41325  -0.41298  -0.41190
 Alpha  occ. eigenvalues --   -0.41094  -0.40951  -0.40570  -0.40528  -0.40445
 Alpha  occ. eigenvalues --   -0.40172  -0.40126  -0.39873  -0.39808  -0.39632
 Alpha  occ. eigenvalues --   -0.39576  -0.39408  -0.39278  -0.38774  -0.38665
 Alpha  occ. eigenvalues --   -0.38546  -0.38306  -0.38177  -0.38057  -0.38047
 Alpha  occ. eigenvalues --   -0.37672  -0.37617  -0.37605  -0.37508  -0.37458
 Alpha  occ. eigenvalues --   -0.37322  -0.37101  -0.37032  -0.36994  -0.36828
 Alpha  occ. eigenvalues --   -0.36740  -0.36704  -0.36614  -0.36566  -0.36280
 Alpha  occ. eigenvalues --   -0.36148  -0.35924  -0.35718  -0.35701  -0.34941
 Alpha  occ. eigenvalues --   -0.34856  -0.34321  -0.34265  -0.34216  -0.33998
 Alpha  occ. eigenvalues --   -0.33301  -0.33213  -0.32628  -0.32402  -0.32364
 Alpha  occ. eigenvalues --   -0.32101  -0.32048  -0.31480  -0.31332  -0.31161
 Alpha  occ. eigenvalues --   -0.30784  -0.30756  -0.30010  -0.29221  -0.29008
 Alpha  occ. eigenvalues --   -0.28992  -0.28709  -0.28257  -0.27045  -0.26838
 Alpha  occ. eigenvalues --   -0.25922  -0.25786  -0.25510  -0.25353  -0.25240
 Alpha  occ. eigenvalues --   -0.25129  -0.24869  -0.24263  -0.21218  -0.20631
 Alpha  occ. eigenvalues --   -0.18610  -0.18412
 Alpha virt. eigenvalues --   -0.11051  -0.10824  -0.05255  -0.05226  -0.03892
 Alpha virt. eigenvalues --   -0.03077  -0.01971  -0.01691  -0.01356   0.00214
 Alpha virt. eigenvalues --    0.00421   0.01074   0.01451   0.01676   0.01952

 Mulliken charges:
               1
     1  Mg  12.000292
     2  C    6.027314
     3  C    6.008978
     4  C    5.968851
     5  C    5.992125
     6  N    7.023556
     7  C    5.974439
     8  C    6.003569
     9  C    5.997848
    10  C    6.011804
    11  C    5.997991
    12  C    6.001329
    13  C    6.005890
    14  H    0.998016
    15  N    6.991804
    16  C    6.031642
    17  C    6.027205
    18  C    6.001832
    19  C    6.045085
    20  C    5.995522
    21  C    6.011895
    22  O    8.015815
    23  C    5.998237
    24  N    6.991417
    25  C    6.039398
    26  C    5.989793
    27  C    6.011403
    28  C    5.968217
    29  C    6.000071
    30  C    6.006453
    31  C    5.998015
    32  N    6.999670
    33  C    5.969470
    34  C    5.976215
    35  C    5.998495
    36  C    5.964399
    37  C    5.998738
    38  C    5.983750
    39  O    7.967658
    40  C    5.992992
    41  C    5.996103
    42  O    7.998888
    43  O    7.997731
    44  C    5.999889
    45  H    1.013328
    46  H    1.005117
    47  H    0.984292
    48  H    1.004873
    49  H    0.999233
    50  H    1.005007
    51  H    1.013916
    52  H    0.997216
    53  H    1.002797
    54  H    0.992239
    55  H    0.990085
    56  H    1.006839
    57  H    1.017411
    58  H    1.014222
    59  H    1.017952
    60  H    1.010273
    61  H    1.010932
    62  H    1.007528
    63  H    1.000511
    64  H    0.993370
    65  H    0.997182
    66  H    0.995127
    67  H    1.008775
    68  H    1.005413
    69  H    0.991124
    70  H    0.995177
    71  H    0.994396
    72  H    1.002518
    73  H    0.985107
    74  H    0.984493
    75  H    0.986983
    76  H    0.994228
    77  H    0.995450
    78  H    0.995957
    79  H    1.001127
    80  Mg  11.999942
    81  C    6.000466
    82  C    6.000100
    83  C    5.999535
    84  C    5.999715
    85  N    7.000073
    86  C    5.999797
    87  C    6.000169
    88  C    5.999863
    89  C    6.000328
    90  C    5.999897
    91  C    6.000063
    92  C    5.999499
    93  H    1.000686
    94  N    6.999899
    95  C    6.000537
    96  C    6.000183
    97  C    6.000148
    98  C    6.000340
    99  C    5.999914
   100  C    6.000102
   101  O    8.000094
   102  C    5.999919
   103  N    6.999838
   104  C    6.000366
   105  C    5.999911
   106  C    6.000088
   107  C    5.999718
   108  C    6.000017
   109  C    6.000206
   110  C    6.000102
   111  N    7.000066
   112  C    5.999667
   113  C    5.999392
   114  C    5.999911
   115  C    5.999684
   116  C    6.000136
   117  C    5.999743
   118  O    7.999390
   119  C    5.999968
   120  C    5.999988
   121  O    8.000110
   122  O    7.999810
   123  C    5.999847
   124  H    1.000468
   125  H    0.999850
   126  H    0.999485
   127  H    1.000201
   128  H    1.000583
   129  H    1.000518
   130  H    1.000054
   131  H    0.999753
   132  H    0.999735
   133  H    0.999857
   134  H    1.000647
   135  H    1.000608
   136  H    1.000087
   137  H    1.000354
   138  H    1.000413
   139  H    1.000004
   140  H    1.000217
   141  H    1.000079
   142  H    0.999848
   143  H    0.999847
   144  H    0.999876
   145  H    0.999870
   146  H    1.000008
   147  H    0.999693
   148  H    0.999835
   149  H    0.999729
   150  H    0.999817
   151  H    1.000100
   152  H    0.999611
   153  H    0.999379
   154  H    0.999516
   155  H    0.999884
   156  H    0.999777
   157  H    1.000417
   158  H    1.000654
 Sum of Mulliken charges = 624.00000

 Dipole moment (field-independent basis, Debye):
    X=             -4.1365    Y=             -7.4065    Z=              5.0955  Tot=              9.8960
 Quadrupole moment (field-independent basis, Debye-Ang):
   XX=             79.8582   YY=             -2.2946   ZZ=              3.3202
   XY=             82.3338   XZ=            -53.9462   YZ=             -0.0901

 Normal termination of Gaussian 16 at Wed Oct 13 23:00:21 2021.
