 Gaussian 16, Revision A.03,
 Gaussian 16:  ES64L-G16RevA.03 25-Dec-2016

 --------------------------------------------------------
 #p PBE1PBE/Def2SVP td=(nstates=5) density=(transition=1)
 --------------------------------------------------------

 --------------------------------
 TDDFT excited states in gaussian
 --------------------------------
 Symbolic Z-matrix:
 Charge =  0 Multiplicity = 1

                         Standard orientation:
 ---------------------------------------------------------------------
 Center     Atomic      Atomic             Coordinates (Angstroms)
 Number     Number       Type             X           Y           Z
 ---------------------------------------------------------------------
      1         12           0       -5.215547   -0.214698    0.625244
      2          6           0       -4.572752    3.276360   -0.138507
      3          6           0       -2.774843    0.085792    2.931229
      4          6           0       -5.756145   -3.302321    1.239345
      5          6           0       -7.490568   -0.308457   -2.086280
      6          7           0       -3.807123    1.603983    1.340988
      7          6           0       -3.814791    2.890017    0.949947
      8          6           0       -2.893479    3.728161    1.856740
      9          6           0       -2.049585    2.515297    2.469386
     10          6           0       -2.938081    1.355936    2.296126
     11          6           0       -0.580501    2.398710    2.099027
     12          6           0       -3.763860    4.530479    2.839409
     13          6           0       -3.066202    5.827012    3.346272
     14          1           0       -1.735505    6.418778    2.687507
     15          7           0       -4.406733   -1.484360    1.967056
     16          6           0       -3.334069   -1.225823    2.798735
     17          6           0       -3.008963   -2.459364    3.508321
     18          6           0       -3.928672   -3.447401    3.078056
     19          6           0       -4.741460   -2.743150    2.046211
     20          6           0       -1.916079   -2.593400    4.472992
     21          6           0       -4.122196   -4.974772    3.573782
     22          8           0       -5.066313   -5.631886    3.229913
     23          6           0       -3.290065   -5.556278    4.730786
     24          7           0       -6.262294   -1.661275   -0.488366
     25          6           0       -6.446396   -2.843256    0.094315
     26          6           0       -7.440373   -3.732174   -0.603616
     27          6           0       -8.237903   -2.649272   -1.370656
     28          6           0       -7.162024   -1.510793   -1.429896
     29          6           0       -6.784608   -4.799307   -1.598263
     30          6           0       -9.623784   -2.216926   -0.731375
     31          6           0      -10.440795   -3.237157    0.113695
     32          7           0       -5.831392    1.108304   -0.885813
     33          6           0       -6.770200    0.994380   -1.857624
     34          6           0       -7.017377    2.212253   -2.485954
     35          6           0       -6.153530    3.078568   -1.879047
     36          6           0       -5.450895    2.411714   -0.894939
     37          6           0       -8.076492    2.474370   -3.553162
     38          6           0       -5.764337    4.496607   -1.899735
     39          8           0       -5.990034    5.412166   -2.676815
     40          6           0       -4.759063    4.655618   -0.676930
     41          6           0       -3.560763    5.304257   -1.179845
     42          8           0       -2.647680    4.780606   -1.826052
     43          8           0       -3.748815    6.633552   -1.044066
     44          6           0       -2.815147    7.411661   -1.838355
     45          1           0       -1.869715    0.140012    3.539842
     46          1           0       -5.885508   -4.365412    1.450163
     47          1           0       -8.270049   -0.363543   -2.848817
     48          1           0       -2.202880    4.337656    1.273775
     49          1           0       -2.006315    2.702638    3.541426
     50          1           0        0.073176    2.582557    2.951138
     51          1           0       -0.334549    3.106192    1.307369
     52          1           0       -0.307007    1.438625    1.661319
     53          1           0       -3.883596    3.921281    3.735589
     54          1           0       -4.768720    4.740802    2.473646
     55          1           0       -2.931647    5.816264    4.428359
     56          1           0       -3.890071    6.540335    3.328506
     57          1           0       -1.647324   -1.634450    4.915524
     58          1           0       -1.086376   -3.012409    3.903412
     59          1           0       -2.143375   -3.248073    5.314611
     60          1           0       -3.483738   -5.083558    5.693631
     61          1           0       -2.264193   -5.539357    4.362165
     62          1           0       -3.480622   -6.625983    4.821368
     63          1           0       -7.937193   -4.233931    0.226408
     64          1           0       -8.469766   -2.935464   -2.396249
     65          1           0       -7.326898   -5.706014   -1.331087
     66          1           0       -5.716786   -4.960518   -1.446271
     67          1           0       -6.945389   -4.618516   -2.660389
     68          1           0      -10.255781   -1.808090   -1.518470
     69          1           0       -9.282897   -1.485272    0.001358
     70          1           0      -10.112891   -3.218233    1.152749
     71          1           0      -10.302609   -4.174689   -0.425989
     72          1           0      -11.512182   -3.044666    0.069178
     73          1           0       -8.866518    1.755590   -3.334356
     74          1           0       -7.735349    2.246784   -4.562654
     75          1           0       -8.414662    3.505421   -3.451416
     76          1           0       -5.266092    5.284130    0.056266
     77          1           0       -2.969328    8.487236   -1.756799
     78          1           0       -2.658668    7.085822   -2.866809
     79          1           0       -1.805583    7.316774   -1.437024
     80         12           0        4.476634   -1.030695   -1.072032
     81          6           0        7.202490    0.988852   -0.073990
     82          6           0        2.430551    1.679005   -0.624652
     83          6           0        1.878821   -3.063658   -1.365711
     84          6           0        6.626104   -3.792410   -1.007470
     85          7           0        4.767588    1.054789   -0.263172
     86          6           0        6.004073    1.664181   -0.034073
     87          6           0        5.822581    3.197736    0.082165
     88          6           0        4.270377    3.389953   -0.079556
     89          6           0        3.739441    1.962244   -0.386543
     90          6           0        3.559474    4.211923    0.981334
     91          6           0        6.639155    4.061054   -0.892072
     92          6           0        7.518567    5.136038   -0.196278
     93          1           0        7.285371    6.560126   -0.649672
     94          7           0        2.430599   -0.687477   -1.084730
     95          6           0        1.753596    0.473802   -0.853386
     96          6           0        0.357673    0.229600   -1.128243
     97          6           0        0.157038   -1.214837   -1.205662
     98          6           0        1.534102   -1.684073   -1.193566
     99          6           0       -0.763334    1.388464   -1.023805
    100          6           0       -1.037621   -2.048381   -1.023400
    101          8           0       -1.115200   -3.240661   -1.111167
    102          6           0       -2.321155   -1.303921   -0.667957
    103          7           0        4.288288   -3.181043   -0.962193
    104          6           0        3.093473   -3.765310   -1.177245
    105          6           0        3.262053   -5.265343   -1.429838
    106          6           0        4.774598   -5.401947   -1.667068
    107          6           0        5.288785   -4.048095   -1.231105
    108          6           0        2.764058   -6.127000   -0.180367
    109          6           0        5.027257   -5.613186   -3.246014
    110          6           0        4.809489   -4.359794   -4.136976
    111          7           0        6.534265   -1.415867   -0.759256
    112          6           0        7.233590   -2.562024   -0.780936
    113          6           0        8.609766   -2.253247   -0.499290
    114          6           0        8.645013   -0.890487   -0.270660
    115          6           0        7.340307   -0.399774   -0.371306
    116          6           0        9.803988   -3.185360   -0.423258
    117          6           0        9.587028    0.163738    0.114721
    118          8           0       10.732805    0.264723    0.452303
    119          6           0        8.710192    1.442018    0.182201
    120          6           0        8.863143    1.956558    1.565754
    121          8           0        8.637142    1.261037    2.523944
    122          8           0        9.363783    3.247274    1.623522
    123          6           0        9.825056    3.723469    2.970449
    124          1           0        1.828263    2.588188   -0.682389
    125          1           0        1.069328   -3.763939   -1.583800
    126          1           0        7.398243   -4.546952   -1.171729
    127          1           0        6.044926    3.497663    1.106440
    128          1           0        4.101594    4.023161   -0.950786
    129          1           0        4.175093    4.321352    1.872935
    130          1           0        2.582205    3.817625    1.260995
    131          1           0        3.470996    5.216040    0.567345
    132          1           0        6.096648    4.659817   -1.623713
    133          1           0        7.290473    3.438752   -1.505351
    134          1           0        8.573302    4.861772   -0.213806
    135          1           0        7.243651    5.150157    0.857621
    136          1           0       -1.379312    1.336445   -1.921493
    137          1           0       -0.396322    2.413846   -1.000002
    138          1           0       -1.414025    1.410636   -0.149646
    139          1           0       -2.486666   -0.664278   -1.535202
    140          1           0       -2.071671   -0.735738    0.227603
    141          1           0       -3.202789   -1.937569   -0.566599
    142          1           0        2.774170   -5.611511   -2.341632
    143          1           0        5.357042   -6.131616   -1.104097
    144          1           0        2.425846   -7.085858   -0.574065
    145          1           0        1.937915   -5.745879    0.420865
    146          1           0        3.665737   -6.271966    0.414461
    147          1           0        4.440322   -6.432053   -3.661565
    148          1           0        6.089722   -5.779171   -3.424637
    149          1           0        4.811700   -4.542603   -5.211012
    150          1           0        5.624064   -3.665898   -3.928807
    151          1           0        3.869829   -3.899273   -3.830180
    152          1           0       10.041899   -3.688566   -1.360150
    153          1           0        9.495137   -3.935515    0.304270
    154          1           0       10.686355   -2.705583    0.000195
    155          1           0        9.205281    2.118782   -0.513974
    156          1           0        9.386696    4.721232    2.950261
    157          1           0       10.909404    3.800349    3.048128
    158          1           0        9.532884    3.187383    3.873071
 ---------------------------------------------------------------------

 SCF Done:  E(RPBE1PBE) =  -4067.36206662     A.U. after   16 cycles

 Excitation energies and oscillator strengths:

 Excited State   1:      Singlet-A      1.6799 eV  738.04 nm  f=0.0004  <S**2>=0.000
     311 -> 313        0.14839
     312 -> 313        0.69063
 This state for optimization and/or second-order correction.
 Total Energy, E(TD-HF/TD-DFT) =  -4067.30033093
 Copying the excited state density for this state as the 1-particle RhoCI density.

 Excited State   2:      Singlet-A      1.8529 eV  669.14 nm  f=0.1496  <S**2>=0.000
     311 -> 313       -0.36700
     311 -> 314        0.56510
     312 -> 314       -0.18599

 Excited State   3:      Singlet-A      1.8604 eV  666.46 nm  f=0.3477  <S**2>=0.000
     309 -> 315       -0.13550
     311 -> 313        0.56732
     311 -> 314        0.38521
     312 -> 313       -0.12251

 Excited State   4:      Singlet-A      1.9462 eV  637.04 nm  f=0.2885  <S**2>=0.000
     310 -> 316        0.17866
     311 -> 314        0.17463
     312 -> 314        0.66140

 Excited State   5:      Singlet-A      2.0673 eV  599.73 nm  f=0.0003  <S**2>=0.000
     310 -> 313        0.70606

 The electronic state is 1-A.
 Alpha  occ. eigenvalues --  -46.92845 -46.92796 -19.26039 -19.25765 -19.20412
 Alpha  occ. eigenvalues --  -19.19718 -19.19637 -19.19556 -19.19455 -19.18522
 Alpha  occ. eigenvalues --  -14.41622 -14.41308 -14.40975 -14.40855 -14.39391
 Alpha  occ. eigenvalues --  -14.39320 -14.38788 -14.38643 -10.35767 -10.35739
 Alpha  occ. eigenvalues --  -10.33851 -10.32438 -10.32212 -10.31429 -10.29136
 Alpha  occ. eigenvalues --  -10.29040 -10.28697 -10.28492 -10.28484 -10.28421
 Alpha  occ. eigenvalues --  -10.28380 -10.28238 -10.28220 -10.28094 -10.27869
 Alpha  occ. eigenvalues --  -10.27731 -10.27646 -10.27565 -10.27164 -10.26995
 Alpha  occ. eigenvalues --  -10.26903 -10.26706 -10.26678 -10.26656 -10.26458
 Alpha  occ. eigenvalues --  -10.26124 -10.25930 -10.25915 -10.25815 -10.25780
 Alpha  occ. eigenvalues --  -10.25772 -10.25739 -10.25508 -10.25498 -10.25472
 Alpha  occ. eigenvalues --  -10.25400 -10.25373 -10.25284 -10.25258 -10.25229
 Alpha  occ. eigenvalues --  -10.25179 -10.25132 -10.24660 -10.24575 -10.24568
 Alpha  occ. eigenvalues --  -10.24288 -10.24115 -10.24097 -10.24093 -10.24030
 Alpha  occ. eigenvalues --  -10.23961 -10.23859 -10.23744 -10.23717 -10.23675
 Alpha  occ. eigenvalues --  -10.23586 -10.23513 -10.23446 -10.23337 -10.23226
 Alpha  occ. eigenvalues --  -10.23055 -10.23048 -10.22955 -10.22622 -10.22074
 Alpha  occ. eigenvalues --  -10.21930  -3.14878  -3.14834  -1.87717  -1.87657
 Alpha  occ. eigenvalues --   -1.87273  -1.87221  -1.87086  -1.87048  -1.11781
 Alpha  occ. eigenvalues --   -1.10392  -1.07061  -1.06343  -1.05721  -1.04655
 Alpha  occ. eigenvalues --   -1.02416  -1.02007  -1.00550  -0.99994  -0.99738
 Alpha  occ. eigenvalues --   -0.99218  -0.98877  -0.98546  -0.98431  -0.96531
 Alpha  occ. eigenvalues --   -0.87058  -0.86620  -0.83294  -0.83221  -0.83123
 Alpha  occ. eigenvalues --   -0.83008  -0.82502  -0.82442  -0.82019  -0.81887
 Alpha  occ. eigenvalues --   -0.81327  -0.80773  -0.80378  -0.80294  -0.78785
 Alpha  occ. eigenvalues --   -0.78625  -0.77727  -0.77709  -0.76735  -0.76712
 Alpha  occ. eigenvalues --   -0.75835  -0.75351  -0.75203  -0.75115  -0.74637
 Alpha  occ. eigenvalues --   -0.74246  -0.72654  -0.72468  -0.71588  -0.71315
 Alpha  occ. eigenvalues --   -0.71151  -0.70853  -0.70424  -0.70278  -0.69677
 Alpha  occ. eigenvalues --   -0.69409  -0.67469  -0.67407  -0.66223  -0.66167
 Alpha  occ. eigenvalues --   -0.64052  -0.63622  -0.63537  -0.63333  -0.62417
 Alpha  occ. eigenvalues --   -0.62402  -0.61553  -0.61127  -0.60174  -0.59842
 Alpha  occ. eigenvalues --   -0.59762  -0.59692  -0.59583  -0.59244  -0.58978
 Alpha  occ. eigenvalues --   -0.58414  -0.56813  -0.56743  -0.55176  -0.54856
 Alpha  occ. eigenvalues --   -0.54264  -0.54196  -0.53991  -0.53755  -0.53293
 Alpha  occ. eigenvalues --   -0.53083  -0.52780  -0.52554  -0.52368  -0.52083
 Alpha  occ. eigenvalues --   -0.51017  -0.50488  -0.50308  -0.50025  -0.49822
 Alpha  occ. eigenvalues --   -0.49679  -0.49240  -0.49070  -0.48919  -0.48627
 Alpha  occ. eigenvalues --   -0.48595  -0.48106  -0.47951  -0.47688  -0.47522
 Alpha  occ. eigenvalues --   -0.47231  -0.47201  -0.46886  -0.46785  -0.46602
 Alpha  occ. eigenvalues --   -0.46415  -0.46258  -0.46072  -0.45929  -0.45758
 Alpha  occ. eigenvalues --   -0.45659  -0.45487  -0.45269  -0.45022  -0.44896
 Alpha  occ. eigenvalues --   -0.44604  -0.44448  -0.44329  -0.44083  -0.44001
 Alpha  occ. eigenvalues --   -0.43905  -0.43731  -0.43615  -0.43578  -0.43446
 Alpha  occ. eigenvalues --   -0.43272  -0.43031  -0.42983  -0.42894  -0.42789
 Alpha  occ. eigenvalues --   -0.42428  -0.42348  -0.42262  -0.42080  -0.41733
 Alpha  occ. eigenvalues --   -0.41642  -0.41483  -0.41241  -0.41002  -0.40812
 Alpha  occ. eigenvalues --   -0.40739  -0.40718  -0.40632  -0.40541  -0.40394
 Alpha  occ. eigenvalues --   -0.40257  -0.39994  -0.39986  -0.39768  -0.39570
 Alpha  occ. eigenvalues --   -0.39246  -0.39165  -0.39075  -0.39020  -0.38830
 Alpha  occ. eigenvalues --   -0.38752  -0.38447  -0.38422  -0.38173  -0.38075
 Alpha  occ. eigenvalues --   -0.38046  -0.38015  -0.37821  -0.37714  -0.37630
 Alpha  occ. eigenvalues --   -0.37587  -0.37528  -0.37367  -0.37267  -0.37055
 Alpha  occ. eigenvalues --   -0.36942  -0.36813  -0.36749  -0.36631  -0.36257
 Alpha  occ. eigenvalues --   -0.36215  -0.36187  -0.35625  -0.35371  -0.35198
 Alpha  occ. eigenvalues --   -0.34698  -0.34608  -0.34352  -0.33933  -0.33874
 Alpha  occ. eigenvalues --   -0.33308  -0.33236  -0.33170  -0.32955  -0.32713
 Alpha  occ. eigenvalues --   -0.32500  -0.32036  -0.31791  -0.31351  -0.31304
 Alpha  occ. eigenvalues --   -0.31175  -0.30820  -0.29570  -0.29518  -0.29094
 Alpha  occ. eigenvalues --   -0.29036  -0.28723  -0.28273  -0.27148  -0.26983
 Alpha  occ. eigenvalues --   -0.26514  -0.26205  -0.26089  -0.25836  -0.25773
 Alpha  occ. eigenvalues --   -0.25642  -0.25482  -0.24969  -0.21051  -0.20496
 Alpha  occ. eigenvalues --   -0.19097  -0.19042
 Alpha virt. eigenvalues --   -0.11480  -0.10900  -0.04945  -0.04770  -0.03712
 Alpha virt. eigenvalues --   -0.03580  -0.01996  -0.01820  -0.00993  -0.00634
 Alpha virt. eigenvalues --   -0.00103   0.00665   0.00849   0.01204   0.01952

 Mulliken charges:
               1
     1  Mg  11.999631
     2  C    5.999434
     3  C    5.999679
     4  C    6.000031
     5  C    5.999940
     6  N    6.999697
     7  C    6.001209
     8  C    5.999746
     9  C    6.000541
    10  C    5.999454
    11  C    6.000056
    12  C    6.000223
    13  C    6.000058
    14  H    0.999882
    15  N    7.000167
    16  C    6.000063
    17  C    5.999945
    18  C    6.000361
    19  C    5.999829
    20  C    6.000013
    21  C    6.000032
    22  O    8.000164
    23  C    5.999992
    24  N    7.000088
    25  C    5.999812
    26  C    6.000043
    27  C    6.000090
    28  C    5.999746
    29  C    5.999983
    30  C    6.000040
    31  C    5.999999
    32  N    7.000052
    33  C    5.999736
    34  C    5.999893
    35  C    5.999882
    36  C    5.999951
    37  C    5.999995
    38  C    5.999800
    39  O    7.999686
    40  C    6.000125
    41  C    5.999917
    42  O    7.999864
    43  O    8.000009
    44  C    6.000064
    45  H    0.999880
    46  H    0.999855
    47  H    0.999805
    48  H    0.999778
    49  H    0.999476
    50  H    0.999581
    51  H    0.999548
    52  H    1.001230
    53  H    0.999949
    54  H    0.999975
    55  H    0.999925
    56  H    0.999955
    57  H    1.000027
    58  H    0.999989
    59  H    0.999986
    60  H    1.000006
    61  H    1.000000
    62  H    0.999993
    63  H    0.999857
    64  H    0.999897
    65  H    0.999881
    66  H    0.999935
    67  H    0.999958
    68  H    0.999932
    69  H    0.999975
    70  H    0.999940
    71  H    0.999933
    72  H    0.999901
    73  H    0.999895
    74  H    0.999810
    75  H    0.999854
    76  H    0.999885
    77  H    0.999918
    78  H    0.999959
    79  H    0.999906
    80  Mg  12.000140
    81  C    6.000177
    82  C    6.000698
    83  C    5.999959
    84  C    5.999597
    85  N    7.000537
    86  C    6.000219
    87  C    5.999896
    88  C    6.000124
    89  C    5.999344
    90  C    6.000144
    91  C    5.999913
    92  C    5.999892
    93  H    1.000282
    94  N    6.999918
    95  C    5.999000
    96  C    5.999685
    97  C    5.999895
    98  C    5.999722
    99  C    5.999588
   100  C    5.999963
   101  O    7.999921
   102  C    5.999944
   103  N    6.999759
   104  C    5.999566
   105  C    6.000148
   106  C    5.999857
   107  C    6.000714
   108  C    6.000107
   109  C    5.999924
   110  C    5.999956
   111  N    6.999968
   112  C    6.000771
   113  C    6.000433
   114  C    6.000201
   115  C    6.000410
   116  C    5.999987
   117  C    6.000344
   118  O    8.000618
   119  C    5.999932
   120  C    6.000148
   121  O    8.000103
   122  O    8.000054
   123  C    5.999925
   124  H    1.000300
   125  H    0.999824
   126  H    1.000145
   127  H    1.000110
   128  H    1.000083
   129  H    0.999887
   130  H    0.999928
   131  H    0.999971
   132  H    1.000220
   133  H    0.999908
   134  H    0.999956
   135  H    1.000068
   136  H    1.000204
   137  H    0.999799
   138  H    0.999700
   139  H    1.000031
   140  H    1.000328
   141  H    0.999965
   142  H    1.000001
   143  H    1.000001
   144  H    0.999943
   145  H    1.000095
   146  H    0.999778
   147  H    1.000209
   148  H    0.999957
   149  H    1.000079
   150  H    0.999772
   151  H    1.000330
   152  H    1.000391
   153  H    1.000345
   154  H    1.000235
   155  H    1.000268
   156  H    1.000152
   157  H    1.000107
   158  H    1.000109
 Sum of Mulliken charges = 624.00000

 Dipole moment (field-independent basis, Debye):
    X=              0.3447    Y=             -0.0372    Z=              0.0261  Tot=              0.3477
 Quadrupole moment (field-independent basis, Debye-Ang):
   XX=              1.2599   YY=             -0.0548   ZZ=             -0.0667
   XY=             -0.0002   XZ=             -0.2164   YZ=              0.0075

 Normal termination of Gaussian 16 at Thu Oct 14 20:56:21 2021.
