 Gaussian 16, Revision A.03,
 Gaussian 16:  ES64L-G16RevA.03 25-Dec-2016

 --------------------------------------------------------
 #p PBE1PBE/Def2SVP td=(nstates=5) density=(transition=1)
 --------------------------------------------------------

 --------------------------------
 TDDFT excited states in gaussian
 --------------------------------
 Symbolic Z-matrix:
 Charge =  0 Multiplicity = 1

                         Standard orientation:
 ---------------------------------------------------------------------
 Center     Atomic      Atomic             Coordinates (Angstroms)
 Number     Number       Type             X           Y           Z
 ---------------------------------------------------------------------
      1         12           0      -29.578108    0.266891   -0.158909
      2          6           0      -26.405623   -1.184827   -0.551508
      3          6           0      -30.827756   -2.839125    0.418475
      4          6           0      -32.364575    1.797020    0.609663
      5          6           0      -27.804779    3.394733    0.036816
      6          7           0      -28.712257   -1.738754   -0.150594
      7          6           0      -27.405699   -2.104218   -0.312386
      8          6           0      -27.261372   -3.572050    0.116550
      9          6           0      -28.662893   -4.113079   -0.143677
     10          6           0      -29.451857   -2.823627    0.154293
     11          6           0      -28.865035   -4.584182   -1.602388
     12          6           0      -26.844842   -3.690380    1.629288
     13          6           0      -25.393408   -4.286220    1.977870
     14          1           0      -24.385050   -3.403718    2.733166
     15          7           0      -31.336738   -0.416788    0.488083
     16          6           0      -31.675066   -1.741282    0.644808
     17          6           0      -33.073855   -1.812624    0.930706
     18          6           0      -33.631720   -0.492190    0.885737
     19          6           0      -32.447968    0.387021    0.660356
     20          6           0      -33.829997   -3.158996    1.197984
     21          6           0      -35.160719   -0.156550    1.027496
     22          8           0      -35.962497   -1.037048    1.090518
     23          6           0      -35.590012    1.217555    0.797598
     24          7           0      -29.966485    2.280076    0.576854
     25          6           0      -31.260623    2.652765    0.434385
     26          6           0      -31.427858    4.131632    0.127933
     27          6           0      -30.024121    4.685725    0.317993
     28          6           0      -29.179696    3.364216    0.319640
     29          6           0      -31.981804    4.399621   -1.320236
     30          6           0      -29.705456    5.613867    1.582967
     31          6           0      -29.473691    7.094893    1.447244
     32          7           0      -27.603470    1.016017   -0.433721
     33          6           0      -27.032434    2.290663   -0.326683
     34          6           0      -25.597584    2.250045   -0.508824
     35          6           0      -25.324430    0.909448   -0.627000
     36          6           0      -26.545769    0.161789   -0.555334
     37          6           0      -24.696892    3.413757   -0.470872
     38          6           0      -24.247490   -0.052375   -0.805306
     39          8           0      -23.042196    0.141963   -1.005895
     40          6           0      -24.903528   -1.415400   -0.873067
     41          6           0      -24.604269   -1.993253   -2.252043
     42          8           0      -24.946252   -1.399605   -3.272245
     43          8           0      -23.813864   -3.150002   -2.167542
     44          6           0      -23.464365   -3.729930   -3.436734
     45          1           0      -31.221375   -3.857108    0.442998
     46          1           0      -33.356942    2.246309    0.547824
     47          1           0      -27.291275    4.357370   -0.013293
     48          1           0      -26.419997   -3.980104   -0.444082
     49          1           0      -28.845119   -4.927463    0.556410
     50          1           0      -29.289262   -5.566457   -1.397330
     51          1           0      -27.859614   -4.615652   -2.023136
     52          1           0      -29.512719   -3.974039   -2.232052
     53          1           0      -27.550827   -4.371080    2.104875
     54          1           0      -27.008567   -2.718020    2.093166
     55          1           0      -24.920110   -4.467156    1.012507
     56          1           0      -25.407564   -5.249886    2.485634
     57          1           0      -34.463792   -3.223058    2.081922
     58          1           0      -33.052130   -3.918614    1.282033
     59          1           0      -34.468171   -3.455287    0.365297
     60          1           0      -35.127584    1.950351    1.459221
     61          1           0      -36.671919    1.263874    0.921532
     62          1           0      -35.518286    1.460412   -0.261693
     63          1           0      -32.163209    4.612910    0.773571
     64          1           0      -29.708916    5.229026   -0.572847
     65          1           0      -33.054375    4.591647   -1.343176
     66          1           0      -31.644886    3.609224   -1.990934
     67          1           0      -31.503083    5.311688   -1.679574
     68          1           0      -28.992132    5.247714    2.320558
     69          1           0      -30.682098    5.483797    2.049939
     70          1           0      -30.250916    7.700937    1.911716
     71          1           0      -29.445406    7.364149    0.391126
     72          1           0      -28.505217    7.259485    1.918987
     73          1           0      -25.176517    4.184339    0.133283
     74          1           0      -24.648585    3.777219   -1.497745
     75          1           0      -23.696785    3.133508   -0.143374
     76          1           0      -24.360905   -1.973846   -0.111511
     77          1           0      -24.266417   -4.292665   -3.915124
     78          1           0      -22.617988   -4.410261   -3.346704
     79          1           0      -23.129777   -3.009933   -4.183073
     80         12           0       29.019520    0.596694   -0.283876
     81          6           0       28.180993   -2.616716    0.687927
     82          6           0       26.133177    1.774738    1.214454
     83          6           0       30.256371    3.722967   -0.586284
     84          6           0       32.058327   -0.767529   -1.442407
     85          7           0       27.483872   -0.298864    1.079224
     86          6           0       27.286278   -1.619074    1.132367
     87          6           0       26.056819   -1.939373    2.037643
     88          6           0       25.257865   -0.553355    1.966428
     89          6           0       26.328170    0.395826    1.303743
     90          6           0       23.889857   -0.681855    1.254002
     91          6           0       26.503083   -2.214847    3.455521
     92          6           0       25.781625   -3.353093    4.160152
     93          1           0       25.410954   -3.310691    5.690490
     94          7           0       28.162418    2.512147    0.110036
     95          6           0       27.034201    2.807987    0.778144
     96          6           0       26.897614    4.228368    0.782919
     97          6           0       28.002408    4.826743    0.104494
     98          6           0       28.876405    3.687381   -0.201168
     99          6           0       25.654177    4.888864    1.251881
    100          6           0       28.223858    6.293978    0.001550
    101          8           0       27.384018    7.071939    0.422698
    102          6           0       29.455973    6.869406   -0.686461
    103          7           0       30.949819    1.379335   -1.037480
    104          6           0       31.176304    2.720848   -0.964633
    105          6           0       32.615039    3.027810   -1.226209
    106          6           0       33.187258    1.556202   -1.495091
    107          6           0       32.011604    0.616131   -1.395669
    108          6           0       32.863181    4.055581   -2.346125
    109          6           0       34.411583    1.106080   -0.581112
    110          6           0       35.704626    0.546086   -1.219128
    111          7           0       29.936602   -1.254386   -0.398784
    112          6           0       31.113053   -1.655493   -0.949534
    113          6           0       31.113827   -3.040281   -1.122436
    114          6           0       29.959909   -3.515298   -0.514775
    115          6           0       29.318211   -2.404288   -0.027683
    116          6           0       32.285066   -3.850832   -1.750922
    117          6           0       29.200994   -4.636687   -0.211469
    118          8           0       29.498122   -5.815555   -0.370021
    119          6           0       27.944541   -4.165702    0.668075
    120          6           0       26.713429   -4.403910    0.005106
    121          8           0       26.168384   -3.806101   -0.925834
    122          8           0       26.148845   -5.510169    0.632558
    123          6           0       24.866270   -6.037386    0.199088
    124          1           0       25.156513    2.134567    1.544068
    125          1           0       30.785286    4.665421   -0.745682
    126          1           0       32.993596   -1.084824   -1.908525
    127          1           0       25.551097   -2.808247    1.617363
    128          1           0       25.117948   -0.071313    2.933438
    129          1           0       23.748001   -1.674092    0.826153
    130          1           0       23.815285    0.073561    0.471120
    131          1           0       23.117385   -0.444161    1.985001
    132          1           0       26.510244   -1.378405    4.154682
    133          1           0       27.576882   -2.382173    3.371694
    134          1           0       26.344602   -4.258894    3.935666
    135          1           0       24.860051   -3.405607    3.580483
    136          1           0       25.118336    5.075124    0.321325
    137          1           0       25.869881    5.807849    1.797231
    138          1           0       25.057447    4.260956    1.913593
    139          1           0       30.259808    6.801250    0.046707
    140          1           0       29.264422    7.937805   -0.783088
    141          1           0       29.663396    6.339187   -1.615857
    142          1           0       32.903322    3.417032   -0.250270
    143          1           0       33.648446    1.479558   -2.479756
    144          1           0       33.167012    4.974501   -1.843665
    145          1           0       31.990771    4.210991   -2.981670
    146          1           0       33.708869    3.731081   -2.951947
    147          1           0       34.061680    0.326834    0.095822
    148          1           0       34.814104    1.922026    0.019550
    149          1           0       35.448865   -0.513205   -1.239657
    150          1           0       36.550809    0.689057   -0.548340
    151          1           0       35.922996    0.733216   -2.270424
    152          1           0       33.101962   -3.888583   -1.031390
    153          1           0       32.747762   -3.417049   -2.637613
    154          1           0       31.975485   -4.872032   -1.974931
    155          1           0       28.048002   -4.675948    1.625824
    156          1           0       24.885481   -7.110741    0.385348
    157          1           0       24.571281   -5.766882   -0.815119
    158          1           0       24.110340   -5.666980    0.891671
 ---------------------------------------------------------------------

 SCF Done:  E(RPBE1PBE) =  -4067.36035514     A.U. after   16 cycles

 Excitation energies and oscillator strengths:

 Excited State   1:      Singlet-A      1.8485 eV  670.71 nm  f=0.0000  <S**2>=0.000
     312 -> 313        0.70711
 This state for optimization and/or second-order correction.
 Total Energy, E(TD-HF/TD-DFT) =  -4067.29242249
 Copying the excited state density for this state as the 1-particle RhoCI density.

 Excited State   2:      Singlet-A      1.8605 eV  666.39 nm  f=0.3871  <S**2>=0.000
     309 -> 315       -0.17788
     311 -> 313        0.69232
     311 <- 313       -0.11025

 Excited State   3:      Singlet-A      1.8786 eV  660.00 nm  f=0.3551  <S**2>=0.000
     310 -> 316        0.18343
     312 -> 314        0.69003
     312 <- 314       -0.10095

 Excited State   4:      Singlet-A      2.2059 eV  562.05 nm  f=0.0000  <S**2>=0.000
     311 -> 314        0.70711

 Excited State   5:      Singlet-A      2.2365 eV  554.38 nm  f=0.0961  <S**2>=0.000
     309 -> 313        0.64820
     311 -> 315        0.26581

 The electronic state is 1-A.
 Alpha  occ. eigenvalues --  -46.93061 -46.92073 -19.26658 -19.25260 -19.20768
 Alpha  occ. eigenvalues --  -19.20336 -19.19510 -19.19308 -19.18916 -19.18600
 Alpha  occ. eigenvalues --  -14.41875 -14.41636 -14.41588 -14.41500 -14.39464
 Alpha  occ. eigenvalues --  -14.39071 -14.38992 -14.38875 -10.37255 -10.36513
 Alpha  occ. eigenvalues --  -10.32356 -10.32213 -10.31781 -10.31642 -10.29269
 Alpha  occ. eigenvalues --  -10.29145 -10.29040 -10.28874 -10.28867 -10.28862
 Alpha  occ. eigenvalues --  -10.28770 -10.28707 -10.28622 -10.28526 -10.28394
 Alpha  occ. eigenvalues --  -10.28333 -10.27480 -10.27433 -10.27283 -10.27114
 Alpha  occ. eigenvalues --  -10.26807 -10.26327 -10.26306 -10.26223 -10.26201
 Alpha  occ. eigenvalues --  -10.26145 -10.26117 -10.25998 -10.25984 -10.25982
 Alpha  occ. eigenvalues --  -10.25976 -10.25953 -10.25933 -10.25710 -10.25682
 Alpha  occ. eigenvalues --  -10.25658 -10.25592 -10.25472 -10.25455 -10.25375
 Alpha  occ. eigenvalues --  -10.25280 -10.25069 -10.24879 -10.24744 -10.24620
 Alpha  occ. eigenvalues --  -10.24547 -10.24515 -10.24503 -10.24459 -10.24374
 Alpha  occ. eigenvalues --  -10.24367 -10.24355 -10.24077 -10.23950 -10.23733
 Alpha  occ. eigenvalues --  -10.23634 -10.23606 -10.23353 -10.23348 -10.23346
 Alpha  occ. eigenvalues --  -10.23305 -10.23115 -10.22999 -10.22770 -10.22531
 Alpha  occ. eigenvalues --  -10.22390  -3.14970  -3.14261  -1.87823  -1.87338
 Alpha  occ. eigenvalues --   -1.87184  -1.87076  -1.86651  -1.86485  -1.10699
 Alpha  occ. eigenvalues --   -1.10428  -1.06700  -1.04789  -1.04750  -1.03776
 Alpha  occ. eigenvalues --   -1.02990  -1.02261  -1.00192  -0.99373  -0.98885
 Alpha  occ. eigenvalues --   -0.98706  -0.98480  -0.97485  -0.97307  -0.96776
 Alpha  occ. eigenvalues --   -0.88274  -0.87369  -0.83808  -0.83444  -0.83384
 Alpha  occ. eigenvalues --   -0.83261  -0.82856  -0.82688  -0.82242  -0.81913
 Alpha  occ. eigenvalues --   -0.81446  -0.81238  -0.80553  -0.79714  -0.79321
 Alpha  occ. eigenvalues --   -0.78900  -0.78847  -0.78512  -0.77327  -0.76811
 Alpha  occ. eigenvalues --   -0.76754  -0.76471  -0.75826  -0.75372  -0.75177
 Alpha  occ. eigenvalues --   -0.75087  -0.72522  -0.72338  -0.71929  -0.71523
 Alpha  occ. eigenvalues --   -0.70869  -0.70784  -0.70702  -0.70579  -0.69534
 Alpha  occ. eigenvalues --   -0.69446  -0.67933  -0.67306  -0.66871  -0.66591
 Alpha  occ. eigenvalues --   -0.64325  -0.63662  -0.63402  -0.63022  -0.62545
 Alpha  occ. eigenvalues --   -0.62489  -0.61769  -0.61224  -0.60555  -0.60327
 Alpha  occ. eigenvalues --   -0.60256  -0.60079  -0.60058  -0.59422  -0.59401
 Alpha  occ. eigenvalues --   -0.59022  -0.57269  -0.57235  -0.55052  -0.54750
 Alpha  occ. eigenvalues --   -0.54607  -0.54509  -0.53731  -0.53704  -0.53507
 Alpha  occ. eigenvalues --   -0.53476  -0.52953  -0.52824  -0.52617  -0.52280
 Alpha  occ. eigenvalues --   -0.50940  -0.50843  -0.50669  -0.50654  -0.50093
 Alpha  occ. eigenvalues --   -0.49794  -0.49386  -0.49366  -0.48916  -0.48572
 Alpha  occ. eigenvalues --   -0.48228  -0.48132  -0.47988  -0.47685  -0.47605
 Alpha  occ. eigenvalues --   -0.47435  -0.47164  -0.47163  -0.46904  -0.46742
 Alpha  occ. eigenvalues --   -0.46720  -0.46515  -0.46351  -0.46310  -0.46101
 Alpha  occ. eigenvalues --   -0.45849  -0.45604  -0.45486  -0.45118  -0.45006
 Alpha  occ. eigenvalues --   -0.44742  -0.44721  -0.44536  -0.44454  -0.44245
 Alpha  occ. eigenvalues --   -0.44147  -0.44076  -0.43894  -0.43710  -0.43669
 Alpha  occ. eigenvalues --   -0.43665  -0.43295  -0.43034  -0.42999  -0.42946
 Alpha  occ. eigenvalues --   -0.42737  -0.42234  -0.42204  -0.41836  -0.41596
 Alpha  occ. eigenvalues --   -0.41514  -0.41417  -0.41330  -0.41296  -0.41021
 Alpha  occ. eigenvalues --   -0.40996  -0.40850  -0.40832  -0.40705  -0.40679
 Alpha  occ. eigenvalues --   -0.40526  -0.40229  -0.40123  -0.40088  -0.40001
 Alpha  occ. eigenvalues --   -0.39789  -0.39488  -0.39298  -0.39211  -0.39066
 Alpha  occ. eigenvalues --   -0.38993  -0.38700  -0.38635  -0.38450  -0.38376
 Alpha  occ. eigenvalues --   -0.38263  -0.38131  -0.37967  -0.37893  -0.37786
 Alpha  occ. eigenvalues --   -0.37387  -0.37231  -0.37033  -0.37022  -0.36877
 Alpha  occ. eigenvalues --   -0.36826  -0.36796  -0.36676  -0.36548  -0.36443
 Alpha  occ. eigenvalues --   -0.36377  -0.36005  -0.35876  -0.35799  -0.35588
 Alpha  occ. eigenvalues --   -0.35274  -0.35204  -0.34929  -0.34646  -0.33889
 Alpha  occ. eigenvalues --   -0.33260  -0.33170  -0.32976  -0.32963  -0.32464
 Alpha  occ. eigenvalues --   -0.32419  -0.32241  -0.32059  -0.31710  -0.31591
 Alpha  occ. eigenvalues --   -0.31146  -0.30687  -0.29906  -0.29807  -0.29698
 Alpha  occ. eigenvalues --   -0.29552  -0.29039  -0.29005  -0.27437  -0.26952
 Alpha  occ. eigenvalues --   -0.26414  -0.26111  -0.25919  -0.25846  -0.25574
 Alpha  occ. eigenvalues --   -0.25496  -0.25258  -0.25087  -0.21503  -0.21280
 Alpha  occ. eigenvalues --   -0.19209  -0.18665
 Alpha virt. eigenvalues --   -0.11645  -0.10875  -0.05761  -0.05639  -0.04400
 Alpha virt. eigenvalues --   -0.03699  -0.02097  -0.01873  -0.00868  -0.00420
 Alpha virt. eigenvalues --   -0.00346  -0.00209   0.00486   0.00760   0.01379

 Mulliken charges:
               1
     1  Mg  12.000000
     2  C    6.000000
     3  C    6.000000
     4  C    6.000000
     5  C    6.000000
     6  N    7.000000
     7  C    6.000000
     8  C    6.000000
     9  C    6.000000
    10  C    6.000000
    11  C    6.000000
    12  C    6.000000
    13  C    6.000000
    14  H    1.000000
    15  N    7.000000
    16  C    6.000000
    17  C    6.000000
    18  C    6.000000
    19  C    6.000000
    20  C    6.000000
    21  C    6.000000
    22  O    8.000000
    23  C    6.000000
    24  N    7.000000
    25  C    6.000000
    26  C    6.000000
    27  C    6.000000
    28  C    6.000000
    29  C    6.000000
    30  C    6.000000
    31  C    6.000000
    32  N    7.000000
    33  C    6.000000
    34  C    6.000000
    35  C    6.000000
    36  C    6.000000
    37  C    6.000000
    38  C    6.000000
    39  O    8.000000
    40  C    6.000000
    41  C    6.000000
    42  O    8.000000
    43  O    8.000000
    44  C    6.000000
    45  H    1.000000
    46  H    1.000000
    47  H    1.000000
    48  H    1.000000
    49  H    1.000000
    50  H    1.000000
    51  H    1.000000
    52  H    1.000000
    53  H    1.000000
    54  H    1.000000
    55  H    1.000000
    56  H    1.000000
    57  H    1.000000
    58  H    1.000000
    59  H    1.000000
    60  H    1.000000
    61  H    1.000000
    62  H    1.000000
    63  H    1.000000
    64  H    1.000000
    65  H    1.000000
    66  H    1.000000
    67  H    1.000000
    68  H    1.000000
    69  H    1.000000
    70  H    1.000000
    71  H    1.000000
    72  H    1.000000
    73  H    1.000000
    74  H    1.000000
    75  H    1.000000
    76  H    1.000000
    77  H    1.000000
    78  H    1.000000
    79  H    1.000000
    80  Mg  12.000000
    81  C    6.000000
    82  C    6.000000
    83  C    6.000000
    84  C    6.000000
    85  N    7.000000
    86  C    6.000000
    87  C    6.000000
    88  C    6.000000
    89  C    6.000000
    90  C    6.000000
    91  C    6.000000
    92  C    6.000000
    93  H    1.000000
    94  N    7.000000
    95  C    6.000000
    96  C    6.000000
    97  C    6.000000
    98  C    6.000000
    99  C    6.000000
   100  C    6.000000
   101  O    8.000000
   102  C    6.000000
   103  N    7.000000
   104  C    6.000000
   105  C    6.000000
   106  C    6.000000
   107  C    6.000000
   108  C    6.000000
   109  C    6.000000
   110  C    6.000000
   111  N    7.000000
   112  C    6.000000
   113  C    6.000000
   114  C    6.000000
   115  C    6.000000
   116  C    6.000000
   117  C    6.000000
   118  O    8.000000
   119  C    6.000000
   120  C    6.000000
   121  O    8.000000
   122  O    8.000000
   123  C    6.000000
   124  H    1.000000
   125  H    1.000000
   126  H    1.000000
   127  H    1.000000
   128  H    1.000000
   129  H    1.000000
   130  H    1.000000
   131  H    1.000000
   132  H    1.000000
   133  H    1.000000
   134  H    1.000000
   135  H    1.000000
   136  H    1.000000
   137  H    1.000000
   138  H    1.000000
   139  H    1.000000
   140  H    1.000000
   141  H    1.000000
   142  H    1.000000
   143  H    1.000000
   144  H    1.000000
   145  H    1.000000
   146  H    1.000000
   147  H    1.000000
   148  H    1.000000
   149  H    1.000000
   150  H    1.000000
   151  H    1.000000
   152  H    1.000000
   153  H    1.000000
   154  H    1.000000
   155  H    1.000000
   156  H    1.000000
   157  H    1.000000
   158  H    1.000000
 Sum of Mulliken charges = 624.00000

 Dipole moment (field-independent basis, Debye):
    X=              0.0000    Y=              0.0000    Z=             -0.0000  Tot=              0.0000
 Quadrupole moment (field-independent basis, Debye-Ang):
   XX=             -0.0000   YY=              0.0000   ZZ=              0.0000
   XY=             -0.0000   XZ=              0.0000   YZ=              0.0000

 Normal termination of Gaussian 16 at Fri Oct 15 15:37:00 2021.
