 Gaussian 16, Revision A.03,
 Gaussian 16:  ES64L-G16RevA.03 25-Dec-2016

 --------------------------------------------------------
 #p PBE1PBE/Def2SVP td=(nstates=5) density=(transition=1)
 --------------------------------------------------------

 --------------------------------
 TDDFT excited states in gaussian
 --------------------------------
 Symbolic Z-matrix:
 Charge =  0 Multiplicity = 1

                         Standard orientation:
 ---------------------------------------------------------------------
 Center     Atomic      Atomic             Coordinates (Angstroms)
 Number     Number       Type             X           Y           Z
 ---------------------------------------------------------------------
      1         12           0      -25.224484   -0.626393   -0.518601
      2          6           0      -26.219782    1.744247    1.733371
      3          6           0      -24.194309    1.717205   -2.651344
      4          6           0      -24.552546   -3.026901   -2.618268
      5          6           0      -26.897479   -2.987590    1.561878
      6          7           0      -25.362279    1.539335   -0.545236
      7          6           0      -25.556978    2.257915    0.588673
      8          6           0      -25.028796    3.660610    0.461615
      9          6           0      -24.642323    3.694328   -1.071452
     10          6           0      -24.812846    2.252057   -1.496838
     11          6           0      -25.437203    4.719125   -1.915796
     12          6           0      -23.841749    4.040466    1.540512
     13          6           0      -23.940347    5.370978    2.302262
     14          1           0      -24.778030    6.506744    1.635014
     15          7           0      -24.352951   -0.663409   -2.230383
     16          6           0      -23.979059    0.381140   -3.014488
     17          6           0      -23.494757   -0.025185   -4.311246
     18          6           0      -23.401678   -1.382159   -4.237073
     19          6           0      -24.228676   -1.741199   -3.043338
     20          6           0      -23.263135    1.067666   -5.338669
     21          6           0      -22.800795   -2.367127   -5.259520
     22          8           0      -22.818377   -3.569405   -5.133268
     23          6           0      -22.211278   -1.703012   -6.468652
     24          7           0      -25.837421   -2.694511   -0.570190
     25          6           0      -25.283350   -3.466321   -1.522491
     26          6           0      -25.605499   -4.944884   -1.284116
     27          6           0      -26.077010   -4.963002    0.209577
     28          6           0      -26.319409   -3.455522    0.428659
     29          6           0      -26.622035   -5.665001   -2.268908
     30          6           0      -25.032694   -5.485220    1.266846
     31          6           0      -23.679876   -4.851855    1.459137
     32          7           0      -26.277281   -0.729510    1.328632
     33          6           0      -26.983330   -1.718236    2.021499
     34          6           0      -27.598382   -1.187092    3.244598
     35          6           0      -27.313298    0.184974    3.178284
     36          6           0      -26.517316    0.368757    2.004044
     37          6           0      -28.308243   -1.942234    4.338849
     38          6           0      -27.485610    1.419660    3.795612
     39          8           0      -28.102519    1.778731    4.786364
     40          6           0      -26.600185    2.439128    3.033204
     41          6           0      -27.514818    3.591233    2.862338
     42          8           0      -28.396967    3.683318    2.005275
     43          8           0      -27.339811    4.511162    3.855217
     44          6           0      -28.337259    5.569695    4.041536
     45          1           0      -23.694504    2.494103   -3.234036
     46          1           0      -24.311094   -3.887270   -3.244722
     47          1           0      -27.332029   -3.821227    2.118812
     48          1           0      -25.836905    4.385637    0.559157
     49          1           0      -23.575074    3.896237   -1.159998
     50          1           0      -26.193880    4.188180   -2.493280
     51          1           0      -24.749999    5.198329   -2.613105
     52          1           0      -25.895613    5.411798   -1.209886
     53          1           0      -22.923907    4.032017    0.952514
     54          1           0      -23.791303    3.292174    2.330839
     55          1           0      -22.956482    5.832598    2.381700
     56          1           0      -24.252212    5.185041    3.329942
     57          1           0      -24.148616    1.641206   -5.613116
     58          1           0      -23.013581    0.813971   -6.368769
     59          1           0      -22.454743    1.624795   -4.865119
     60          1           0      -21.454037   -0.975514   -6.177319
     61          1           0      -23.102404   -1.327630   -6.971298
     62          1           0      -21.641379   -2.306347   -7.174362
     63          1           0      -24.633846   -5.409635   -1.455190
     64          1           0      -27.046462   -5.458901    0.262858
     65          1           0      -26.954780   -4.956816   -3.027379
     66          1           0      -27.545545   -5.920699   -1.750795
     67          1           0      -26.272006   -6.582708   -2.744007
     68          1           0      -24.943385   -6.519113    0.932413
     69          1           0      -25.435971   -5.483390    2.278997
     70          1           0      -23.502907   -4.123251    0.666908
     71          1           0      -22.892226   -5.600453    1.375006
     72          1           0      -23.538726   -4.275227    2.373073
     73          1           0      -29.384091   -1.773087    4.330110
     74          1           0      -27.898046   -1.658112    5.308077
     75          1           0      -28.156222   -2.983486    4.053519
     76          1           0      -25.676863    2.657561    3.570048
     77          1           0      -28.356062    5.942085    5.066460
     78          1           0      -29.304684    5.297057    3.622584
     79          1           0      -28.136907    6.445929    3.425225
     80         12           0       25.186079   -0.730582    0.406537
     81          6           0       25.128597    2.160264   -1.629305
     82          6           0       25.034154    1.315624    3.148623
     83          6           0       25.893018   -3.361122    2.290236
     84          6           0       25.821862   -2.622947   -2.468561
     85          7           0       25.256168    1.502118    0.720047
     86          6           0       25.115617    2.461208   -0.286499
     87          6           0       24.770063    3.835131    0.338936
     88          6           0       24.765788    3.537155    1.882837
     89          6           0       24.994292    2.002986    1.975568
     90          6           0       25.601866    4.446289    2.766553
     91          6           0       23.474738    4.503889   -0.147010
     92          6           0       23.675428    5.944825   -0.691539
     93          1           0       22.835295    7.013619   -0.028343
     94          7           0       25.340904   -0.974562    2.460977
     95          6           0       25.286282   -0.030586    3.444006
     96          6           0       25.291043   -0.718518    4.713065
     97          6           0       25.696435   -2.101521    4.477254
     98          6           0       25.670009   -2.151017    3.023471
     99          6           0       25.177289    0.061192    6.123611
    100          6           0       26.288284   -3.112565    5.361975
    101          8           0       26.588675   -4.238566    5.084235
    102          6           0       26.561837   -2.665482    6.794911
    103          7           0       25.986501   -2.683781   -0.058085
    104          6           0       26.126829   -3.604272    0.915672
    105          6           0       26.335405   -4.997502    0.317569
    106          6           0       25.952424   -4.794828   -1.157211
    107          6           0       25.870535   -3.288193   -1.260717
    108          6           0       27.846388   -5.486221    0.489945
    109          6           0       24.499683   -5.451139   -1.402829
    110          6           0       23.299312   -4.680054   -0.789018
    111          7           0       25.325015   -0.419925   -1.682534
    112          6           0       25.569101   -1.273414   -2.690096
    113          6           0       25.553191   -0.530238   -3.921342
    114          6           0       25.337675    0.785786   -3.557664
    115          6           0       25.264423    0.844158   -2.163241
    116          6           0       25.756011   -1.024760   -5.340882
    117          6           0       25.244543    2.119902   -4.156630
    118          8           0       25.377020    2.632684   -5.232023
    119          6           0       25.026018    3.060396   -2.942088
    120          6           0       26.145914    4.033166   -2.985879
    121          8           0       27.294627    3.668899   -3.012748
    122          8           0       25.729896    5.351403   -3.081295
    123          6           0       26.786037    6.359980   -3.429268
    124          1           0       24.776431    1.954560    3.995995
    125          1           0       26.015137   -4.283844    2.861991
    126          1           0       25.799745   -3.151808   -3.423721
    127          1           0       25.609842    4.511522    0.178316
    128          1           0       23.771196    3.768612    2.264540
    129          1           0       26.323729    5.011583    2.178955
    130          1           0       26.118952    3.922749    3.571081
    131          1           0       24.910635    5.188410    3.165202
    132          1           0       22.672234    4.651115    0.575791
    133          1           0       23.005202    3.910138   -0.930964
    134          1           0       23.603389    5.974658   -1.778698
    135          1           0       24.698965    6.239911   -0.463994
    136          1           0       24.431813   -0.454468    6.728869
    137          1           0       24.830131    1.092728    6.077921
    138          1           0       26.079600    0.201918    6.718654
    139          1           0       25.568545   -2.425995    7.175262
    140          1           0       27.193113   -1.783320    6.693023
    141          1           0       26.973219   -3.439511    7.443529
    142          1           0       25.651418   -5.748881    0.713575
    143          1           0       26.631858   -5.106418   -1.950859
    144          1           0       27.821038   -6.575018    0.541626
    145          1           0       28.403366   -5.161037    1.369307
    146          1           0       28.330332   -5.173901   -0.435320
    147          1           0       24.443349   -6.487815   -1.071396
    148          1           0       24.241274   -5.375994   -2.459175
    149          1           0       22.346066   -5.207327   -0.805901
    150          1           0       23.169178   -3.765079   -1.367155
    151          1           0       23.569783   -4.413224    0.233143
    152          1           0       25.000289   -1.731427   -5.683065
    153          1           0       26.715966   -1.538504   -5.296468
    154          1           0       25.886164   -0.211981   -6.055388
    155          1           0       24.093540    3.568530   -3.187170
    156          1           0       26.513994    7.135520   -2.713287
    157          1           0       26.689848    6.746695   -4.443643
    158          1           0       27.841535    6.102990   -3.343494
 ---------------------------------------------------------------------

 SCF Done:  E(RPBE1PBE) =  -4067.37706043     A.U. after   16 cycles

 Excitation energies and oscillator strengths:

 Excited State   1:      Singlet-A      1.7462 eV  710.02 nm  f=0.0000  <S**2>=0.000
     312 -> 313        0.70711
 This state for optimization and/or second-order correction.
 Total Energy, E(TD-HF/TD-DFT) =  -4067.31288858
 Copying the excited state density for this state as the 1-particle RhoCI density.

 Excited State   2:      Singlet-A      1.8679 eV  663.76 nm  f=0.3802  <S**2>=0.000
     309 -> 316        0.16814
     311 -> 313        0.69460
     311 <- 313       -0.11167

 Excited State   3:      Singlet-A      1.8950 eV  654.27 nm  f=0.3684  <S**2>=0.000
     310 -> 315       -0.18686
     312 -> 314        0.68804

 Excited State   4:      Singlet-A      2.2023 eV  562.96 nm  f=0.1273  <S**2>=0.000
     309 -> 313        0.66413
     311 -> 316       -0.22445

 Excited State   5:      Singlet-A      2.2581 eV  549.07 nm  f=0.0659  <S**2>=0.000
     310 -> 314        0.63634
     312 -> 315        0.29840

 The electronic state is 1-A.
 Alpha  occ. eigenvalues --  -46.92958 -46.91372 -19.25793 -19.24628 -19.19940
 Alpha  occ. eigenvalues --  -19.19805 -19.19484 -19.18660 -19.18653 -19.18102
 Alpha  occ. eigenvalues --  -14.41718 -14.41409 -14.41188 -14.40576 -14.39549
 Alpha  occ. eigenvalues --  -14.39462 -14.38893 -14.38503 -10.35802 -10.35332
 Alpha  occ. eigenvalues --  -10.32911 -10.32299 -10.31522 -10.30837 -10.29258
 Alpha  occ. eigenvalues --  -10.29045 -10.28563 -10.28536 -10.28488 -10.28328
 Alpha  occ. eigenvalues --  -10.28303 -10.28090 -10.27992 -10.27937 -10.27841
 Alpha  occ. eigenvalues --  -10.27734 -10.27528 -10.27448 -10.27026 -10.26942
 Alpha  occ. eigenvalues --  -10.26828 -10.26741 -10.26555 -10.26555 -10.26304
 Alpha  occ. eigenvalues --  -10.25950 -10.25872 -10.25869 -10.25849 -10.25765
 Alpha  occ. eigenvalues --  -10.25750 -10.25709 -10.25576 -10.25501 -10.25431
 Alpha  occ. eigenvalues --  -10.25422 -10.25409 -10.25358 -10.25288 -10.25249
 Alpha  occ. eigenvalues --  -10.25142 -10.25047 -10.25023 -10.24911 -10.24782
 Alpha  occ. eigenvalues --  -10.24739 -10.24242 -10.24228 -10.24137 -10.24095
 Alpha  occ. eigenvalues --  -10.23989 -10.23966 -10.23666 -10.23591 -10.23532
 Alpha  occ. eigenvalues --  -10.23514 -10.23494 -10.23477 -10.23461 -10.23145
 Alpha  occ. eigenvalues --  -10.23063 -10.22741 -10.22732 -10.22662 -10.22388
 Alpha  occ. eigenvalues --  -10.22030  -3.14946  -3.13799  -1.87768  -1.87333
 Alpha  occ. eigenvalues --   -1.87161  -1.86606  -1.86189  -1.86056  -1.10422
 Alpha  occ. eigenvalues --   -1.09671  -1.06425  -1.06090  -1.05869  -1.03930
 Alpha  occ. eigenvalues --   -1.02445  -1.00794  -1.00154  -0.99842  -0.99289
 Alpha  occ. eigenvalues --   -0.98992  -0.98852  -0.98562  -0.97796  -0.96637
 Alpha  occ. eigenvalues --   -0.86832  -0.86718  -0.83806  -0.83210  -0.83100
 Alpha  occ. eigenvalues --   -0.82705  -0.82605  -0.82288  -0.82260  -0.82108
 Alpha  occ. eigenvalues --   -0.81831  -0.81029  -0.80884  -0.80635  -0.78739
 Alpha  occ. eigenvalues --   -0.78649  -0.77910  -0.77785  -0.76887  -0.76787
 Alpha  occ. eigenvalues --   -0.76733  -0.75512  -0.75416  -0.75211  -0.74839
 Alpha  occ. eigenvalues --   -0.74450  -0.73226  -0.72698  -0.71869  -0.71725
 Alpha  occ. eigenvalues --   -0.71331  -0.71070  -0.70475  -0.70043  -0.69613
 Alpha  occ. eigenvalues --   -0.69559  -0.67577  -0.67167  -0.66256  -0.66128
 Alpha  occ. eigenvalues --   -0.64011  -0.63718  -0.63659  -0.63446  -0.62647
 Alpha  occ. eigenvalues --   -0.62537  -0.61675  -0.61657  -0.59935  -0.59864
 Alpha  occ. eigenvalues --   -0.59851  -0.59673  -0.59492  -0.59269  -0.59083
 Alpha  occ. eigenvalues --   -0.58353  -0.56862  -0.56367  -0.55557  -0.55043
 Alpha  occ. eigenvalues --   -0.54296  -0.53934  -0.53880  -0.53824  -0.53381
 Alpha  occ. eigenvalues --   -0.52640  -0.52591  -0.52392  -0.52183  -0.52141
 Alpha  occ. eigenvalues --   -0.50853  -0.50641  -0.49922  -0.49886  -0.49733
 Alpha  occ. eigenvalues --   -0.49642  -0.49247  -0.49190  -0.48742  -0.48689
 Alpha  occ. eigenvalues --   -0.48230  -0.48041  -0.47830  -0.47585  -0.47318
 Alpha  occ. eigenvalues --   -0.47114  -0.47056  -0.46962  -0.46902  -0.46846
 Alpha  occ. eigenvalues --   -0.46724  -0.46568  -0.46165  -0.46150  -0.45840
 Alpha  occ. eigenvalues --   -0.45745  -0.45354  -0.45259  -0.44995  -0.44858
 Alpha  occ. eigenvalues --   -0.44669  -0.44414  -0.44091  -0.44057  -0.44016
 Alpha  occ. eigenvalues --   -0.43944  -0.43944  -0.43745  -0.43677  -0.43425
 Alpha  occ. eigenvalues --   -0.43168  -0.43091  -0.42961  -0.42739  -0.42676
 Alpha  occ. eigenvalues --   -0.42585  -0.42405  -0.42287  -0.42063  -0.41869
 Alpha  occ. eigenvalues --   -0.41688  -0.41507  -0.41360  -0.41258  -0.41125
 Alpha  occ. eigenvalues --   -0.40922  -0.40803  -0.40623  -0.40540  -0.40337
 Alpha  occ. eigenvalues --   -0.40269  -0.40113  -0.40064  -0.39834  -0.39683
 Alpha  occ. eigenvalues --   -0.39342  -0.39291  -0.38939  -0.38891  -0.38728
 Alpha  occ. eigenvalues --   -0.38632  -0.38526  -0.38183  -0.38127  -0.38125
 Alpha  occ. eigenvalues --   -0.37951  -0.37833  -0.37764  -0.37739  -0.37699
 Alpha  occ. eigenvalues --   -0.37364  -0.37226  -0.37166  -0.37077  -0.37004
 Alpha  occ. eigenvalues --   -0.36892  -0.36777  -0.36437  -0.36342  -0.36323
 Alpha  occ. eigenvalues --   -0.36104  -0.35936  -0.35762  -0.35651  -0.35430
 Alpha  occ. eigenvalues --   -0.35264  -0.34700  -0.34501  -0.34170  -0.34020
 Alpha  occ. eigenvalues --   -0.33482  -0.33326  -0.33200  -0.33077  -0.32847
 Alpha  occ. eigenvalues --   -0.32127  -0.32086  -0.31519  -0.31393  -0.31384
 Alpha  occ. eigenvalues --   -0.31219  -0.30130  -0.29623  -0.29593  -0.29143
 Alpha  occ. eigenvalues --   -0.28770  -0.28744  -0.27881  -0.27696  -0.27265
 Alpha  occ. eigenvalues --   -0.26369  -0.26176  -0.26149  -0.26022  -0.25777
 Alpha  occ. eigenvalues --   -0.25540  -0.25140  -0.25135  -0.21156  -0.20687
 Alpha  occ. eigenvalues --   -0.19218  -0.18289
 Alpha virt. eigenvalues --   -0.11614  -0.10458  -0.05240  -0.05026  -0.03943
 Alpha virt. eigenvalues --   -0.03713  -0.01958  -0.01881  -0.01151  -0.00073
 Alpha virt. eigenvalues --    0.00787   0.00931   0.01130   0.01650   0.02036

 Mulliken charges:
               1
     1  Mg  12.000000
     2  C    6.000000
     3  C    6.000000
     4  C    6.000000
     5  C    6.000000
     6  N    7.000000
     7  C    6.000000
     8  C    6.000000
     9  C    6.000000
    10  C    6.000000
    11  C    6.000000
    12  C    6.000000
    13  C    6.000000
    14  H    1.000000
    15  N    7.000000
    16  C    6.000000
    17  C    6.000000
    18  C    6.000000
    19  C    6.000000
    20  C    6.000000
    21  C    6.000000
    22  O    8.000000
    23  C    6.000000
    24  N    7.000000
    25  C    6.000000
    26  C    6.000000
    27  C    6.000000
    28  C    6.000000
    29  C    6.000000
    30  C    6.000000
    31  C    6.000000
    32  N    7.000000
    33  C    6.000000
    34  C    6.000000
    35  C    6.000000
    36  C    6.000000
    37  C    6.000000
    38  C    6.000000
    39  O    8.000000
    40  C    6.000000
    41  C    6.000000
    42  O    8.000000
    43  O    8.000000
    44  C    6.000000
    45  H    1.000000
    46  H    1.000000
    47  H    1.000000
    48  H    1.000000
    49  H    1.000000
    50  H    1.000000
    51  H    1.000000
    52  H    1.000000
    53  H    1.000000
    54  H    1.000000
    55  H    1.000000
    56  H    1.000000
    57  H    1.000000
    58  H    1.000000
    59  H    1.000000
    60  H    1.000000
    61  H    1.000000
    62  H    1.000000
    63  H    1.000000
    64  H    1.000000
    65  H    1.000000
    66  H    1.000000
    67  H    1.000000
    68  H    1.000000
    69  H    1.000000
    70  H    1.000000
    71  H    1.000000
    72  H    1.000000
    73  H    1.000000
    74  H    1.000000
    75  H    1.000000
    76  H    1.000000
    77  H    1.000000
    78  H    1.000000
    79  H    1.000000
    80  Mg  12.000000
    81  C    6.000000
    82  C    6.000000
    83  C    6.000000
    84  C    6.000000
    85  N    7.000000
    86  C    6.000000
    87  C    6.000000
    88  C    6.000000
    89  C    6.000000
    90  C    6.000000
    91  C    6.000000
    92  C    6.000000
    93  H    1.000000
    94  N    7.000000
    95  C    6.000000
    96  C    6.000000
    97  C    6.000000
    98  C    6.000000
    99  C    6.000000
   100  C    6.000000
   101  O    8.000000
   102  C    6.000000
   103  N    7.000000
   104  C    6.000000
   105  C    6.000000
   106  C    6.000000
   107  C    6.000000
   108  C    6.000000
   109  C    6.000000
   110  C    6.000000
   111  N    7.000000
   112  C    6.000000
   113  C    6.000000
   114  C    6.000000
   115  C    6.000000
   116  C    6.000000
   117  C    6.000000
   118  O    8.000000
   119  C    6.000000
   120  C    6.000000
   121  O    8.000000
   122  O    8.000000
   123  C    6.000000
   124  H    1.000000
   125  H    1.000000
   126  H    1.000000
   127  H    1.000000
   128  H    1.000000
   129  H    1.000000
   130  H    1.000000
   131  H    1.000000
   132  H    1.000000
   133  H    1.000000
   134  H    1.000000
   135  H    1.000000
   136  H    1.000000
   137  H    1.000000
   138  H    1.000000
   139  H    1.000000
   140  H    1.000000
   141  H    1.000000
   142  H    1.000000
   143  H    1.000000
   144  H    1.000000
   145  H    1.000000
   146  H    1.000000
   147  H    1.000000
   148  H    1.000000
   149  H    1.000000
   150  H    1.000000
   151  H    1.000000
   152  H    1.000000
   153  H    1.000000
   154  H    1.000000
   155  H    1.000000
   156  H    1.000000
   157  H    1.000000
   158  H    1.000000
 Sum of Mulliken charges = 624.00000

 Dipole moment (field-independent basis, Debye):
    X=              0.0000    Y=              0.0000    Z=             -0.0000  Tot=              0.0000
 Quadrupole moment (field-independent basis, Debye-Ang):
   XX=             -0.0000   YY=              0.0000   ZZ=             -0.0000
   XY=              0.0000   XZ=             -0.0000   YZ=              0.0000

 Normal termination of Gaussian 16 at Wed Oct 13 22:11:27 2021.
