 Gaussian 16, Revision A.03,
 Gaussian 16:  ES64L-G16RevA.03 25-Dec-2016

 --------------------------------------------------------
 #p PBE1PBE/Def2SVP td=(nstates=5) density=(transition=1)
 --------------------------------------------------------

 --------------------------------
 TDDFT excited states in gaussian
 --------------------------------
 Symbolic Z-matrix:
 Charge =  0 Multiplicity = 1

                         Standard orientation:
 ---------------------------------------------------------------------
 Center     Atomic      Atomic             Coordinates (Angstroms)
 Number     Number       Type             X           Y           Z
 ---------------------------------------------------------------------
      1         12           0       -8.885348   -1.002833    0.512287
      2          6           0      -10.192868    2.022441   -0.575134
      3          6           0       -7.529007    0.528990    3.193327
      4          6           0       -7.528618   -3.942641    1.361811
      5          6           0      -10.195268   -2.470860   -2.384433
      6          7           0       -8.932878    1.077536    1.187035
      7          6           0       -9.573022    2.102090    0.676390
      8          6           0       -9.334960    3.349942    1.645752
      9          6           0       -7.990859    2.932549    2.203993
     10          6           0       -8.150172    1.379498    2.248479
     11          6           0       -6.850301    3.476349    1.316795
     12          6           0      -10.594108    3.575858    2.588495
     13          6           0      -10.689677    4.977012    3.200055
     14          1           0       -9.504389    5.917203    3.064711
     15          7           0       -7.859680   -1.651816    2.131045
     16          6           0       -7.453306   -0.850098    3.195114
     17          6           0       -6.932261   -1.753160    4.264763
     18          6           0       -6.862714   -3.099802    3.705979
     19          6           0       -7.363532   -2.877790    2.323474
     20          6           0       -6.510542   -1.251477    5.625533
     21          6           0       -6.429739   -4.493029    4.358451
     22          8           0       -6.497207   -5.576822    3.768768
     23          6           0       -5.931764   -4.442530    5.787815
     24          7           0       -8.767852   -2.852637   -0.407646
     25          6           0       -8.148517   -3.905858    0.118560
     26          6           0       -8.139007   -5.140445   -0.834863
     27          6           0       -9.187607   -4.692720   -1.863219
     28          6           0       -9.467431   -3.262459   -1.523608
     29          6           0       -6.748868   -5.483168   -1.439632
     30          6           0      -10.459486   -5.621937   -2.103451
     31          6           0      -11.753397   -5.188095   -1.496976
     32          7           0       -9.792976   -0.367714   -1.260265
     33          6           0      -10.320119   -1.059011   -2.298600
     34          6           0      -10.936670   -0.226570   -3.269087
     35          6           0      -10.921133    1.048827   -2.621614
     36          6           0      -10.232245    0.853780   -1.446321
     37          6           0      -11.511493   -0.463720   -4.641513
     38          6           0      -11.301974    2.428642   -2.680584
     39          8           0      -11.894615    3.071340   -3.520227
     40          6           0      -10.998128    3.105815   -1.306182
     41          6           0      -10.260057    4.353248   -1.525916
     42          8           0       -9.161058    4.378902   -2.058757
     43          8           0      -11.009061    5.522007   -1.234753
     44          6           0      -10.356227    6.802352   -1.549930
     45          1           0       -7.051579    1.072202    4.010156
     46          1           0       -7.037604   -4.874920    1.645863
     47          1           0      -10.545757   -2.953554   -3.298724
     48          1           0       -9.286480    4.266887    1.059964
     49          1           0       -7.824432    3.223973    3.240742
     50          1           0       -6.373896    4.201432    1.977499
     51          1           0       -7.211156    3.964277    0.410404
     52          1           0       -6.156865    2.646566    1.181819
     53          1           0      -10.573826    2.866785    3.416567
     54          1           0      -11.457142    3.469510    1.930840
     55          1           0      -10.915889    4.838709    4.256868
     56          1           0      -11.566085    5.451839    2.759658
     57          1           0       -7.121021   -0.406265    5.945434
     58          1           0       -5.466288   -0.965965    5.748273
     59          1           0       -6.717603   -2.032184    6.357312
     60          1           0       -5.159762   -3.673945    5.758978
     61          1           0       -5.446406   -5.355208    6.132356
     62          1           0       -6.763615   -4.236596    6.461600
     63          1           0       -8.465671   -6.043232   -0.318985
     64          1           0       -8.638512   -4.564095   -2.795269
     65          1           0       -6.945928   -5.709972   -2.487687
     66          1           0       -6.193599   -6.295398   -0.973093
     67          1           0       -6.104626   -4.614673   -1.302369
     68          1           0      -10.194631   -6.643152   -1.829214
     69          1           0      -10.701435   -5.618783   -3.166010
     70          1           0      -12.418871   -4.912010   -2.315256
     71          1           0      -11.737559   -4.242301   -0.953980
     72          1           0      -12.269088   -5.961765   -0.928012
     73          1           0      -11.353564   -1.485766   -4.987671
     74          1           0      -11.138488    0.305324   -5.318553
     75          1           0      -12.597833   -0.429017   -4.726521
     76          1           0      -11.911210    3.338166   -0.758740
     77          1           0      -10.864076    7.686033   -1.164323
     78          1           0      -10.347476    6.810667   -2.640203
     79          1           0       -9.329498    6.694273   -1.202273
     80         12           0        9.321070   -0.336767   -0.158782
     81          6           0        7.379874    2.602233   -0.075536
     82          6           0       11.968998    1.432318    1.019992
     83          6           0       11.170176   -3.160973   -0.370003
     84          6           0        6.700521   -1.944339   -1.773395
     85          7           0        9.667526    1.757901    0.306683
     86          6           0        8.699653    2.763499    0.378519
     87          6           0        9.296644    3.983704    1.012770
     88          6           0       10.815253    3.719947    0.878485
     89          6           0       10.824218    2.177287    0.723213
     90          6           0       11.556790    4.373112   -0.330352
     91          6           0        8.851071    4.276128    2.494967
     92          6           0        8.450526    5.693847    2.752729
     93          1           0        9.001595    6.341837    4.036637
     94          7           0       11.218842   -0.791665    0.359177
     95          6           0       12.172467    0.065461    0.933180
     96          6           0       13.353975   -0.647258    1.216066
     97          6           0       13.158419   -2.052484    0.816786
     98          6           0       11.833078   -2.054564    0.266320
     99          6           0       14.643999   -0.051422    1.698912
    100          6           0       14.121098   -3.318205    0.826228
    101          8           0       13.726667   -4.400339    0.461389
    102          6           0       15.531714   -3.225703    1.390298
    103          7           0        9.012300   -2.248304   -1.062193
    104          6           0        9.953858   -3.226019   -1.017020
    105          6           0        9.430625   -4.532889   -1.784274
    106          6           0        7.877735   -4.238177   -1.968096
    107          6           0        7.838189   -2.698501   -1.581530
    108          6           0       10.121181   -4.860306   -3.137067
    109          6           0        6.942734   -5.113874   -1.060033
    110          6           0        5.907841   -5.794031   -1.853806
    111          7           0        7.445242    0.202809   -0.846323
    112          6           0        6.440115   -0.594697   -1.391377
    113          6           0        5.251526    0.188227   -1.593720
    114          6           0        5.584472    1.441464   -1.121580
    115          6           0        6.864346    1.414426   -0.664676
    116          6           0        3.934077   -0.421170   -2.140089
    117          6           0        5.103520    2.798825   -0.940521
    118          8           0        4.060953    3.278610   -1.327995
    119          6           0        6.293679    3.636620   -0.254898
    120          6           0        6.659296    4.758633   -1.138795
    121          8           0        7.045769    4.631250   -2.330228
    122          8           0        6.465978    5.923900   -0.456447
    123          6           0        6.421909    7.136714   -1.315608
    124          1           0       12.785578    2.073158    1.358965
    125          1           0       11.699990   -4.107968   -0.490908
    126          1           0        5.914483   -2.442239   -2.344085
    127          1           0        9.148879    4.899458    0.439075
    128          1           0       11.390809    4.038261    1.747857
    129          1           0       11.159927    5.347375   -0.618661
    130          1           0       11.496735    3.665278   -1.157477
    131          1           0       12.636838    4.473079   -0.225692
    132          1           0        9.694767    3.961193    3.108751
    133          1           0        8.045912    3.611816    2.810184
    134          1           0        7.364157    5.603788    2.759150
    135          1           0        8.838533    6.332748    1.959516
    136          1           0       14.896745   -0.252098    2.740274
    137          1           0       14.565980    1.034746    1.673824
    138          1           0       15.558453   -0.286449    1.154928
    139          1           0       15.906791   -4.248263    1.407289
    140          1           0       15.551836   -2.684587    2.336737
    141          1           0       16.113712   -2.510027    0.808882
    142          1           0        9.653747   -5.422510   -1.195074
    143          1           0        7.627521   -4.370198   -3.021796
    144          1           0       10.852741   -4.136175   -3.497116
    145          1           0        9.415906   -4.974684   -3.960613
    146          1           0       10.624969   -5.818220   -3.005132
    147          1           0        6.416795   -4.455144   -0.367969
    148          1           0        7.453783   -5.903987   -0.510280
    149          1           0        6.222079   -6.824483   -2.021783
    150          1           0        5.577587   -5.346455   -2.790533
    151          1           0        4.964629   -5.774715   -1.307729
    152          1           0        3.982681   -1.506474   -2.048314
    153          1           0        3.694718   -0.034067   -3.131580
    154          1           0        3.175855   -0.086675   -1.433033
    155          1           0        6.004987    4.016101    0.725610
    156          1           0        6.131404    8.006566   -0.726718
    157          1           0        5.582348    6.970273   -1.990892
    158          1           0        7.385663    7.197192   -1.821973
 ---------------------------------------------------------------------

 SCF Done:  E(RPBE1PBE) =  -4067.40678646     A.U. after   16 cycles

 Excitation energies and oscillator strengths:

 Excited State   1:      Singlet-A      1.8349 eV  675.71 nm  f=0.0000  <S**2>=0.000
     312 -> 313        0.70707
 This state for optimization and/or second-order correction.
 Total Energy, E(TD-HF/TD-DFT) =  -4067.33935609
 Copying the excited state density for this state as the 1-particle RhoCI density.

 Excited State   2:      Singlet-A      1.8718 eV  662.36 nm  f=0.4176  <S**2>=0.000
     310 -> 316        0.17494
     312 -> 314        0.69160
     312 <- 314       -0.10634

 Excited State   3:      Singlet-A      1.8995 eV  652.72 nm  f=0.3460  <S**2>=0.000
     309 -> 315        0.17426
     311 -> 313        0.69029
     311 <- 313       -0.10871

 Excited State   4:      Singlet-A      1.9565 eV  633.70 nm  f=0.0000  <S**2>=0.000
     311 -> 314        0.70708

 Excited State   5:      Singlet-A      2.2132 eV  560.21 nm  f=0.0376  <S**2>=0.000
     309 -> 313        0.60382
     310 -> 314       -0.27420
     311 -> 315       -0.20891

 The electronic state is 1-A.
 Alpha  occ. eigenvalues --  -46.91083 -46.90623 -19.26317 -19.24514 -19.20416
 Alpha  occ. eigenvalues --  -19.19994 -19.19782 -19.19611 -19.19373 -19.18244
 Alpha  occ. eigenvalues --  -14.41507 -14.41286 -14.41075 -14.41006 -14.39545
 Alpha  occ. eigenvalues --  -14.38964 -14.38333 -14.38329 -10.36454 -10.35807
 Alpha  occ. eigenvalues --  -10.34121 -10.33399 -10.32301 -10.31333 -10.29387
 Alpha  occ. eigenvalues --  -10.28891 -10.28777 -10.28448 -10.28310 -10.28306
 Alpha  occ. eigenvalues --  -10.28280 -10.28232 -10.28206 -10.28200 -10.28177
 Alpha  occ. eigenvalues --  -10.28066 -10.27726 -10.27565 -10.27429 -10.27025
 Alpha  occ. eigenvalues --  -10.26757 -10.26431 -10.26393 -10.26181 -10.26056
 Alpha  occ. eigenvalues --  -10.25941 -10.25858 -10.25821 -10.25787 -10.25736
 Alpha  occ. eigenvalues --  -10.25652 -10.25601 -10.25539 -10.25527 -10.25481
 Alpha  occ. eigenvalues --  -10.25455 -10.25332 -10.25287 -10.25273 -10.25223
 Alpha  occ. eigenvalues --  -10.25131 -10.24968 -10.24695 -10.24620 -10.24539
 Alpha  occ. eigenvalues --  -10.24533 -10.24459 -10.24216 -10.24125 -10.24094
 Alpha  occ. eigenvalues --  -10.23963 -10.23943 -10.23676 -10.23665 -10.23531
 Alpha  occ. eigenvalues --  -10.23460 -10.23364 -10.23341 -10.23189 -10.23151
 Alpha  occ. eigenvalues --  -10.22928 -10.22810 -10.22200 -10.22100 -10.22095
 Alpha  occ. eigenvalues --  -10.21946  -3.13422  -3.12925  -1.86276  -1.85773
 Alpha  occ. eigenvalues --   -1.85761  -1.85694  -1.85288  -1.85175  -1.10535
 Alpha  occ. eigenvalues --   -1.09151  -1.06361  -1.05184  -1.04943  -1.04425
 Alpha  occ. eigenvalues --   -1.01496  -1.01134  -1.00279  -0.99531  -0.99337
 Alpha  occ. eigenvalues --   -0.98702  -0.98125  -0.97623  -0.97213  -0.95995
 Alpha  occ. eigenvalues --   -0.87002  -0.86504  -0.83479  -0.83466  -0.82946
 Alpha  occ. eigenvalues --   -0.82702  -0.82425  -0.82311  -0.81491  -0.81383
 Alpha  occ. eigenvalues --   -0.81193  -0.80664  -0.80659  -0.80231  -0.78570
 Alpha  occ. eigenvalues --   -0.78421  -0.78127  -0.77943  -0.77199  -0.76919
 Alpha  occ. eigenvalues --   -0.76514  -0.76236  -0.75514  -0.75245  -0.75016
 Alpha  occ. eigenvalues --   -0.74351  -0.72660  -0.72490  -0.71653  -0.71524
 Alpha  occ. eigenvalues --   -0.71112  -0.70919  -0.70057  -0.70024  -0.69334
 Alpha  occ. eigenvalues --   -0.69219  -0.67367  -0.67248  -0.65528  -0.65405
 Alpha  occ. eigenvalues --   -0.63616  -0.63063  -0.63057  -0.62493  -0.62265
 Alpha  occ. eigenvalues --   -0.61987  -0.60914  -0.60800  -0.59963  -0.59610
 Alpha  occ. eigenvalues --   -0.59494  -0.59100  -0.59082  -0.58680  -0.58609
 Alpha  occ. eigenvalues --   -0.58315  -0.56550  -0.55792  -0.54974  -0.54848
 Alpha  occ. eigenvalues --   -0.54619  -0.54115  -0.53861  -0.53650  -0.52733
 Alpha  occ. eigenvalues --   -0.52594  -0.52460  -0.52419  -0.52108  -0.52002
 Alpha  occ. eigenvalues --   -0.50697  -0.50305  -0.50282  -0.50150  -0.50046
 Alpha  occ. eigenvalues --   -0.49922  -0.49490  -0.49238  -0.48417  -0.48327
 Alpha  occ. eigenvalues --   -0.48110  -0.48067  -0.48004  -0.47631  -0.47387
 Alpha  occ. eigenvalues --   -0.47314  -0.47198  -0.47053  -0.46836  -0.46546
 Alpha  occ. eigenvalues --   -0.46458  -0.46450  -0.46338  -0.45872  -0.45775
 Alpha  occ. eigenvalues --   -0.45746  -0.45468  -0.45114  -0.45011  -0.44999
 Alpha  occ. eigenvalues --   -0.44954  -0.44685  -0.44363  -0.44278  -0.44046
 Alpha  occ. eigenvalues --   -0.44014  -0.44007  -0.43772  -0.43572  -0.43509
 Alpha  occ. eigenvalues --   -0.43386  -0.43364  -0.43149  -0.43014  -0.42669
 Alpha  occ. eigenvalues --   -0.42414  -0.42239  -0.41950  -0.41910  -0.41570
 Alpha  occ. eigenvalues --   -0.41437  -0.41339  -0.41179  -0.41170  -0.41043
 Alpha  occ. eigenvalues --   -0.40814  -0.40650  -0.40581  -0.40525  -0.40429
 Alpha  occ. eigenvalues --   -0.40385  -0.40112  -0.39852  -0.39565  -0.39507
 Alpha  occ. eigenvalues --   -0.39457  -0.39342  -0.39229  -0.39152  -0.39046
 Alpha  occ. eigenvalues --   -0.38742  -0.38457  -0.38277  -0.38254  -0.38171
 Alpha  occ. eigenvalues --   -0.37983  -0.37864  -0.37836  -0.37699  -0.37650
 Alpha  occ. eigenvalues --   -0.37466  -0.37317  -0.37041  -0.36874  -0.36774
 Alpha  occ. eigenvalues --   -0.36732  -0.36553  -0.36181  -0.36121  -0.35869
 Alpha  occ. eigenvalues --   -0.35826  -0.35708  -0.35426  -0.35347  -0.34908
 Alpha  occ. eigenvalues --   -0.34889  -0.34789  -0.34092  -0.34007  -0.33798
 Alpha  occ. eigenvalues --   -0.33355  -0.33073  -0.32955  -0.32862  -0.32846
 Alpha  occ. eigenvalues --   -0.32473  -0.31750  -0.31605  -0.31406  -0.31129
 Alpha  occ. eigenvalues --   -0.31072  -0.30452  -0.29595  -0.29495  -0.29135
 Alpha  occ. eigenvalues --   -0.28930  -0.28587  -0.28462  -0.26948  -0.26771
 Alpha  occ. eigenvalues --   -0.26534  -0.26484  -0.25906  -0.25896  -0.25636
 Alpha  occ. eigenvalues --   -0.25371  -0.25151  -0.25151  -0.20933  -0.20740
 Alpha  occ. eigenvalues --   -0.19126  -0.18876
 Alpha virt. eigenvalues --   -0.11419  -0.11198  -0.04845  -0.04706  -0.04109
 Alpha virt. eigenvalues --   -0.03556  -0.01933  -0.01692  -0.00188   0.00240
 Alpha virt. eigenvalues --    0.00650   0.00965   0.01414   0.01508   0.01954

 Mulliken charges:
               1
     1  Mg  12.000000
     2  C    6.000000
     3  C    6.000000
     4  C    6.000000
     5  C    6.000000
     6  N    7.000000
     7  C    6.000000
     8  C    6.000000
     9  C    6.000000
    10  C    6.000000
    11  C    6.000000
    12  C    6.000000
    13  C    6.000000
    14  H    1.000000
    15  N    7.000000
    16  C    6.000000
    17  C    6.000000
    18  C    6.000000
    19  C    6.000000
    20  C    6.000000
    21  C    6.000000
    22  O    8.000000
    23  C    6.000000
    24  N    7.000000
    25  C    6.000000
    26  C    6.000000
    27  C    6.000000
    28  C    6.000000
    29  C    6.000000
    30  C    6.000000
    31  C    6.000000
    32  N    7.000000
    33  C    6.000000
    34  C    6.000000
    35  C    6.000000
    36  C    6.000000
    37  C    6.000000
    38  C    6.000000
    39  O    8.000000
    40  C    6.000000
    41  C    6.000000
    42  O    8.000000
    43  O    8.000000
    44  C    6.000000
    45  H    1.000000
    46  H    1.000000
    47  H    1.000000
    48  H    1.000000
    49  H    1.000000
    50  H    1.000000
    51  H    1.000000
    52  H    1.000000
    53  H    1.000000
    54  H    1.000000
    55  H    1.000000
    56  H    1.000000
    57  H    1.000000
    58  H    1.000000
    59  H    1.000000
    60  H    1.000000
    61  H    1.000000
    62  H    1.000000
    63  H    1.000000
    64  H    1.000000
    65  H    1.000000
    66  H    1.000000
    67  H    1.000000
    68  H    1.000000
    69  H    1.000000
    70  H    1.000000
    71  H    1.000000
    72  H    1.000000
    73  H    1.000000
    74  H    1.000000
    75  H    1.000000
    76  H    1.000000
    77  H    1.000000
    78  H    1.000000
    79  H    1.000000
    80  Mg  12.000000
    81  C    6.000000
    82  C    6.000000
    83  C    6.000000
    84  C    6.000000
    85  N    7.000000
    86  C    6.000000
    87  C    6.000000
    88  C    6.000000
    89  C    6.000000
    90  C    6.000000
    91  C    6.000000
    92  C    6.000000
    93  H    1.000000
    94  N    7.000000
    95  C    6.000000
    96  C    6.000000
    97  C    6.000000
    98  C    6.000000
    99  C    6.000000
   100  C    6.000000
   101  O    8.000000
   102  C    6.000000
   103  N    7.000000
   104  C    6.000000
   105  C    6.000000
   106  C    6.000000
   107  C    6.000000
   108  C    6.000000
   109  C    6.000000
   110  C    6.000000
   111  N    7.000000
   112  C    6.000000
   113  C    6.000000
   114  C    6.000000
   115  C    6.000000
   116  C    6.000000
   117  C    6.000000
   118  O    8.000000
   119  C    6.000000
   120  C    6.000000
   121  O    8.000000
   122  O    8.000000
   123  C    6.000000
   124  H    1.000000
   125  H    1.000000
   126  H    1.000000
   127  H    1.000000
   128  H    1.000000
   129  H    1.000000
   130  H    1.000000
   131  H    1.000000
   132  H    1.000000
   133  H    1.000000
   134  H    1.000000
   135  H    1.000000
   136  H    1.000000
   137  H    1.000000
   138  H    1.000000
   139  H    1.000000
   140  H    1.000000
   141  H    1.000000
   142  H    1.000000
   143  H    1.000000
   144  H    1.000000
   145  H    1.000000
   146  H    1.000000
   147  H    1.000000
   148  H    1.000000
   149  H    1.000000
   150  H    1.000000
   151  H    1.000000
   152  H    1.000000
   153  H    1.000000
   154  H    1.000000
   155  H    1.000000
   156  H    1.000000
   157  H    1.000000
   158  H    1.000000
 Sum of Mulliken charges = 624.00000

 Dipole moment (field-independent basis, Debye):
    X=              0.0000    Y=             -0.0000    Z=              0.0000  Tot=              0.0000
 Quadrupole moment (field-independent basis, Debye-Ang):
   XX=             -0.0000   YY=              0.0000   ZZ=              0.0000
   XY=              0.0000   XZ=             -0.0000   YZ=             -0.0000

 Normal termination of Gaussian 16 at Fri Oct 15 17:45:05 2021.
