 Gaussian 16, Revision A.03,
 Gaussian 16:  ES64L-G16RevA.03 25-Dec-2016

 --------------------------------------------------------
 #p PBE1PBE/Def2SVP td=(nstates=5) density=(transition=1)
 --------------------------------------------------------

 --------------------------------
 TDDFT excited states in gaussian
 --------------------------------
 Symbolic Z-matrix:
 Charge =  0 Multiplicity = 1

                         Standard orientation:
 ---------------------------------------------------------------------
 Center     Atomic      Atomic             Coordinates (Angstroms)
 Number     Number       Type             X           Y           Z
 ---------------------------------------------------------------------
      1         12           0      -13.501167   -0.519800    0.594958
      2          6           0      -13.483661    2.448044   -1.330140
      3          6           0      -11.941370    1.160795    2.943536
      4          6           0      -12.651612   -3.478578    1.801570
      5          6           0      -14.538171   -2.152953   -2.385949
      6          7           0      -12.973185    1.676522    0.764901
      7          6           0      -13.112162    2.674960   -0.028887
      8          6           0      -12.827379    4.003000    0.702346
      9          6           0      -11.872998    3.547553    1.920236
     10          6           0      -12.206650    1.999069    1.856567
     11          6           0      -10.331334    3.855720    1.763744
     12          6           0      -14.192637    4.635420    1.294800
     13          6           0      -14.373194    6.185185    1.388365
     14          1           0      -13.058028    7.027788    1.576017
     15          7           0      -12.619308   -1.088356    2.271860
     16          6           0      -12.074226   -0.183808    3.170653
     17          6           0      -11.509654   -0.956404    4.332808
     18          6           0      -11.765023   -2.349627    3.989904
     19          6           0      -12.361213   -2.438173    2.654179
     20          6           0      -10.813824   -0.252053    5.482211
     21          6           0      -11.477254   -3.564170    4.844785
     22          8           0      -11.673062   -4.735597    4.492336
     23          6           0      -10.960887   -3.361565    6.211459
     24          7           0      -13.685605   -2.610967   -0.169991
     25          6           0      -13.199017   -3.608559    0.545852
     26          6           0      -13.717583   -4.999531   -0.032714
     27          6           0      -14.324178   -4.503883   -1.455198
     28          6           0      -14.210863   -2.988062   -1.316938
     29          6           0      -12.612661   -6.104219   -0.112736
     30          6           0      -15.779212   -4.941485   -1.825913
     31          6           0      -15.931180   -5.918428   -2.963420
     32          7           0      -14.150217    0.009728   -1.422435
     33          6           0      -14.529707   -0.798062   -2.475930
     34          6           0      -14.707278   -0.026329   -3.634406
     35          6           0      -14.265740    1.249386   -3.235173
     36          6           0      -13.900707    1.254459   -1.909717
     37          6           0      -15.144684   -0.459705   -4.942100
     38          6           0      -14.161614    2.565628   -3.734008
     39          8           0      -14.475086    3.155478   -4.803584
     40          6           0      -13.383965    3.348872   -2.583001
     41          6           0      -13.960360    4.705186   -2.402652
     42          8           0      -15.096390    5.000543   -2.037516
     43          8           0      -12.903131    5.643386   -2.623180
     44          6           0      -13.238180    7.068510   -2.508537
     45          1           0      -11.552015    1.789532    3.747526
     46          1           0      -12.419542   -4.449487    2.242754
     47          1           0      -14.932136   -2.653151   -3.273856
     48          1           0      -12.153041    4.576904    0.067266
     49          1           0      -12.148382    4.125719    2.801605
     50          1           0      -10.074739    4.142931    0.744281
     51          1           0       -9.723159    2.973278    1.961766
     52          1           0      -10.123219    4.674876    2.451966
     53          1           0      -14.422104    4.215264    2.274167
     54          1           0      -15.023978    4.246348    0.706590
     55          1           0      -15.028528    6.502438    2.200165
     56          1           0      -14.668477    6.522931    0.394191
     57          1           0      -11.128418   -0.638769    6.452198
     58          1           0      -10.964851    0.827450    5.478611
     59          1           0       -9.736587   -0.277559    5.319725
     60          1           0      -10.024172   -2.803605    6.199464
     61          1           0      -10.806338   -4.326409    6.694555
     62          1           0      -11.629851   -2.839837    6.895851
     63          1           0      -14.563343   -5.398386    0.527261
     64          1           0      -13.634630   -4.685152   -2.280993
     65          1           0      -11.640615   -5.688681    0.153493
     66          1           0      -12.764184   -6.465797   -1.129993
     67          1           0      -12.944842   -6.924954    0.521674
     68          1           0      -16.323910   -4.041298   -2.111496
     69          1           0      -16.273456   -5.341720   -0.940455
     70          1           0      -14.905911   -6.225302   -3.165892
     71          1           0      -16.295236   -5.364284   -3.829349
     72          1           0      -16.507466   -6.804495   -2.700080
     73          1           0      -16.069828   -1.016022   -4.793747
     74          1           0      -14.554153   -1.249671   -5.406225
     75          1           0      -15.334932    0.409815   -5.571534
     76          1           0      -12.335756    3.423787   -2.874149
     77          1           0      -12.384449    7.688919   -2.782435
     78          1           0      -13.368503    7.307960   -1.453015
     79          1           0      -14.048986    7.301667   -3.197898
     80         12           0       12.788544   -0.720127   -0.541504
     81          6           0       15.243562    1.860583   -0.157264
     82          6           0       10.439220    1.661019    0.578491
     83          6           0       10.572197   -3.093913   -0.145124
     84          6           0       15.280505   -2.922152   -1.251207
     85          7           0       12.865949    1.508885    0.074073
     86          6           0       13.969207    2.293376    0.022174
     87          6           0       13.553137    3.733051    0.275274
     88          6           0       12.014055    3.756828    0.493961
     89          6           0       11.730823    2.249248    0.348488
     90          6           0       11.564640    4.416490    1.916955
     91          6           0       13.939492    4.704181   -0.921164
     92          6           0       14.634188    6.012785   -0.543148
     93          1           0       14.294843    6.753771    0.812075
     94          7           0       10.777130   -0.722327    0.182330
     95          6           0       10.045454    0.312411    0.537763
     96          6           0        8.754546   -0.186494    0.919992
     97          6           0        8.653758   -1.563598    0.597431
     98          6           0       10.016948   -1.849741    0.234155
     99          6           0        7.591898    0.731817    1.292972
    100          6           0        7.503093   -2.554042    0.511544
    101          8           0        7.663310   -3.736754    0.271669
    102          6           0        6.123089   -1.980328    0.680010
    103          7           0       13.012035   -2.746280   -0.337441
    104          6           0       11.870013   -3.548116   -0.381503
    105          6           0       12.171985   -5.016251   -0.787576
    106          6           0       13.657268   -4.838766   -1.281327
    107          6           0       14.027223   -3.395038   -0.941465
    108          6           0       11.967814   -5.966029    0.401624
    109          6           0       13.831601   -5.015282   -2.863644
    110          6           0       14.461496   -6.267530   -3.374638
    111          7           0       14.786166   -0.578193   -0.791885
    112          6           0       15.685120   -1.589645   -1.053012
    113          6           0       17.073355   -1.137216   -1.016077
    114          6           0       16.957212    0.254736   -0.663715
    115          6           0       15.584939    0.500462   -0.422122
    116          6           0       18.229434   -1.948443   -1.477954
    117          6           0       17.680611    1.507073   -0.505963
    118          8           0       18.901320    1.693647   -0.660509
    119          6           0       16.571276    2.644067   -0.126457
    120          6           0       16.956388    3.112477    1.195446
    121          8           0       17.082088    2.386034    2.156917
    122          8           0       17.139596    4.438041    1.212267
    123          6           0       17.596822    5.166007    2.437323
    124          1           0        9.657961    2.374122    0.849418
    125          1           0        9.848367   -3.854797   -0.446596
    126          1           0       16.034697   -3.646149   -1.565754
    127          1           0       14.037362    4.046344    1.200206
    128          1           0       11.510113    4.405680   -0.222574
    129          1           0       12.340348    5.080049    2.299264
    130          1           0       11.383197    3.564220    2.572308
    131          1           0       10.630363    4.962931    1.789036
    132          1           0       13.123303    4.949876   -1.599175
    133          1           0       14.660647    4.204383   -1.567765
    134          1           0       14.524513    6.765769   -1.323874
    135          1           0       15.688809    5.739047   -0.574035
    136          1           0        6.907563    0.942235    0.470908
    137          1           0        7.938076    1.633962    1.798250
    138          1           0        7.036718    0.210302    2.072321
    139          1           0        5.954045   -1.023142    0.185814
    140          1           0        5.814253   -1.827950    1.713234
    141          1           0        5.418536   -2.586280    0.110276
    142          1           0       11.479302   -5.279146   -1.586595
    143          1           0       14.270243   -5.577922   -0.765398
    144          1           0       11.479348   -5.512209    1.263807
    145          1           0       12.916449   -6.341545    0.783655
    146          1           0       11.380923   -6.825698    0.076507
    147          1           0       14.422184   -4.237952   -3.348451
    148          1           0       12.892455   -4.900841   -3.403692
    149          1           0       13.746933   -6.831234   -3.973058
    150          1           0       14.721118   -6.800189   -2.459588
    151          1           0       15.324443   -6.033954   -3.998155
    152          1           0       18.988535   -1.325324   -1.949587
    153          1           0       17.814152   -2.747418   -2.091910
    154          1           0       18.665812   -2.401900   -0.586931
    155          1           0       16.596330    3.481281   -0.822686
    156          1           0       18.478197    4.669963    2.844217
    157          1           0       16.837493    5.189449    3.219356
    158          1           0       17.748578    6.233741    2.281587
 ---------------------------------------------------------------------

 SCF Done:  E(RPBE1PBE) =  -4067.33910267     A.U. after   16 cycles

 Excitation energies and oscillator strengths:

 Excited State   1:      Singlet-A      1.8474 eV  671.12 nm  f=0.3954  <S**2>=0.000
     310 -> 316       -0.16124
     312 -> 314        0.69516
     312 <- 314       -0.11630
 This state for optimization and/or second-order correction.
 Total Energy, E(TD-HF/TD-DFT) =  -4067.27121113
 Copying the excited state density for this state as the 1-particle RhoCI density.

 Excited State   2:      Singlet-A      1.8784 eV  660.04 nm  f=0.0000  <S**2>=0.000
     312 -> 313        0.70710

 Excited State   3:      Singlet-A      1.9488 eV  636.20 nm  f=0.3494  <S**2>=0.000
     309 -> 315        0.20421
     311 -> 313        0.68082

 Excited State   4:      Singlet-A      2.0915 eV  592.81 nm  f=0.0000  <S**2>=0.000
     311 -> 314        0.70709

 Excited State   5:      Singlet-A      2.2072 eV  561.73 nm  f=0.1093  <S**2>=0.000
     310 -> 314        0.65881
     312 -> 316        0.23153

 The electronic state is 1-A.
 Alpha  occ. eigenvalues --  -46.92849 -46.92065 -19.25869 -19.24686 -19.20470
 Alpha  occ. eigenvalues --  -19.19759 -19.19300 -19.19232 -19.18825 -19.18711
 Alpha  occ. eigenvalues --  -14.41716 -14.41405 -14.41304 -14.41207 -14.39721
 Alpha  occ. eigenvalues --  -14.39122 -14.38750 -14.38359 -10.36361 -10.35456
 Alpha  occ. eigenvalues --  -10.32926 -10.32683 -10.32256 -10.31727 -10.29745
 Alpha  occ. eigenvalues --  -10.29307 -10.29114 -10.28722 -10.28560 -10.28461
 Alpha  occ. eigenvalues --  -10.28459 -10.28401 -10.28376 -10.28284 -10.28127
 Alpha  occ. eigenvalues --  -10.28002 -10.27985 -10.27354 -10.27352 -10.26955
 Alpha  occ. eigenvalues --  -10.26904 -10.26717 -10.26579 -10.26556 -10.26352
 Alpha  occ. eigenvalues --  -10.26263 -10.26209 -10.26208 -10.26134 -10.26128
 Alpha  occ. eigenvalues --  -10.26067 -10.25933 -10.25845 -10.25722 -10.25669
 Alpha  occ. eigenvalues --  -10.25551 -10.25546 -10.25540 -10.25485 -10.25470
 Alpha  occ. eigenvalues --  -10.25461 -10.25189 -10.25163 -10.24734 -10.24685
 Alpha  occ. eigenvalues --  -10.24646 -10.24321 -10.24125 -10.24024 -10.23976
 Alpha  occ. eigenvalues --  -10.23942 -10.23938 -10.23938 -10.23685 -10.23550
 Alpha  occ. eigenvalues --  -10.23509 -10.23411 -10.23372 -10.23360 -10.23349
 Alpha  occ. eigenvalues --  -10.23321 -10.23116 -10.22997 -10.22895 -10.22472
 Alpha  occ. eigenvalues --  -10.22450  -3.14885  -3.14270  -1.87728  -1.87268
 Alpha  occ. eigenvalues --   -1.87094  -1.87075  -1.86650  -1.86503  -1.11307
 Alpha  occ. eigenvalues --   -1.08747  -1.05601  -1.04150  -1.03206  -1.02164
 Alpha  occ. eigenvalues --   -1.02100  -1.01605  -1.00498  -0.99916  -0.99381
 Alpha  occ. eigenvalues --   -0.98288  -0.98188  -0.97775  -0.96604  -0.96144
 Alpha  occ. eigenvalues --   -0.87431  -0.86529  -0.83890  -0.82996  -0.82966
 Alpha  occ. eigenvalues --   -0.82621  -0.82381  -0.82253  -0.81963  -0.81706
 Alpha  occ. eigenvalues --   -0.81479  -0.81314  -0.81175  -0.80790  -0.78654
 Alpha  occ. eigenvalues --   -0.78551  -0.78446  -0.78321  -0.77057  -0.76952
 Alpha  occ. eigenvalues --   -0.76290  -0.76033  -0.75846  -0.75636  -0.75082
 Alpha  occ. eigenvalues --   -0.75067  -0.73334  -0.72612  -0.72107  -0.72009
 Alpha  occ. eigenvalues --   -0.71337  -0.71209  -0.70595  -0.70290  -0.69639
 Alpha  occ. eigenvalues --   -0.69259  -0.67765  -0.66984  -0.66807  -0.65919
 Alpha  occ. eigenvalues --   -0.63469  -0.63206  -0.62999  -0.62375  -0.62267
 Alpha  occ. eigenvalues --   -0.62090  -0.61681  -0.61357  -0.60491  -0.60149
 Alpha  occ. eigenvalues --   -0.60091  -0.59988  -0.59621  -0.59251  -0.59219
 Alpha  occ. eigenvalues --   -0.59054  -0.57038  -0.55893  -0.55135  -0.55080
 Alpha  occ. eigenvalues --   -0.54789  -0.53970  -0.53771  -0.53465  -0.53132
 Alpha  occ. eigenvalues --   -0.53096  -0.52626  -0.52374  -0.52027  -0.51938
 Alpha  occ. eigenvalues --   -0.51554  -0.50716  -0.50400  -0.50215  -0.50064
 Alpha  occ. eigenvalues --   -0.49789  -0.48897  -0.48892  -0.48610  -0.48160
 Alpha  occ. eigenvalues --   -0.48151  -0.48005  -0.47795  -0.47602  -0.47595
 Alpha  occ. eigenvalues --   -0.47441  -0.47135  -0.47083  -0.47062  -0.46912
 Alpha  occ. eigenvalues --   -0.46724  -0.46714  -0.46157  -0.45935  -0.45823
 Alpha  occ. eigenvalues --   -0.45788  -0.45558  -0.45177  -0.45120  -0.45044
 Alpha  occ. eigenvalues --   -0.45041  -0.44779  -0.44562  -0.44539  -0.44299
 Alpha  occ. eigenvalues --   -0.43835  -0.43815  -0.43735  -0.43488  -0.43407
 Alpha  occ. eigenvalues --   -0.43319  -0.43238  -0.43107  -0.43097  -0.42835
 Alpha  occ. eigenvalues --   -0.42716  -0.42525  -0.42458  -0.42366  -0.42080
 Alpha  occ. eigenvalues --   -0.42061  -0.41719  -0.41590  -0.41476  -0.41318
 Alpha  occ. eigenvalues --   -0.41130  -0.40954  -0.40950  -0.40880  -0.40704
 Alpha  occ. eigenvalues --   -0.40365  -0.40206  -0.40066  -0.39917  -0.39791
 Alpha  occ. eigenvalues --   -0.39302  -0.39107  -0.39054  -0.38847  -0.38792
 Alpha  occ. eigenvalues --   -0.38695  -0.38464  -0.38464  -0.38197  -0.38190
 Alpha  occ. eigenvalues --   -0.37845  -0.37804  -0.37688  -0.37555  -0.37407
 Alpha  occ. eigenvalues --   -0.37283  -0.36834  -0.36600  -0.36539  -0.36446
 Alpha  occ. eigenvalues --   -0.36427  -0.36331  -0.36228  -0.36031  -0.35945
 Alpha  occ. eigenvalues --   -0.35924  -0.35699  -0.35575  -0.35479  -0.35326
 Alpha  occ. eigenvalues --   -0.35223  -0.35072  -0.34692  -0.34227  -0.34036
 Alpha  occ. eigenvalues --   -0.33549  -0.33376  -0.32954  -0.32936  -0.32499
 Alpha  occ. eigenvalues --   -0.32034  -0.31618  -0.31514  -0.31299  -0.31232
 Alpha  occ. eigenvalues --   -0.31107  -0.30741  -0.29850  -0.29688  -0.29012
 Alpha  occ. eigenvalues --   -0.28853  -0.28773  -0.28361  -0.27480  -0.26922
 Alpha  occ. eigenvalues --   -0.26501  -0.26102  -0.26001  -0.25873  -0.25603
 Alpha  occ. eigenvalues --   -0.25354  -0.25086  -0.25074  -0.21170  -0.20802
 Alpha  occ. eigenvalues --   -0.19371  -0.18640
 Alpha virt. eigenvalues --   -0.11232  -0.11178  -0.06125  -0.04748  -0.04482
 Alpha virt. eigenvalues --   -0.04087  -0.02366  -0.02204  -0.01030  -0.00602
 Alpha virt. eigenvalues --   -0.00095   0.00662   0.01071   0.01095   0.01347

 Mulliken charges:
               1
     1  Mg  12.000046
     2  C    5.999699
     3  C    6.000112
     4  C    6.000212
     5  C    5.999910
     6  N    6.999869
     7  C    6.000436
     8  C    5.999930
     9  C    6.000271
    10  C    5.999359
    11  C    6.000085
    12  C    5.999923
    13  C    6.000019
    14  H    0.999935
    15  N    7.000147
    16  C    5.999467
    17  C    5.999402
    18  C    5.999819
    19  C    5.999489
    20  C    6.000182
    21  C    5.999726
    22  O    7.999638
    23  C    6.000142
    24  N    6.999994
    25  C    5.999384
    26  C    6.000267
    27  C    5.999888
    28  C    6.000531
    29  C    5.999968
    30  C    5.999842
    31  C    6.000017
    32  N    6.999962
    33  C    6.000460
    34  C    6.000683
    35  C    5.999960
    36  C    6.000443
    37  C    5.999798
    38  C    6.000286
    39  O    8.000697
    40  C    5.999986
    41  C    6.000085
    42  O    8.000265
    43  O    7.999917
    44  C    5.999936
    45  H    0.999746
    46  H    0.999916
    47  H    1.000325
    48  H    0.999870
    49  H    1.000004
    50  H    0.999637
    51  H    0.999629
    52  H    0.999874
    53  H    1.000246
    54  H    1.000047
    55  H    1.000238
    56  H    1.000050
    57  H    0.999851
    58  H    0.999774
    59  H    0.999148
    60  H    0.999525
    61  H    0.999810
    62  H    1.000103
    63  H    1.000142
    64  H    0.999883
    65  H    0.999733
    66  H    0.999957
    67  H    1.000145
    68  H    1.000045
    69  H    1.000317
    70  H    0.999966
    71  H    1.000058
    72  H    1.000278
    73  H    1.000514
    74  H    1.000397
    75  H    1.000354
    76  H    0.999908
    77  H    1.000007
    78  H    1.000100
    79  H    1.000213
    80  Mg  11.997934
    81  C    6.018941
    82  C    5.992541
    83  C    5.975278
    84  C    6.005613
    85  N    7.008220
    86  C    5.975887
    87  C    6.009368
    88  C    5.986943
    89  C    6.030710
    90  C    5.999350
    91  C    6.001034
    92  C    6.000737
    93  H    0.993298
    94  N    6.995936
    95  C    6.032818
    96  C    6.025845
    97  C    6.011079
    98  C    6.032269
    99  C    5.997085
   100  C    6.013872
   101  O    8.026369
   102  C    5.992713
   103  N    6.991355
   104  C    6.041568
   105  C    5.990020
   106  C    6.008051
   107  C    5.973929
   108  C    5.996930
   109  C    6.007920
   110  C    6.000236
   111  N    6.997190
   112  C    5.971051
   113  C    5.962206
   114  C    6.001334
   115  C    5.968476
   116  C    6.002549
   117  C    5.984642
   118  O    7.973156
   119  C    5.993673
   120  C    5.995067
   121  O    7.997498
   122  O    7.997997
   123  C    6.001959
   124  H    1.010501
   125  H    1.005383
   126  H    0.988688
   127  H    1.000407
   128  H    1.005273
   129  H    1.012578
   130  H    0.998446
   131  H    1.000246
   132  H    0.992066
   133  H    1.007585
   134  H    0.997960
   135  H    1.005985
   136  H    1.020495
   137  H    1.016449
   138  H    1.015991
   139  H    1.004792
   140  H    1.009276
   141  H    1.013768
   142  H    0.999604
   143  H    0.997200
   144  H    0.995363
   145  H    1.011201
   146  H    1.002460
   147  H    1.005052
   148  H    0.987242
   149  H    0.993261
   150  H    0.997496
   151  H    1.001860
   152  H    0.982910
   153  H    0.982656
   154  H    0.977503
   155  H    0.991294
   156  H    0.999418
   157  H    0.993604
   158  H    0.995338
 Sum of Mulliken charges = 624.00000

 Dipole moment (field-independent basis, Debye):
    X=            -10.4586    Y=              0.0179    Z=              1.8684  Tot=             10.6242
 Quadrupole moment (field-independent basis, Debye-Ang):
   XX=           -263.0017   YY=             -1.1030   ZZ=             -1.3732
   XY=              5.6631   XZ=             28.8717   YZ=             -2.9655

 Normal termination of Gaussian 16 at Thu Oct 14 07:00:57 2021.
