 Gaussian 16, Revision A.03,
 Gaussian 16:  ES64L-G16RevA.03 25-Dec-2016

 --------------------------------------------------------
 #p PBE1PBE/Def2SVP td=(nstates=5) density=(transition=1)
 --------------------------------------------------------

 --------------------------------
 TDDFT excited states in gaussian
 --------------------------------
 Symbolic Z-matrix:
 Charge =  0 Multiplicity = 1

                         Standard orientation:
 ---------------------------------------------------------------------
 Center     Atomic      Atomic             Coordinates (Angstroms)
 Number     Number       Type             X           Y           Z
 ---------------------------------------------------------------------
      1         12           0        5.280216   -0.560971   -0.333861
      2          6           0        3.021657    1.887501   -1.099255
      3          6           0        7.764372    1.656482   -0.214784
      4          6           0        7.307468   -3.064169    0.162920
      5          6           0        2.681608   -2.883550   -1.079123
      6          7           0        5.423222    1.554275   -0.797925
      7          6           0        4.330572    2.357843   -0.818152
      8          6           0        4.686263    3.795233   -0.553447
      9          6           0        6.265650    3.715872   -0.559071
     10          6           0        6.531044    2.226819   -0.608685
     11          6           0        6.949799    4.535501   -1.679388
     12          6           0        3.974547    4.435748    0.788414
     13          6           0        3.308364    5.815716    0.678261
     14          1           0        3.818618    6.758019   -0.456907
     15          7           0        7.150464   -0.666915    0.092856
     16          6           0        8.075403    0.328099    0.104487
     17          6           0        9.420808   -0.147705    0.315970
     18          6           0        9.277478   -1.466110    0.627111
     19          6           0        7.890354   -1.799793    0.177244
     20          6           0       10.547611    0.851017    0.125082
     21          6           0       10.347268   -2.468619    1.103705
     22          8           0       10.136426   -3.643127    1.298122
     23          6           0       11.710261   -1.866103    1.276351
     24          7           0        5.028435   -2.684284   -0.623023
     25          6           0        6.033653   -3.475166   -0.206364
     26          6           0        5.617703   -4.949242   -0.235231
     27          6           0        4.055744   -4.869540   -0.322994
     28          6           0        3.888812   -3.390822   -0.728920
     29          6           0        6.258114   -5.893535   -1.339728
     30          6           0        3.265084   -5.139137    1.012409
     31          6           0        3.468533   -4.321141    2.260500
     32          7           0        3.223327   -0.602091   -0.880488
     33          6           0        2.305769   -1.594198   -1.240983
     34          6           0        1.006909   -1.019822   -1.614385
     35          6           0        1.239979    0.362682   -1.563400
     36          6           0        2.588073    0.521631   -1.112203
     37          6           0       -0.282318   -1.739643   -1.916507
     38          6           0        0.687584    1.623455   -1.764760
     39          8           0       -0.399757    2.003346   -2.170308
     40          6           0        1.720037    2.661477   -1.253773
     41          6           0        1.733093    3.662519   -2.345029
     42          8           0        2.341667    3.549860   -3.411880
     43          8           0        0.884739    4.697038   -2.075265
     44          6           0        0.525627    5.632966   -3.145399
     45          1           0        8.508264    2.424958    0.006517
     46          1           0        7.912602   -3.947935    0.372082
     47          1           0        1.975176   -3.702352   -1.235578
     48          1           0        4.437503    4.417121   -1.413442
     49          1           0        6.636918    4.042172    0.412174
     50          1           0        7.276816    3.854060   -2.464658
     51          1           0        7.830992    5.022272   -1.261445
     52          1           0        6.201004    5.234536   -2.052082
     53          1           0        4.774705    4.482694    1.527192
     54          1           0        3.172466    3.787832    1.140511
     55          1           0        3.514661    6.405213    1.571193
     56          1           0        2.224703    5.701091    0.655974
     57          1           0       10.627280    1.274298   -0.876333
     58          1           0       11.586812    0.523880    0.153136
     59          1           0       10.335843    1.553909    0.930835
     60          1           0       11.673209   -1.021013    1.963366
     61          1           0       11.994648   -1.663078    0.244083
     62          1           0       12.493527   -2.462755    1.742534
     63          1           0        5.997327   -5.301313    0.724614
     64          1           0        3.722696   -5.476968   -1.164840
     65          1           0        6.954791   -5.317922   -1.948688
     66          1           0        5.505332   -6.209078   -2.061147
     67          1           0        6.740869   -6.803952   -0.981240
     68          1           0        3.537628   -6.182617    1.172487
     69          1           0        2.186345   -5.081937    0.870516
     70          1           0        4.328951   -3.663745    2.128894
     71          1           0        3.697492   -4.967474    3.107673
     72          1           0        2.663546   -3.637839    2.530308
     73          1           0       -0.535835   -1.711416   -2.975312
     74          1           0       -1.092734   -1.304522   -1.331455
     75          1           0       -0.041689   -2.777165   -1.683326
     76          1           0        1.452644    3.051766   -0.271625
     77          1           0       -0.441494    6.106130   -2.971358
     78          1           0        0.664273    5.196044   -4.133144
     79          1           0        1.232712    6.457533   -3.234209
     80         12           0       -4.989373   -0.701563    0.048065
     81          6           0       -2.934846    1.962345    0.986951
     82          6           0       -7.594607    1.631340   -0.206383
     83          6           0       -7.200164   -3.186831   -0.319120
     84          6           0       -2.651894   -2.876546    1.332177
     85          7           0       -5.240732    1.618776    0.253653
     86          6           0       -4.225901    2.401245    0.707842
     87          6           0       -4.701376    3.902013    0.843589
     88          6           0       -6.295185    3.717041    0.692998
     89          6           0       -6.421209    2.244448    0.267785
     90          6           0       -6.919015    3.860349    2.126630
     91          6           0       -4.106754    4.694149   -0.378291
     92          6           0       -4.539740    6.175799   -0.548733
     93          1           0       -4.951652    6.900341   -1.795617
     94          7           0       -7.028885   -0.731384   -0.415523
     95          6           0       -7.955965    0.318454   -0.525307
     96          6           0       -9.207290   -0.242826   -0.818685
     97          6           0       -9.080168   -1.607441   -1.041196
     98          6           0       -7.726308   -1.896352   -0.597839
     99          6           0      -10.391353    0.639294   -1.044190
    100          6           0      -10.137293   -2.678865   -1.467487
    101          8           0       -9.896876   -3.867839   -1.647707
    102          6           0      -11.550693   -2.293703   -1.912780
    103          7           0       -4.947878   -2.709544    0.566934
    104          6           0       -5.936477   -3.542463    0.171767
    105          6           0       -5.579814   -5.035306    0.311702
    106          6           0       -4.176841   -4.934819    0.972259
    107          6           0       -3.826971   -3.461544    0.863399
    108          6           0       -6.680364   -5.904662    1.005696
    109          6           0       -3.068249   -5.880205    0.433688
    110          6           0       -2.479402   -5.527470   -0.866013
    111          7           0       -3.123090   -0.559666    0.889394
    112          6           0       -2.309429   -1.482040    1.348496
    113          6           0       -1.017032   -0.920722    1.755024
    114          6           0       -1.264944    0.480820    1.601707
    115          6           0       -2.547374    0.652806    1.118559
    116          6           0        0.281477   -1.575207    1.847751
    117          6           0       -0.629435    1.779464    1.740532
    118          8           0        0.511232    2.074626    2.016613
    119          6           0       -1.745428    2.777069    1.407417
    120          6           0       -1.990224    3.760467    2.556730
    121          8           0       -2.612649    3.498934    3.553089
    122          8           0       -1.329012    4.937025    2.296820
    123          6           0       -1.525814    5.945672    3.363348
    124          1           0       -8.362280    2.380085   -0.408380
    125          1           0       -7.820889   -4.029271   -0.632121
    126          1           0       -2.050568   -3.763341    1.539815
    127          1           0       -4.479553    4.323939    1.824162
    128          1           0       -6.770603    4.414931    0.002648
    129          1           0       -7.254730    2.941307    2.605934
    130          1           0       -7.900409    4.333808    2.089114
    131          1           0       -6.274750    4.373631    2.840180
    132          1           0       -4.348337    4.127557   -1.277168
    133          1           0       -3.021434    4.620316   -0.304384
    134          1           0       -3.749009    6.734485   -0.047159
    135          1           0       -5.452543    6.181051    0.045689
    136          1           0      -10.220549    1.706294   -0.898747
    137          1           0      -11.231623    0.216226   -0.491979
    138          1           0      -10.599487    0.518795   -2.107683
    139          1           0      -12.167512   -1.884746   -1.112462
    140          1           0      -12.085401   -3.073859   -2.454814
    141          1           0      -11.428576   -1.540938   -2.691808
    142          1           0       -5.535605   -5.265266   -0.752481
    143          1           0       -4.368879   -5.132141    2.026911
    144          1           0       -7.673341   -5.494394    0.824912
    145          1           0       -6.505558   -5.911713    2.081885
    146          1           0       -6.711339   -6.926915    0.628113
    147          1           0       -3.610451   -6.822345    0.359515
    148          1           0       -2.310233   -6.032285    1.202296
    149          1           0       -1.695517   -4.784616   -0.719237
    150          1           0       -3.245354   -5.197244   -1.567433
    151          1           0       -1.953716   -6.369885   -1.316540
    152          1           0        0.205791   -2.434178    1.180593
    153          1           0        0.592322   -2.033894    2.786544
    154          1           0        1.021493   -0.836946    1.540619
    155          1           0       -1.445834    3.320002    0.510392
    156          1           0       -0.607367    6.524078    3.461564
    157          1           0       -1.609332    5.560008    4.379634
    158          1           0       -2.317128    6.645758    3.097364
 ---------------------------------------------------------------------

 SCF Done:  E(RPBE1PBE) =  -4067.39322581     A.U. after   16 cycles

 Excitation energies and oscillator strengths:

 Excited State   1:      Singlet-A      1.5734 eV  787.99 nm  f=0.0008  <S**2>=0.000
     312 -> 313        0.70497
 This state for optimization and/or second-order correction.
 Total Energy, E(TD-HF/TD-DFT) =  -4067.33540336
 Copying the excited state density for this state as the 1-particle RhoCI density.

 Excited State   2:      Singlet-A      1.8380 eV  674.55 nm  f=0.8915  <S**2>=0.000
     309 -> 316       -0.12206
     310 -> 315        0.10929
     311 -> 313        0.51734
     312 -> 314        0.45874

 Excited State   3:      Singlet-A      1.8756 eV  661.03 nm  f=0.0052  <S**2>=0.000
     311 -> 313       -0.21933
     311 -> 314        0.64405
     312 -> 314        0.18104

 Excited State   4:      Singlet-A      1.9145 eV  647.60 nm  f=0.0093  <S**2>=0.000
     309 -> 316        0.10627
     310 -> 315        0.13441
     311 -> 313       -0.40197
     311 -> 314       -0.28435
     312 -> 314        0.48082

 Excited State   5:      Singlet-A      2.2155 eV  559.63 nm  f=0.0048  <S**2>=0.000
     309 -> 313        0.26743
     310 -> 313        0.57349
     310 -> 314       -0.25886
     311 -> 316        0.12007
     312 -> 315        0.10825

 The electronic state is 1-A.
 Alpha  occ. eigenvalues --  -46.91867 -46.90968 -19.26438 -19.24346 -19.20538
 Alpha  occ. eigenvalues --  -19.19647 -19.19447 -19.19345 -19.18258 -19.17972
 Alpha  occ. eigenvalues --  -14.41283 -14.40754 -14.40546 -14.40229 -14.39173
 Alpha  occ. eigenvalues --  -14.38675 -14.38549 -14.38131 -10.36685 -10.34903
 Alpha  occ. eigenvalues --  -10.33024 -10.32619 -10.31851 -10.30567 -10.29104
 Alpha  occ. eigenvalues --  -10.28433 -10.28192 -10.28049 -10.27952 -10.27831
 Alpha  occ. eigenvalues --  -10.27747 -10.27663 -10.27663 -10.27612 -10.27517
 Alpha  occ. eigenvalues --  -10.27318 -10.27150 -10.26935 -10.26639 -10.26376
 Alpha  occ. eigenvalues --  -10.26158 -10.26059 -10.25963 -10.25831 -10.25794
 Alpha  occ. eigenvalues --  -10.25538 -10.25535 -10.25413 -10.25394 -10.25354
 Alpha  occ. eigenvalues --  -10.25312 -10.25296 -10.25236 -10.25200 -10.25077
 Alpha  occ. eigenvalues --  -10.24972 -10.24947 -10.24934 -10.24772 -10.24737
 Alpha  occ. eigenvalues --  -10.24719 -10.24651 -10.24445 -10.24441 -10.24277
 Alpha  occ. eigenvalues --  -10.24085 -10.23961 -10.23905 -10.23831 -10.23711
 Alpha  occ. eigenvalues --  -10.23684 -10.23406 -10.23391 -10.23360 -10.23344
 Alpha  occ. eigenvalues --  -10.23251 -10.23061 -10.23061 -10.22877 -10.22796
 Alpha  occ. eigenvalues --  -10.22684 -10.22624 -10.22524 -10.22436 -10.22023
 Alpha  occ. eigenvalues --  -10.21666  -3.14010  -3.13395  -1.86835  -1.86398
 Alpha  occ. eigenvalues --   -1.86222  -1.86201  -1.85785  -1.85653  -1.11539
 Alpha  occ. eigenvalues --   -1.09338  -1.05800  -1.05394  -1.04835  -1.03748
 Alpha  occ. eigenvalues --   -1.03545  -1.00434  -0.99745  -0.99587  -0.98876
 Alpha  occ. eigenvalues --   -0.98501  -0.98083  -0.97792  -0.97435  -0.96806
 Alpha  occ. eigenvalues --   -0.88003  -0.86334  -0.83645  -0.83472  -0.82613
 Alpha  occ. eigenvalues --   -0.82438  -0.82065  -0.81979  -0.81682  -0.81517
 Alpha  occ. eigenvalues --   -0.81449  -0.81369  -0.80723  -0.80402  -0.78147
 Alpha  occ. eigenvalues --   -0.78073  -0.77856  -0.77637  -0.76566  -0.76500
 Alpha  occ. eigenvalues --   -0.76252  -0.75470  -0.75029  -0.75006  -0.74510
 Alpha  occ. eigenvalues --   -0.74471  -0.72887  -0.72548  -0.71809  -0.71589
 Alpha  occ. eigenvalues --   -0.70932  -0.70786  -0.70240  -0.69614  -0.69261
 Alpha  occ. eigenvalues --   -0.68948  -0.66810  -0.66787  -0.66024  -0.65761
 Alpha  occ. eigenvalues --   -0.64289  -0.63794  -0.63448  -0.63074  -0.62523
 Alpha  occ. eigenvalues --   -0.62167  -0.61178  -0.61125  -0.59614  -0.59298
 Alpha  occ. eigenvalues --   -0.59213  -0.58913  -0.58833  -0.58810  -0.58399
 Alpha  occ. eigenvalues --   -0.58002  -0.57004  -0.56045  -0.55234  -0.54360
 Alpha  occ. eigenvalues --   -0.53862  -0.53734  -0.53547  -0.53372  -0.52868
 Alpha  occ. eigenvalues --   -0.52683  -0.52189  -0.51960  -0.51844  -0.51587
 Alpha  occ. eigenvalues --   -0.50909  -0.50529  -0.50068  -0.49987  -0.49635
 Alpha  occ. eigenvalues --   -0.49516  -0.49294  -0.49147  -0.48969  -0.48419
 Alpha  occ. eigenvalues --   -0.48241  -0.47770  -0.47697  -0.47486  -0.47390
 Alpha  occ. eigenvalues --   -0.47231  -0.46996  -0.46743  -0.46641  -0.46602
 Alpha  occ. eigenvalues --   -0.46564  -0.46219  -0.45958  -0.45627  -0.45489
 Alpha  occ. eigenvalues --   -0.45371  -0.45218  -0.44988  -0.44739  -0.44590
 Alpha  occ. eigenvalues --   -0.44536  -0.44416  -0.44120  -0.43890  -0.43751
 Alpha  occ. eigenvalues --   -0.43682  -0.43617  -0.43507  -0.43336  -0.43125
 Alpha  occ. eigenvalues --   -0.43087  -0.42880  -0.42773  -0.42452  -0.42363
 Alpha  occ. eigenvalues --   -0.42318  -0.42042  -0.41973  -0.41614  -0.41531
 Alpha  occ. eigenvalues --   -0.41208  -0.41187  -0.41005  -0.40793  -0.40653
 Alpha  occ. eigenvalues --   -0.40532  -0.40470  -0.40210  -0.39996  -0.39880
 Alpha  occ. eigenvalues --   -0.39774  -0.39671  -0.39630  -0.39303  -0.39246
 Alpha  occ. eigenvalues --   -0.38978  -0.38892  -0.38836  -0.38622  -0.38555
 Alpha  occ. eigenvalues --   -0.38494  -0.38339  -0.38265  -0.38263  -0.37969
 Alpha  occ. eigenvalues --   -0.37844  -0.37760  -0.37666  -0.37490  -0.37381
 Alpha  occ. eigenvalues --   -0.37304  -0.37275  -0.37151  -0.36990  -0.36891
 Alpha  occ. eigenvalues --   -0.36699  -0.36619  -0.36493  -0.36331  -0.36033
 Alpha  occ. eigenvalues --   -0.35825  -0.35529  -0.35417  -0.35162  -0.35025
 Alpha  occ. eigenvalues --   -0.34845  -0.34456  -0.34094  -0.33783  -0.33747
 Alpha  occ. eigenvalues --   -0.33265  -0.33038  -0.32867  -0.32600  -0.32431
 Alpha  occ. eigenvalues --   -0.32049  -0.31552  -0.31459  -0.31187  -0.31071
 Alpha  occ. eigenvalues --   -0.30922  -0.29838  -0.29679  -0.29289  -0.29233
 Alpha  occ. eigenvalues --   -0.28525  -0.28365  -0.27495  -0.27343  -0.26732
 Alpha  occ. eigenvalues --   -0.26019  -0.25914  -0.25851  -0.25669  -0.25340
 Alpha  occ. eigenvalues --   -0.25189  -0.24895  -0.24835  -0.20489  -0.20255
 Alpha  occ. eigenvalues --   -0.18452  -0.17909
 Alpha virt. eigenvalues --   -0.10708  -0.10104  -0.04872  -0.04620  -0.03838
 Alpha virt. eigenvalues --   -0.03495  -0.02046  -0.01454  -0.00154   0.00493
 Alpha virt. eigenvalues --    0.00673   0.01483   0.01600   0.02069   0.02325

 Mulliken charges:
               1
     1  Mg  11.999915
     2  C    5.999604
     3  C    6.000220
     4  C    5.999544
     5  C    5.998625
     6  N    7.000220
     7  C    5.999960
     8  C    6.000118
     9  C    5.999908
    10  C    5.999907
    11  C    6.000010
    12  C    6.000298
    13  C    6.000043
    14  H    0.999774
    15  N    6.999989
    16  C    6.000052
    17  C    6.000104
    18  C    5.999902
    19  C    6.000417
    20  C    6.000001
    21  C    6.000018
    22  O    8.000000
    23  C    5.999999
    24  N    6.999748
    25  C    6.000572
    26  C    5.999919
    27  C    5.999789
    28  C    6.001079
    29  C    6.000047
    30  C    6.000651
    31  C    5.999704
    32  N    6.999626
    33  C    6.001386
    34  C    5.998604
    35  C    6.000250
    36  C    6.000647
    37  C    6.000483
    38  C    5.999120
    39  O    7.998207
    40  C    6.000643
    41  C    6.000014
    42  O    7.999765
    43  O    8.000014
    44  C    6.000170
    45  H    1.000008
    46  H    0.999915
    47  H    0.999837
    48  H    0.999983
    49  H    0.999936
    50  H    0.999961
    51  H    0.999902
    52  H    1.000022
    53  H    0.999823
    54  H    0.999976
    55  H    0.999845
    56  H    1.000105
    57  H    1.000028
    58  H    0.999979
    59  H    1.000037
    60  H    0.999988
    61  H    0.999975
    62  H    0.999964
    63  H    1.000069
    64  H    1.000038
    65  H    0.999993
    66  H    1.000004
    67  H    0.999961
    68  H    0.999604
    69  H    0.999863
    70  H    0.999836
    71  H    0.999779
    72  H    1.000853
    73  H    0.998761
    74  H    0.999565
    75  H    0.999135
    76  H    0.999275
    77  H    0.999735
    78  H    0.999904
    79  H    0.999777
    80  Mg  12.000315
    81  C    6.000768
    82  C    6.000125
    83  C    5.999850
    84  C    6.001110
    85  N    7.000638
    86  C    5.999328
    87  C    6.000293
    88  C    5.999631
    89  C    6.000980
    90  C    5.999848
    91  C    6.000072
    92  C    5.999986
    93  H    0.999939
    94  N    6.999839
    95  C    6.001265
    96  C    6.000668
    97  C    6.000885
    98  C    6.000854
    99  C    5.999816
   100  C    6.000562
   101  O    8.001172
   102  C    5.999773
   103  N    7.000477
   104  C    6.001022
   105  C    5.999849
   106  C    6.000224
   107  C    5.998789
   108  C    5.999858
   109  C    6.000084
   110  C    6.000210
   111  N    6.999583
   112  C    5.998772
   113  C    5.998254
   114  C    6.000712
   115  C    5.999182
   116  C    6.001238
   117  C    5.999656
   118  O    7.999588
   119  C    5.999766
   120  C    5.999947
   121  O    7.999711
   122  O    8.000059
   123  C    6.000037
   124  H    1.000625
   125  H    1.000430
   126  H    1.000241
   127  H    1.000111
   128  H    1.000180
   129  H    0.999964
   130  H    1.000096
   131  H    1.000622
   132  H    0.999862
   133  H    1.000528
   134  H    1.000187
   135  H    0.999738
   136  H    1.000700
   137  H    1.000724
   138  H    1.000755
   139  H    1.000393
   140  H    1.000636
   141  H    1.000301
   142  H    1.000055
   143  H    0.999889
   144  H    0.999686
   145  H    1.000343
   146  H    1.000338
   147  H    0.999704
   148  H    1.000239
   149  H    1.000301
   150  H    0.999601
   151  H    0.999863
   152  H    0.998919
   153  H    0.997358
   154  H    0.998651
   155  H    1.000039
   156  H    0.999991
   157  H    0.999944
   158  H    0.999755
 Sum of Mulliken charges = 624.00000

 Dipole moment (field-independent basis, Debye):
    X=             -0.5168    Y=             -0.0415    Z=             -0.0535  Tot=              0.5212
 Quadrupole moment (field-independent basis, Debye-Ang):
   XX=              5.0906   YY=              0.0340   ZZ=             -0.2819
   XY=              0.4275   XZ=              0.4538   YZ=              0.1843

 Normal termination of Gaussian 16 at Wed Oct 13 20:47:25 2021.
