 Gaussian 16, Revision A.03,
 Gaussian 16:  ES64L-G16RevA.03 25-Dec-2016

 --------------------------------------------------------
 #p PBE1PBE/Def2SVP td=(nstates=5) density=(transition=1)
 --------------------------------------------------------

 --------------------------------
 TDDFT excited states in gaussian
 --------------------------------
 Symbolic Z-matrix:
 Charge =  0 Multiplicity = 1

                         Standard orientation:
 ---------------------------------------------------------------------
 Center     Atomic      Atomic             Coordinates (Angstroms)
 Number     Number       Type             X           Y           Z
 ---------------------------------------------------------------------
      1         12           0        9.249449   -0.423295   -0.091816
      2          6           0        7.260914    2.461583   -0.117386
      3          6           0       12.087356    1.663635    0.264556
      4          6           0       11.228018   -3.164180   -0.411654
      5          6           0        6.513920   -2.235770   -1.165520
      6          7           0        9.558513    1.749890    0.214227
      7          6           0        8.534240    2.692694    0.340648
      8          6           0        9.111002    3.992621    1.008632
      9          6           0       10.619895    3.721486    1.016382
     10          6           0       10.787980    2.284827    0.409580
     11          6           0       11.366799    4.793113    0.177343
     12          6           0        8.450014    4.174398    2.369532
     13          6           0        8.316224    5.586339    2.916077
     14          1           0        9.123400    6.714132    2.234212
     15          7           0       11.356272   -0.761293   -0.069528
     16          6           0       12.348129    0.229739    0.057537
     17          6           0       13.672882   -0.361186   -0.014846
     18          6           0       13.499901   -1.795372   -0.144538
     19          6           0       11.985098   -1.954590   -0.234206
     20          6           0       14.977927    0.410017    0.220401
     21          6           0       14.518127   -2.918393   -0.192258
     22          8           0       14.150522   -4.081720   -0.288375
     23          6           0       15.936212   -2.602671    0.092551
     24          7           0        8.866236   -2.445913   -0.647072
     25          6           0        9.840291   -3.397358   -0.609953
     26          6           0        9.211668   -4.798523   -0.828128
     27          6           0        7.668633   -4.523048   -1.010087
     28          6           0        7.616539   -2.983859   -0.829437
     29          6           0        9.866403   -5.497498   -2.033065
     30          6           0        6.753972   -5.207417    0.040222
     31          6           0        6.113985   -6.444251   -0.582652
     32          7           0        7.276492   -0.044965   -0.676582
     33          6           0        6.282419   -0.830014   -1.157726
     34          6           0        5.180622    0.065065   -1.587428
     35          6           0        5.457713    1.315168   -1.116880
     36          6           0        6.776266    1.197732   -0.607739
     37          6           0        3.919751   -0.482695   -2.234651
     38          6           0        4.976688    2.691484   -0.937117
     39          8           0        3.918112    3.194238   -1.294182
     40          6           0        6.095929    3.416567   -0.215087
     41          6           0        6.334664    4.643297   -0.991787
     42          8           0        6.945845    4.810924   -2.055787
     43          8           0        5.666482    5.670277   -0.357045
     44          6           0        5.710439    6.967727   -0.995653
     45          1           0       12.929262    2.331758    0.456412
     46          1           0       11.925838   -4.004004   -0.395340
     47          1           0        5.725429   -2.862162   -1.588036
     48          1           0        8.815439    4.738595    0.269895
     49          1           0       10.950341    3.914732    2.036905
     50          1           0       11.806913    4.426068   -0.750001
     51          1           0       12.282331    5.017553    0.723902
     52          1           0       10.723917    5.633227   -0.084638
     53          1           0        9.011905    3.511556    3.028277
     54          1           0        7.465629    3.708394    2.346298
     55          1           0        8.539270    5.568082    3.982001
     56          1           0        7.243165    5.750110    2.810909
     57          1           0       14.846672    1.489748    0.293995
     58          1           0       15.672592    0.221350   -0.599191
     59          1           0       15.476744   -0.011526    1.092291
     60          1           0       16.015918   -2.270313    1.127880
     61          1           0       16.362361   -1.972201   -0.687800
     62          1           0       16.560478   -3.496143    0.078570
     63          1           0        9.449430   -5.403566    0.046497
     64          1           0        7.457902   -4.774529   -2.050356
     65          1           0        9.200841   -5.809156   -2.837527
     66          1           0       10.228671   -6.395175   -1.532484
     67          1           0       10.601960   -4.893685   -2.563798
     68          1           0        5.862425   -4.604404    0.213243
     69          1           0        7.270062   -5.482341    0.960292
     70          1           0        6.260888   -7.215892    0.172898
     71          1           0        6.657195   -6.847823   -1.436799
     72          1           0        5.057326   -6.349134   -0.834254
     73          1           0        3.978598   -1.519546   -2.566693
     74          1           0        3.592555    0.113250   -3.085764
     75          1           0        3.151218   -0.562748   -1.465045
     76          1           0        5.751541    3.631445    0.795987
     77          1           0        5.415343    6.831884   -2.036432
     78          1           0        6.696748    7.431659   -0.972366
     79          1           0        4.820904    7.481003   -0.632027
     80         12           0       -8.818986   -1.047688    0.499984
     81          6           0      -10.062552    2.184231   -0.509004
     82          6           0       -6.804850    0.651836    2.813467
     83          6           0       -7.761753   -3.985323    1.516083
     84          6           0      -10.670490   -2.514175   -2.077317
     85          7           0       -8.490588    1.228539    1.036493
     86          6           0       -9.240247    2.297573    0.659097
     87          6           0       -8.985088    3.510822    1.538511
     88          6           0       -7.660672    3.102799    2.395580
     89          6           0       -7.621468    1.585139    2.054247
     90          6           0       -6.388197    3.921789    2.063532
     91          6           0      -10.217058    3.879955    2.432139
     92          6           0      -10.724177    5.332419    2.237583
     93          1           0      -10.576124    6.265877    3.572960
     94          7           0       -7.515479   -1.573481    1.922537
     95          6           0       -6.715814   -0.765724    2.800160
     96          6           0       -5.867224   -1.559009    3.720549
     97          6           0       -6.217690   -2.898787    3.350840
     98          6           0       -7.187027   -2.854669    2.243219
     99          6           0       -4.892655   -0.971155    4.743103
    100          6           0       -5.663029   -4.171388    3.867628
    101          8           0       -6.148772   -5.284223    3.696139
    102          6           0       -4.450745   -4.096277    4.816541
    103          7           0       -9.305400   -2.937907   -0.074921
    104          6           0       -8.707492   -4.016860    0.479963
    105          6           0       -8.966592   -5.287649   -0.280490
    106          6           0       -9.934464   -4.866402   -1.413532
    107          6           0      -10.045614   -3.344684   -1.168383
    108          6           0       -7.721305   -6.027524   -0.722053
    109          6           0      -11.390510   -5.600146   -1.232932
    110          6           0      -11.930054   -6.422183   -2.525765
    111          7           0       -9.906647   -0.321222   -1.176446
    112          6           0      -10.671059   -1.085598   -2.090585
    113          6           0      -11.426493   -0.149689   -2.931142
    114          6           0      -11.303063    1.084053   -2.239530
    115          6           0      -10.296823    0.951636   -1.281449
    116          6           0      -12.231226   -0.404757   -4.202040
    117          6           0      -11.637181    2.528426   -2.390935
    118          8           0      -12.295179    3.217329   -3.219125
    119          6           0      -10.923022    3.239378   -1.177092
    120          6           0      -10.113578    4.385725   -1.707684
    121          8           0       -9.415207    4.326867   -2.679900
    122          8           0      -10.392378    5.514003   -0.987473
    123          6           0       -9.902565    6.748053   -1.652121
    124          1           0       -6.104719    1.232688    3.417180
    125          1           0       -7.447261   -4.990748    1.804633
    126          1           0      -11.286360   -2.952980   -2.864801
    127          1           0       -8.708538    4.318692    0.860993
    128          1           0       -7.827250    3.155362    3.471829
    129          1           0       -5.624021    3.286981    1.614070
    130          1           0       -5.994412    4.395644    2.963637
    131          1           0       -6.535014    4.789049    1.419744
    132          1           0       -9.990995    3.776557    3.493731
    133          1           0      -11.073510    3.239311    2.220299
    134          1           0      -11.805032    5.394712    2.108533
    135          1           0      -10.329543    5.849157    1.363306
    136          1           0       -5.030249    0.075940    5.014688
    137          1           0       -3.835362   -1.106035    4.515197
    138          1           0       -5.066506   -1.545409    5.653667
    139          1           0       -3.598774   -3.644359    4.308662
    140          1           0       -4.190095   -5.069225    5.234483
    141          1           0       -4.727477   -3.462887    5.659340
    142          1           0       -9.424980   -6.000666    0.406108
    143          1           0       -9.496676   -5.045894   -2.395040
    144          1           0       -7.535746   -6.941933   -0.157891
    145          1           0       -6.786566   -5.484915   -0.581308
    146          1           0       -7.818650   -6.239008   -1.787101
    147          1           0      -12.198829   -4.920300   -0.965594
    148          1           0      -11.390647   -6.333307   -0.426781
    149          1           0      -11.043929   -6.633894   -3.124471
    150          1           0      -12.664280   -5.849492   -3.093862
    151          1           0      -12.288100   -7.412502   -2.245601
    152          1           0      -13.079514    0.273075   -4.295162
    153          1           0      -12.706732   -1.380210   -4.093223
    154          1           0      -11.468802   -0.436777   -4.980495
    155          1           0      -11.723385    3.691576   -0.591947
    156          1           0       -8.841136    6.607039   -1.855142
    157          1           0       -9.972948    7.501127   -0.867400
    158          1           0      -10.348837    7.057251   -2.597247
 ---------------------------------------------------------------------

 SCF Done:  E(RPBE1PBE) =  -4067.36385855     A.U. after   16 cycles

 Excitation energies and oscillator strengths:

 Excited State   1:      Singlet-A      1.7904 eV  692.50 nm  f=0.0000  <S**2>=0.000
     312 -> 313        0.70707
 This state for optimization and/or second-order correction.
 Total Energy, E(TD-HF/TD-DFT) =  -4067.29806332
 Copying the excited state density for this state as the 1-particle RhoCI density.

 Excited State   2:      Singlet-A      1.8222 eV  680.42 nm  f=0.6680  <S**2>=0.000
     309 -> 316       -0.11601
     310 -> 315        0.12501
     311 -> 313        0.47769
     312 -> 314        0.50259

 Excited State   3:      Singlet-A      1.8308 eV  677.22 nm  f=0.0832  <S**2>=0.000
     309 -> 316        0.11260
     310 -> 315        0.13322
     311 -> 313        0.49993
     312 -> 314       -0.47945

 Excited State   4:      Singlet-A      1.8852 eV  657.67 nm  f=0.0000  <S**2>=0.000
     311 -> 314        0.70705

 Excited State   5:      Singlet-A      2.1722 eV  570.77 nm  f=0.1161  <S**2>=0.000
     310 -> 313        0.65675
     311 -> 315       -0.25480

 The electronic state is 1-A.
 Alpha  occ. eigenvalues --  -46.92596 -46.91882 -19.26183 -19.25251 -19.20158
 Alpha  occ. eigenvalues --  -19.19844 -19.19731 -19.19294 -19.18984 -19.18969
 Alpha  occ. eigenvalues --  -14.41864 -14.41796 -14.41510 -14.41338 -14.40225
 Alpha  occ. eigenvalues --  -14.39766 -14.39015 -14.38926 -10.36504 -10.35732
 Alpha  occ. eigenvalues --  -10.32754 -10.32469 -10.32339 -10.32062 -10.29660
 Alpha  occ. eigenvalues --  -10.29354 -10.29029 -10.29005 -10.28999 -10.28956
 Alpha  occ. eigenvalues --  -10.28909 -10.28722 -10.28631 -10.28613 -10.28601
 Alpha  occ. eigenvalues --  -10.28406 -10.28310 -10.28083 -10.28010 -10.27856
 Alpha  occ. eigenvalues --  -10.27432 -10.27044 -10.26784 -10.26759 -10.26686
 Alpha  occ. eigenvalues --  -10.26659 -10.26585 -10.26344 -10.26338 -10.26333
 Alpha  occ. eigenvalues --  -10.26178 -10.25881 -10.25832 -10.25770 -10.25723
 Alpha  occ. eigenvalues --  -10.25656 -10.25624 -10.25597 -10.25585 -10.25575
 Alpha  occ. eigenvalues --  -10.25537 -10.25436 -10.25369 -10.25314 -10.24948
 Alpha  occ. eigenvalues --  -10.24942 -10.24907 -10.24849 -10.24496 -10.24470
 Alpha  occ. eigenvalues --  -10.24298 -10.24050 -10.23937 -10.23848 -10.23834
 Alpha  occ. eigenvalues --  -10.23680 -10.23601 -10.23383 -10.23184 -10.23140
 Alpha  occ. eigenvalues --  -10.23050 -10.22999 -10.22942 -10.22800 -10.22763
 Alpha  occ. eigenvalues --  -10.22540  -3.14577  -3.14101  -1.87431  -1.86940
 Alpha  occ. eigenvalues --   -1.86909  -1.86831  -1.86475  -1.86345  -1.11614
 Alpha  occ. eigenvalues --   -1.10686  -1.05067  -1.04950  -1.04514  -1.03398
 Alpha  occ. eigenvalues --   -1.01804  -1.01803  -0.99241  -0.98579  -0.97764
 Alpha  occ. eigenvalues --   -0.97474  -0.97290  -0.97166  -0.96544  -0.96255
 Alpha  occ. eigenvalues --   -0.87912  -0.85855  -0.83616  -0.83151  -0.82829
 Alpha  occ. eigenvalues --   -0.82695  -0.82283  -0.82229  -0.81640  -0.81537
 Alpha  occ. eigenvalues --   -0.81150  -0.81138  -0.80036  -0.79999  -0.78676
 Alpha  occ. eigenvalues --   -0.78219  -0.78149  -0.77404  -0.77117  -0.76504
 Alpha  occ. eigenvalues --   -0.75998  -0.75426  -0.75342  -0.74919  -0.74461
 Alpha  occ. eigenvalues --   -0.73903  -0.73188  -0.72331  -0.71697  -0.71404
 Alpha  occ. eigenvalues --   -0.71211  -0.71017  -0.70374  -0.70220  -0.69509
 Alpha  occ. eigenvalues --   -0.68978  -0.67098  -0.66957  -0.65763  -0.65533
 Alpha  occ. eigenvalues --   -0.63561  -0.63416  -0.63091  -0.62959  -0.62434
 Alpha  occ. eigenvalues --   -0.61878  -0.61510  -0.61443  -0.60309  -0.59924
 Alpha  occ. eigenvalues --   -0.59875  -0.59404  -0.59254  -0.58904  -0.58551
 Alpha  occ. eigenvalues --   -0.58477  -0.56853  -0.56839  -0.55214  -0.54644
 Alpha  occ. eigenvalues --   -0.54325  -0.53782  -0.53672  -0.53421  -0.53233
 Alpha  occ. eigenvalues --   -0.53085  -0.52870  -0.52383  -0.52337  -0.51644
 Alpha  occ. eigenvalues --   -0.50615  -0.50610  -0.50389  -0.49788  -0.49732
 Alpha  occ. eigenvalues --   -0.49395  -0.49381  -0.48984  -0.48308  -0.48251
 Alpha  occ. eigenvalues --   -0.48101  -0.47965  -0.47863  -0.47799  -0.47604
 Alpha  occ. eigenvalues --   -0.47533  -0.47192  -0.46838  -0.46616  -0.46590
 Alpha  occ. eigenvalues --   -0.46449  -0.46195  -0.46101  -0.45984  -0.45920
 Alpha  occ. eigenvalues --   -0.45495  -0.45361  -0.45013  -0.44899  -0.44628
 Alpha  occ. eigenvalues --   -0.44447  -0.44416  -0.44269  -0.44223  -0.44087
 Alpha  occ. eigenvalues --   -0.43858  -0.43842  -0.43740  -0.43654  -0.43350
 Alpha  occ. eigenvalues --   -0.43205  -0.42942  -0.42868  -0.42718  -0.42581
 Alpha  occ. eigenvalues --   -0.42550  -0.42182  -0.42153  -0.41989  -0.41780
 Alpha  occ. eigenvalues --   -0.41630  -0.41547  -0.41500  -0.41148  -0.41119
 Alpha  occ. eigenvalues --   -0.40899  -0.40838  -0.40658  -0.40654  -0.40237
 Alpha  occ. eigenvalues --   -0.40067  -0.39782  -0.39645  -0.39570  -0.39560
 Alpha  occ. eigenvalues --   -0.39412  -0.39316  -0.39235  -0.39173  -0.39113
 Alpha  occ. eigenvalues --   -0.38820  -0.38672  -0.38490  -0.38391  -0.38254
 Alpha  occ. eigenvalues --   -0.38037  -0.38018  -0.37891  -0.37758  -0.37611
 Alpha  occ. eigenvalues --   -0.37418  -0.37355  -0.37344  -0.37014  -0.36819
 Alpha  occ. eigenvalues --   -0.36714  -0.36462  -0.36295  -0.36235  -0.36057
 Alpha  occ. eigenvalues --   -0.35939  -0.35602  -0.35536  -0.35326  -0.35281
 Alpha  occ. eigenvalues --   -0.35077  -0.34919  -0.34400  -0.33968  -0.33537
 Alpha  occ. eigenvalues --   -0.33465  -0.33161  -0.33058  -0.33033  -0.32854
 Alpha  occ. eigenvalues --   -0.32431  -0.32142  -0.31648  -0.31363  -0.31351
 Alpha  occ. eigenvalues --   -0.30984  -0.30559  -0.29664  -0.29463  -0.29262
 Alpha  occ. eigenvalues --   -0.29173  -0.28496  -0.28328  -0.27060  -0.27001
 Alpha  occ. eigenvalues --   -0.26527  -0.26214  -0.26015  -0.25915  -0.25614
 Alpha  occ. eigenvalues --   -0.25606  -0.25513  -0.24924  -0.20805  -0.20760
 Alpha  occ. eigenvalues --   -0.18837  -0.18651
 Alpha virt. eigenvalues --   -0.11316  -0.11191  -0.05233  -0.05125  -0.04118
 Alpha virt. eigenvalues --   -0.03992  -0.02513  -0.02299  -0.00519   0.00079
 Alpha virt. eigenvalues --    0.00483   0.00781   0.00986   0.01117   0.01371

 Mulliken charges:
               1
     1  Mg  12.000000
     2  C    6.000000
     3  C    6.000000
     4  C    6.000000
     5  C    6.000000
     6  N    7.000000
     7  C    6.000000
     8  C    6.000000
     9  C    6.000000
    10  C    6.000000
    11  C    6.000000
    12  C    6.000000
    13  C    6.000000
    14  H    1.000000
    15  N    7.000000
    16  C    6.000000
    17  C    6.000000
    18  C    6.000000
    19  C    6.000000
    20  C    6.000000
    21  C    6.000000
    22  O    8.000000
    23  C    6.000000
    24  N    7.000000
    25  C    6.000000
    26  C    6.000000
    27  C    6.000000
    28  C    6.000000
    29  C    6.000000
    30  C    6.000000
    31  C    6.000000
    32  N    7.000000
    33  C    6.000000
    34  C    6.000000
    35  C    6.000000
    36  C    6.000000
    37  C    6.000000
    38  C    6.000000
    39  O    8.000000
    40  C    6.000000
    41  C    6.000000
    42  O    8.000000
    43  O    8.000000
    44  C    6.000000
    45  H    1.000000
    46  H    1.000000
    47  H    1.000000
    48  H    1.000000
    49  H    1.000000
    50  H    1.000000
    51  H    1.000000
    52  H    1.000000
    53  H    1.000000
    54  H    1.000000
    55  H    1.000000
    56  H    1.000000
    57  H    1.000000
    58  H    1.000000
    59  H    1.000000
    60  H    1.000000
    61  H    1.000000
    62  H    1.000000
    63  H    1.000000
    64  H    1.000000
    65  H    1.000000
    66  H    1.000000
    67  H    1.000000
    68  H    1.000000
    69  H    1.000000
    70  H    1.000000
    71  H    1.000000
    72  H    1.000000
    73  H    1.000000
    74  H    1.000000
    75  H    1.000000
    76  H    1.000000
    77  H    1.000000
    78  H    1.000000
    79  H    1.000000
    80  Mg  12.000000
    81  C    6.000000
    82  C    6.000000
    83  C    6.000000
    84  C    6.000000
    85  N    7.000000
    86  C    6.000000
    87  C    6.000000
    88  C    6.000000
    89  C    6.000000
    90  C    6.000000
    91  C    6.000000
    92  C    6.000000
    93  H    1.000000
    94  N    7.000000
    95  C    6.000000
    96  C    6.000000
    97  C    6.000000
    98  C    6.000000
    99  C    6.000000
   100  C    6.000000
   101  O    8.000000
   102  C    6.000000
   103  N    7.000000
   104  C    6.000000
   105  C    6.000000
   106  C    6.000000
   107  C    6.000000
   108  C    6.000000
   109  C    6.000000
   110  C    6.000000
   111  N    7.000000
   112  C    6.000000
   113  C    6.000000
   114  C    6.000000
   115  C    6.000000
   116  C    6.000000
   117  C    6.000000
   118  O    8.000000
   119  C    6.000000
   120  C    6.000000
   121  O    8.000000
   122  O    8.000000
   123  C    6.000000
   124  H    1.000000
   125  H    1.000000
   126  H    1.000000
   127  H    1.000000
   128  H    1.000000
   129  H    1.000000
   130  H    1.000000
   131  H    1.000000
   132  H    1.000000
   133  H    1.000000
   134  H    1.000000
   135  H    1.000000
   136  H    1.000000
   137  H    1.000000
   138  H    1.000000
   139  H    1.000000
   140  H    1.000000
   141  H    1.000000
   142  H    1.000000
   143  H    1.000000
   144  H    1.000000
   145  H    1.000000
   146  H    1.000000
   147  H    1.000000
   148  H    1.000000
   149  H    1.000000
   150  H    1.000000
   151  H    1.000000
   152  H    1.000000
   153  H    1.000000
   154  H    1.000000
   155  H    1.000000
   156  H    1.000000
   157  H    1.000000
   158  H    1.000000
 Sum of Mulliken charges = 624.00000

 Dipole moment (field-independent basis, Debye):
    X=              0.0000    Y=             -0.0000    Z=             -0.0000  Tot=              0.0000
 Quadrupole moment (field-independent basis, Debye-Ang):
   XX=              0.0000   YY=              0.0000   ZZ=             -0.0000
   XY=             -0.0000   XZ=              0.0000   YZ=              0.0000

 Normal termination of Gaussian 16 at Fri Oct 15 03:03:02 2021.
