 Gaussian 16, Revision A.03,
 Gaussian 16:  ES64L-G16RevA.03 25-Dec-2016

 --------------------------------------------------------
 #p PBE1PBE/Def2SVP td=(nstates=5) density=(transition=1)
 --------------------------------------------------------

 --------------------------------
 TDDFT excited states in gaussian
 --------------------------------
 Symbolic Z-matrix:
 Charge =  0 Multiplicity = 1

                         Standard orientation:
 ---------------------------------------------------------------------
 Center     Atomic      Atomic             Coordinates (Angstroms)
 Number     Number       Type             X           Y           Z
 ---------------------------------------------------------------------
      1         12           0      -11.664500    0.163400   -0.344695
      2          6           0       -8.799577   -1.814266    0.324468
      3          6           0      -13.564999   -2.476076    0.629412
      4          6           0      -14.302442    2.303208   -0.196814
      5          6           0       -9.557823    2.879049   -0.791804
      6          7           0      -11.101857   -1.840543    0.535197
      7          6           0       -9.908345   -2.505062    0.635321
      8          6           0      -10.089444   -3.913961    1.063290
      9          6           0      -11.650961   -4.169325    0.820112
     10          6           0      -12.148417   -2.772430    0.668345
     11          6           0      -11.898945   -5.053166   -0.391628
     12          6           0       -9.571708   -4.022836    2.506105
     13          6           0       -8.476006   -5.129149    2.811757
     14          1           0       -8.688936   -6.192831    3.930662
     15          7           0      -13.672445   -0.001588    0.092898
     16          6           0      -14.275589   -1.231139    0.391961
     17          6           0      -15.693342   -1.028996    0.399974
     18          6           0      -15.966830    0.365501    0.194536
     19          6           0      -14.617921    0.939757   -0.056892
     20          6           0      -16.647554   -2.200740    0.592041
     21          6           0      -17.298584    1.082162    0.185249
     22          8           0      -18.290904    0.301759    0.267401
     23          6           0      -17.580884    2.611209    0.196947
     24          7           0      -11.927025    2.324340   -0.484142
     25          6           0      -13.121700    2.952808   -0.423397
     26          6           0      -13.007272    4.495779   -0.541139
     27          6           0      -11.478640    4.662899   -0.846143
     28          6           0      -10.935992    3.170920   -0.640166
     29          6           0      -13.922064    4.992865   -1.646129
     30          6           0      -10.747075    5.621847    0.042677
     31          6           0      -10.274656    6.864848   -0.661379
     32          7           0       -9.668144    0.505887   -0.440374
     33          6           0       -8.889458    1.644761   -0.681991
     34          6           0       -7.565417    1.333323   -0.871712
     35          6           0       -7.480411   -0.029942   -0.522562
     36          6           0       -8.764769   -0.458877   -0.195657
     37          6           0       -6.554240    2.290401   -1.466583
     38          6           0       -6.547612   -1.186630   -0.463418
     39          8           0       -5.387775   -1.235478   -0.733366
     40          6           0       -7.432010   -2.322051    0.177627
     41          6           0       -7.087118   -3.608146   -0.541157
     42          8           0       -6.380666   -4.502329   -0.075530
     43          8           0       -7.734580   -3.657367   -1.799577
     44          6           0       -7.534092   -4.936340   -2.480212
     45          1           0      -14.187477   -3.368654    0.723151
     46          1           0      -15.131569    3.012096   -0.257433
     47          1           0       -8.846741    3.702222   -0.702781
     48          1           0       -9.490815   -4.565782    0.426867
     49          1           0      -12.051275   -4.678143    1.696607
     50          1           0      -11.209271   -4.860929   -1.212366
     51          1           0      -12.880754   -4.807707   -0.797848
     52          1           0      -11.927975   -6.118023   -0.160789
     53          1           0      -10.437485   -4.207877    3.141779
     54          1           0       -9.213843   -3.079362    2.918287
     55          1           0       -7.642566   -4.488900    3.101985
     56          1           0       -8.106465   -5.571172    1.887220
     57          1           0      -16.372658   -2.791153    1.466095
     58          1           0      -16.531061   -2.831230   -0.289360
     59          1           0      -17.692727   -1.970308    0.802996
     60          1           0      -17.260647    2.928815   -0.794849
     61          1           0      -16.969239    3.070495    0.973595
     62          1           0      -18.625796    2.842776    0.405136
     63          1           0      -13.295420    5.033317    0.361904
     64          1           0      -11.331176    4.851939   -1.909138
     65          1           0      -14.912934    4.575117   -1.467104
     66          1           0      -13.532531    4.629038   -2.597456
     67          1           0      -13.987730    6.061644   -1.846301
     68          1           0       -9.837666    5.207768    0.478131
     69          1           0      -11.277964    5.973790    0.926988
     70          1           0      -10.655965    7.724839   -0.112199
     71          1           0      -10.694944    6.969584   -1.661624
     72          1           0       -9.194198    6.917704   -0.799418
     73          1           0       -5.717225    1.674358   -1.796788
     74          1           0       -6.202545    3.024191   -0.741741
     75          1           0       -7.084523    2.778110   -2.284228
     76          1           0       -6.959573   -2.447564    1.152557
     77          1           0       -8.364192   -5.143755   -3.155634
     78          1           0       -7.597809   -5.771410   -1.784016
     79          1           0       -6.576486   -4.999981   -2.997706
     80         12           0       10.814686    0.867446   -0.225853
     81          6           0       12.421640   -2.165939    0.043516
     82          6           0        7.859916   -0.719796    0.417803
     83          6           0        9.619862    3.793401    0.735342
     84          6           0       13.943761    2.340321   -0.831667
     85          7           0       10.347707   -1.157342    0.638569
     86          6           0       11.105233   -2.263563    0.423066
     87          6           0       10.363059   -3.537872    0.698263
     88          6           0        8.904823   -3.070565    0.384862
     89          6           0        9.042668   -1.555405    0.404391
     90          6           0        8.342674   -3.671084   -0.935507
     91          6           0       10.514062   -4.012395    2.229918
     92          6           0       10.567554   -5.594332    2.455986
     93          1           0        9.404460   -5.976940    3.337386
     94          7           0        8.926561    1.469725    0.289407
     95          6           0        7.848691    0.715114    0.596514
     96          6           0        6.731164    1.556002    1.006671
     97          6           0        7.222854    2.875996    1.070580
     98          6           0        8.657746    2.745703    0.691124
     99          6           0        5.350865    0.944116    1.348202
    100          6           0        6.430815    4.014820    1.649926
    101          8           0        5.296464    3.827665    2.005544
    102          6           0        6.979774    5.435837    1.880036
    103          7           0       11.604997    2.871923   -0.178444
    104          6           0       10.935392    3.844722    0.256418
    105          6           0       11.724820    5.094451    0.387892
    106          6           0       13.148413    4.653269   -0.134308
    107          6           0       12.917477    3.229016   -0.398724
    108          6           0       11.038631    6.294251   -0.348616
    109          6           0       14.291228    4.898915    0.956245
    110          6           0       15.777346    4.939919    0.451178
    111          7           0       12.777520    0.272518   -0.455466
    112          6           0       13.916190    0.976734   -0.802482
    113          6           0       15.011834    0.079321   -1.043677
    114          6           0       14.446568   -1.214209   -0.765132
    115          6           0       13.152441   -1.022511   -0.321180
    116          6           0       16.399537    0.422178   -1.480803
    117          6           0       14.733357   -2.607194   -0.767229
    118          8           0       15.729065   -3.295999   -1.024459
    119          6           0       13.502476   -3.266016   -0.060894
    120          6           0       13.148328   -4.474664   -0.861475
    121          8           0       13.550358   -5.622603   -0.625216
    122          8           0       12.364088   -4.113499   -1.922059
    123          6           0       12.061779   -5.324850   -2.735141
    124          1           0        6.851588   -1.135436    0.478867
    125          1           0        9.213729    4.733034    1.114139
    126          1           0       14.930306    2.806982   -0.885781
    127          1           0       10.725382   -4.221966   -0.068056
    128          1           0        8.238421   -3.441572    1.163730
    129          1           0        7.493412   -4.313729   -0.705231
    130          1           0        9.113823   -4.326155   -1.342182
    131          1           0        8.131668   -2.840578   -1.608454
    132          1           0        9.808171   -3.581969    2.940076
    133          1           0       11.444415   -3.633723    2.651958
    134          1           0       11.481331   -5.747846    3.030241
    135          1           0       10.662515   -6.261120    1.598893
    136          1           0        4.997066    1.144399    2.359477
    137          1           0        5.282538   -0.128804    1.165150
    138          1           0        4.641772    1.351423    0.628286
    139          1           0        7.248203    5.948355    0.956834
    140          1           0        7.819918    5.474299    2.573875
    141          1           0        6.206267    5.934133    2.465199
    142          1           0       11.759029    5.253780    1.465560
    143          1           0       13.492229    5.040132   -1.093293
    144          1           0       10.859377    7.063219    0.402501
    145          1           0       10.109782    5.996017   -0.835158
    146          1           0       11.703146    6.851063   -1.009100
    147          1           0       14.244176    4.128392    1.726068
    148          1           0       14.037726    5.849010    1.424235
    149          1           0       16.395040    5.826771    0.590087
    150          1           0       15.816740    4.809471   -0.629407
    151          1           0       16.347821    4.123930    0.894854
    152          1           0       16.574715    1.452737   -1.788987
    153          1           0       16.503814   -0.290176   -2.298211
    154          1           0       16.959616    0.058898   -0.619057
    155          1           0       13.675313   -3.537619    0.981028
    156          1           0       12.969989   -5.658820   -3.235846
    157          1           0       11.428573   -5.107803   -3.595426
    158          1           0       11.609802   -6.061956   -2.071119
 ---------------------------------------------------------------------

 SCF Done:  E(RPBE1PBE) =  -4067.36377334     A.U. after   17 cycles

 Excitation energies and oscillator strengths:

 Excited State   1:      Singlet-A      1.7084 eV  725.73 nm  f=0.0000  <S**2>=0.000
     312 -> 313        0.70708
 This state for optimization and/or second-order correction.
 Total Energy, E(TD-HF/TD-DFT) =  -4067.30099059
 Copying the excited state density for this state as the 1-particle RhoCI density.

 Excited State   2:      Singlet-A      1.7986 eV  689.32 nm  f=0.4209  <S**2>=0.000
     310 -> 316       -0.16025
     312 -> 314        0.69085
     312 <- 314       -0.10820

 Excited State   3:      Singlet-A      1.8489 eV  670.57 nm  f=0.2891  <S**2>=0.000
     309 -> 315        0.16560
     311 -> 313        0.69026
     311 <- 313       -0.11202

 Excited State   4:      Singlet-A      2.0362 eV  608.89 nm  f=0.0000  <S**2>=0.000
     311 -> 314        0.70708

 Excited State   5:      Singlet-A      2.1993 eV  563.75 nm  f=0.0962  <S**2>=0.000
     310 -> 314        0.65364
     312 -> 316        0.25100

 The electronic state is 1-A.
 Alpha  occ. eigenvalues --  -46.92452 -46.92427 -19.26317 -19.26174 -19.21292
 Alpha  occ. eigenvalues --  -19.20115 -19.19320 -19.19272 -19.18535 -19.18341
 Alpha  occ. eigenvalues --  -14.41940 -14.41698 -14.41380 -14.41330 -14.39720
 Alpha  occ. eigenvalues --  -14.39603 -14.38742 -14.38317 -10.37445 -10.35711
 Alpha  occ. eigenvalues --  -10.32849 -10.32694 -10.32472 -10.31360 -10.29698
 Alpha  occ. eigenvalues --  -10.29627 -10.28935 -10.28923 -10.28891 -10.28880
 Alpha  occ. eigenvalues --  -10.28548 -10.28314 -10.28297 -10.28295 -10.28181
 Alpha  occ. eigenvalues --  -10.28051 -10.27988 -10.27744 -10.26806 -10.26663
 Alpha  occ. eigenvalues --  -10.26479 -10.26386 -10.26345 -10.26213 -10.26200
 Alpha  occ. eigenvalues --  -10.26197 -10.26144 -10.26049 -10.26045 -10.26030
 Alpha  occ. eigenvalues --  -10.26015 -10.25988 -10.25985 -10.25831 -10.25794
 Alpha  occ. eigenvalues --  -10.25514 -10.25448 -10.25315 -10.25262 -10.25255
 Alpha  occ. eigenvalues --  -10.25194 -10.25078 -10.25052 -10.24994 -10.24956
 Alpha  occ. eigenvalues --  -10.24683 -10.24659 -10.24638 -10.24491 -10.24490
 Alpha  occ. eigenvalues --  -10.24363 -10.24327 -10.24221 -10.24076 -10.23975
 Alpha  occ. eigenvalues --  -10.23805 -10.23771 -10.23746 -10.23644 -10.23575
 Alpha  occ. eigenvalues --  -10.23559 -10.23449 -10.22914 -10.22819 -10.22629
 Alpha  occ. eigenvalues --  -10.22425  -3.14604  -3.14570  -1.87431  -1.87390
 Alpha  occ. eigenvalues --   -1.86993  -1.86949  -1.86819  -1.86798  -1.10692
 Alpha  occ. eigenvalues --   -1.10373  -1.06872  -1.06272  -1.02998  -1.02831
 Alpha  occ. eigenvalues --   -1.02328  -1.01555  -1.01252  -0.99894  -0.98965
 Alpha  occ. eigenvalues --   -0.98935  -0.98401  -0.98009  -0.97563  -0.97420
 Alpha  occ. eigenvalues --   -0.87712  -0.86942  -0.84213  -0.83984  -0.83651
 Alpha  occ. eigenvalues --   -0.83381  -0.82818  -0.82378  -0.82208  -0.81507
 Alpha  occ. eigenvalues --   -0.81428  -0.81070  -0.80651  -0.80253  -0.79117
 Alpha  occ. eigenvalues --   -0.78632  -0.78381  -0.78084  -0.76954  -0.76416
 Alpha  occ. eigenvalues --   -0.76116  -0.75734  -0.75048  -0.75034  -0.74854
 Alpha  occ. eigenvalues --   -0.74574  -0.72709  -0.72158  -0.71816  -0.71770
 Alpha  occ. eigenvalues --   -0.71204  -0.70953  -0.70823  -0.70230  -0.69885
 Alpha  occ. eigenvalues --   -0.69649  -0.68004  -0.67088  -0.66691  -0.66490
 Alpha  occ. eigenvalues --   -0.64798  -0.63798  -0.63510  -0.63392  -0.62455
 Alpha  occ. eigenvalues --   -0.62140  -0.61898  -0.61699  -0.61232  -0.60710
 Alpha  occ. eigenvalues --   -0.60173  -0.59962  -0.59653  -0.59521  -0.59307
 Alpha  occ. eigenvalues --   -0.58923  -0.57710  -0.56949  -0.55095  -0.54795
 Alpha  occ. eigenvalues --   -0.54646  -0.54228  -0.54090  -0.53661  -0.53603
 Alpha  occ. eigenvalues --   -0.53262  -0.52735  -0.52450  -0.51405  -0.51311
 Alpha  occ. eigenvalues --   -0.51161  -0.50849  -0.50661  -0.50363  -0.50232
 Alpha  occ. eigenvalues --   -0.50170  -0.49457  -0.49419  -0.49002  -0.48705
 Alpha  occ. eigenvalues --   -0.48472  -0.48247  -0.48142  -0.47830  -0.47418
 Alpha  occ. eigenvalues --   -0.47409  -0.47019  -0.46855  -0.46670  -0.46534
 Alpha  occ. eigenvalues --   -0.46345  -0.46219  -0.46163  -0.45812  -0.45752
 Alpha  occ. eigenvalues --   -0.45670  -0.45541  -0.45250  -0.45167  -0.44853
 Alpha  occ. eigenvalues --   -0.44689  -0.44664  -0.44622  -0.44518  -0.44375
 Alpha  occ. eigenvalues --   -0.44293  -0.43998  -0.43757  -0.43603  -0.43531
 Alpha  occ. eigenvalues --   -0.43322  -0.43182  -0.43019  -0.42858  -0.42669
 Alpha  occ. eigenvalues --   -0.42437  -0.42302  -0.42235  -0.41904  -0.41883
 Alpha  occ. eigenvalues --   -0.41645  -0.41448  -0.41343  -0.41290  -0.41187
 Alpha  occ. eigenvalues --   -0.40917  -0.40895  -0.40836  -0.40667  -0.40530
 Alpha  occ. eigenvalues --   -0.40496  -0.40388  -0.40231  -0.40097  -0.39961
 Alpha  occ. eigenvalues --   -0.39914  -0.39698  -0.39652  -0.39347  -0.39092
 Alpha  occ. eigenvalues --   -0.39005  -0.38959  -0.38783  -0.38694  -0.38568
 Alpha  occ. eigenvalues --   -0.38509  -0.38198  -0.38155  -0.37913  -0.37584
 Alpha  occ. eigenvalues --   -0.37433  -0.37342  -0.37336  -0.37281  -0.37244
 Alpha  occ. eigenvalues --   -0.36922  -0.36917  -0.36802  -0.36669  -0.36582
 Alpha  occ. eigenvalues --   -0.36420  -0.36227  -0.36118  -0.36030  -0.35992
 Alpha  occ. eigenvalues --   -0.35645  -0.35068  -0.34832  -0.34501  -0.34065
 Alpha  occ. eigenvalues --   -0.33776  -0.33486  -0.33214  -0.33108  -0.32785
 Alpha  occ. eigenvalues --   -0.32542  -0.32404  -0.32230  -0.31789  -0.31687
 Alpha  occ. eigenvalues --   -0.31471  -0.31368  -0.30324  -0.30069  -0.29872
 Alpha  occ. eigenvalues --   -0.28955  -0.28868  -0.28264  -0.27437  -0.26704
 Alpha  occ. eigenvalues --   -0.26178  -0.26151  -0.25971  -0.25685  -0.25500
 Alpha  occ. eigenvalues --   -0.25222  -0.25114  -0.24627  -0.21393  -0.20910
 Alpha  occ. eigenvalues --   -0.19289  -0.18625
 Alpha virt. eigenvalues --   -0.11758  -0.11189  -0.05382  -0.05208  -0.03997
 Alpha virt. eigenvalues --   -0.03864  -0.02141  -0.02130  -0.00969  -0.00677
 Alpha virt. eigenvalues --   -0.00492   0.00372   0.00704   0.01318   0.01378

 Mulliken charges:
               1
     1  Mg  12.000000
     2  C    6.000000
     3  C    6.000000
     4  C    6.000000
     5  C    6.000000
     6  N    7.000000
     7  C    6.000000
     8  C    6.000000
     9  C    6.000000
    10  C    6.000000
    11  C    6.000000
    12  C    6.000000
    13  C    6.000000
    14  H    1.000000
    15  N    7.000000
    16  C    6.000000
    17  C    6.000000
    18  C    6.000000
    19  C    6.000000
    20  C    6.000000
    21  C    6.000000
    22  O    8.000000
    23  C    6.000000
    24  N    7.000000
    25  C    6.000000
    26  C    6.000000
    27  C    6.000000
    28  C    6.000000
    29  C    6.000000
    30  C    6.000000
    31  C    6.000000
    32  N    7.000000
    33  C    6.000000
    34  C    6.000000
    35  C    6.000000
    36  C    6.000000
    37  C    6.000000
    38  C    6.000000
    39  O    8.000000
    40  C    6.000000
    41  C    6.000000
    42  O    8.000000
    43  O    8.000000
    44  C    6.000000
    45  H    1.000000
    46  H    1.000000
    47  H    1.000000
    48  H    1.000000
    49  H    1.000000
    50  H    1.000000
    51  H    1.000000
    52  H    1.000000
    53  H    1.000000
    54  H    1.000000
    55  H    1.000000
    56  H    1.000000
    57  H    1.000000
    58  H    1.000000
    59  H    1.000000
    60  H    1.000000
    61  H    1.000000
    62  H    1.000000
    63  H    1.000000
    64  H    1.000000
    65  H    1.000000
    66  H    1.000000
    67  H    1.000000
    68  H    1.000000
    69  H    1.000000
    70  H    1.000000
    71  H    1.000000
    72  H    1.000000
    73  H    1.000000
    74  H    1.000000
    75  H    1.000000
    76  H    1.000000
    77  H    1.000000
    78  H    1.000000
    79  H    1.000000
    80  Mg  12.000000
    81  C    6.000000
    82  C    6.000000
    83  C    6.000000
    84  C    6.000000
    85  N    7.000000
    86  C    6.000000
    87  C    6.000000
    88  C    6.000000
    89  C    6.000000
    90  C    6.000000
    91  C    6.000000
    92  C    6.000000
    93  H    1.000000
    94  N    7.000000
    95  C    6.000000
    96  C    6.000000
    97  C    6.000000
    98  C    6.000000
    99  C    6.000000
   100  C    6.000000
   101  O    8.000000
   102  C    6.000000
   103  N    7.000000
   104  C    6.000000
   105  C    6.000000
   106  C    6.000000
   107  C    6.000000
   108  C    6.000000
   109  C    6.000000
   110  C    6.000000
   111  N    7.000000
   112  C    6.000000
   113  C    6.000000
   114  C    6.000000
   115  C    6.000000
   116  C    6.000000
   117  C    6.000000
   118  O    8.000000
   119  C    6.000000
   120  C    6.000000
   121  O    8.000000
   122  O    8.000000
   123  C    6.000000
   124  H    1.000000
   125  H    1.000000
   126  H    1.000000
   127  H    1.000000
   128  H    1.000000
   129  H    1.000000
   130  H    1.000000
   131  H    1.000000
   132  H    1.000000
   133  H    1.000000
   134  H    1.000000
   135  H    1.000000
   136  H    1.000000
   137  H    1.000000
   138  H    1.000000
   139  H    1.000000
   140  H    1.000000
   141  H    1.000000
   142  H    1.000000
   143  H    1.000000
   144  H    1.000000
   145  H    1.000000
   146  H    1.000000
   147  H    1.000000
   148  H    1.000000
   149  H    1.000000
   150  H    1.000000
   151  H    1.000000
   152  H    1.000000
   153  H    1.000000
   154  H    1.000000
   155  H    1.000000
   156  H    1.000000
   157  H    1.000000
   158  H    1.000000
 Sum of Mulliken charges = 624.00000

 Dipole moment (field-independent basis, Debye):
    X=              0.0000    Y=             -0.0000    Z=             -0.0000  Tot=              0.0000
 Quadrupole moment (field-independent basis, Debye-Ang):
   XX=             -0.0000   YY=             -0.0000   ZZ=             -0.0000
   XY=             -0.0000   XZ=             -0.0000   YZ=              0.0000

 Normal termination of Gaussian 16 at Fri Oct 15 00:15:16 2021.
