 Gaussian 16, Revision A.03,
 Gaussian 16:  ES64L-G16RevA.03 25-Dec-2016

 --------------------------------------------------------
 #p PBE1PBE/Def2SVP td=(nstates=5) density=(transition=1)
 --------------------------------------------------------

 --------------------------------
 TDDFT excited states in gaussian
 --------------------------------
 Symbolic Z-matrix:
 Charge =  0 Multiplicity = 1

                         Standard orientation:
 ---------------------------------------------------------------------
 Center     Atomic      Atomic             Coordinates (Angstroms)
 Number     Number       Type             X           Y           Z
 ---------------------------------------------------------------------
      1         12           0      -13.134757   -0.591609    0.283311
      2          6           0      -13.216365    2.740814   -0.906155
      3          6           0      -11.673107    0.551956    3.102016
      4          6           0      -12.960495   -3.707552    1.272676
      5          6           0      -13.987392   -1.625634   -3.044098
      6          7           0      -12.397909    1.440715    1.011741
      7          6           0      -12.794259    2.636134    0.435846
      8          6           0      -12.522487    3.707948    1.435430
      9          6           0      -11.544110    3.077451    2.426929
     10          6           0      -11.875792    1.578162    2.221452
     11          6           0      -10.054093    3.377401    2.015122
     12          6           0      -13.809098    4.346485    2.190074
     13          6           0      -13.906504    5.885511    2.421956
     14          1           0      -12.661285    6.580316    3.044960
     15          7           0      -12.383307   -1.436863    1.991503
     16          6           0      -11.859744   -0.803351    2.999283
     17          6           0      -11.430245   -1.798453    3.997077
     18          6           0      -11.981407   -3.055832    3.604695
     19          6           0      -12.458056   -2.783781    2.218894
     20          6           0      -10.575377   -1.579711    5.298138
     21          6           0      -12.078978   -4.395539    4.333756
     22          8           0      -12.487974   -5.450010    3.811289
     23          6           0      -11.472995   -4.510332    5.651354
     24          7           0      -13.282462   -2.446544   -0.853805
     25          6           0      -13.276877   -3.638975   -0.134878
     26          6           0      -13.772520   -4.804189   -1.075549
     27          6           0      -14.208699   -4.060798   -2.362675
     28          6           0      -13.845661   -2.603106   -2.070719
     29          6           0      -12.746322   -5.927359   -1.227147
     30          6           0      -15.662797   -4.309252   -2.836688
     31          6           0      -15.911561   -4.446344   -4.356911
     32          7           0      -13.513366    0.309884   -1.609384
     33          6           0      -13.791724   -0.221281   -2.864803
     34          6           0      -14.115087    0.861357   -3.758835
     35          6           0      -13.846811    2.033119   -3.049646
     36          6           0      -13.489051    1.675483   -1.720463
     37          6           0      -14.616330    0.759072   -5.065956
     38          6           0      -13.875725    3.502604   -3.091731
     39          8           0      -14.198005    4.301279   -3.956969
     40          6           0      -13.484118    4.016732   -1.667759
     41          6           0      -12.287988    4.937033   -1.833772
     42          8           0      -11.096335    4.745252   -1.922016
     43          8           0      -12.871961    6.168249   -1.754749
     44          6           0      -11.988380    7.337871   -1.533945
     45          1           0      -11.281033    0.915632    4.054507
     46          1           0      -13.079015   -4.699907    1.712573
     47          1           0      -14.460658   -1.908324   -3.986244
     48          1           0      -12.046313    4.610446    1.051403
     49          1           0      -11.803666    3.285619    3.464620
     50          1           0       -9.372513    3.470556    2.859949
     51          1           0       -9.927751    4.347479    1.533782
     52          1           0       -9.746804    2.510979    1.430470
     53          1           0      -13.987483    3.803668    3.117729
     54          1           0      -14.716194    4.090522    1.641310
     55          1           0      -14.683456    5.951920    3.184421
     56          1           0      -14.165601    6.240412    1.424423
     57          1           0      -11.112732   -1.709330    6.237306
     58          1           0      -10.179758   -0.564854    5.248758
     59          1           0       -9.772308   -2.300314    5.452998
     60          1           0      -11.855898   -3.742941    6.324625
     61          1           0      -10.387762   -4.430503    5.586873
     62          1           0      -11.855137   -5.429913    6.093487
     63          1           0      -14.704469   -5.163343   -0.638737
     64          1           0      -13.512392   -4.263270   -3.176240
     65          1           0      -12.092114   -5.700356   -2.069565
     66          1           0      -13.170396   -6.897444   -1.484403
     67          1           0      -12.044357   -5.879826   -0.395282
     68          1           0      -16.388549   -3.604235   -2.431600
     69          1           0      -16.065208   -5.221999   -2.395250
     70          1           0      -16.249604   -3.455201   -4.659690
     71          1           0      -16.757190   -5.130144   -4.437303
     72          1           0      -14.996035   -4.753305   -4.861824
     73          1           0      -14.484530    1.582983   -5.766949
     74          1           0      -15.669635    0.491706   -4.975643
     75          1           0      -14.065214   -0.063776   -5.519812
     76          1           0      -14.326021    4.540848   -1.215802
     77          1           0      -12.506449    7.933994   -0.783265
     78          1           0      -11.814735    7.980469   -2.396715
     79          1           0      -11.034448    7.010658   -1.121202
     80         12           0       12.381587   -0.716071   -0.459085
     81          6           0       14.756043    1.986950   -0.273524
     82          6           0       10.039261    1.301480    0.805349
     83          6           0       10.558404   -3.461566    0.148378
     84          6           0       15.079450   -2.784160   -1.324419
     85          7           0       12.430919    1.348459    0.224357
     86          6           0       13.422507    2.327088    0.040165
     87          6           0       12.870464    3.770062    0.352626
     88          6           0       11.391003    3.483981    0.751272
     89          6           0       11.248443    1.954400    0.531153
     90          6           0       10.953992    3.898261    2.133442
     91          6           0       13.076474    4.801795   -0.881198
     92          6           0       13.778863    6.117290   -0.523048
     93          1           0       12.931533    7.403502   -0.847161
     94          7           0       10.483401   -1.020299    0.241079
     95          6           0        9.661726   -0.083807    0.725867
     96          6           0        8.395187   -0.660720    1.179902
     97          6           0        8.606198   -2.078254    1.065824
     98          6           0        9.937309   -2.257001    0.476521
     99          6           0        7.267050    0.144127    1.665448
    100          6           0        7.602541   -3.149939    1.595902
    101          8           0        7.782294   -4.344091    1.424930
    102          6           0        6.345798   -2.792510    2.323374
    103          7           0       12.770339   -2.748607   -0.577921
    104          6           0       11.782185   -3.708493   -0.387254
    105          6           0       12.319584   -5.139659   -0.717633
    106          6           0       13.643992   -4.838191   -1.513490
    107          6           0       13.836165   -3.359398   -1.177923
    108          6           0       12.414777   -6.172035    0.452644
    109          6           0       13.529934   -5.061252   -3.046432
    110          6           0       14.697166   -5.674823   -3.777743
    111          7           0       14.500323   -0.496378   -0.699018
    112          6           0       15.441036   -1.423342   -1.047960
    113          6           0       16.771185   -0.705764   -1.272936
    114          6           0       16.533545    0.625833   -1.031885
    115          6           0       15.159167    0.696197   -0.617883
    116          6           0       18.006346   -1.414507   -1.780386
    117          6           0       17.089040    1.965684   -0.963160
    118          8           0       18.276614    2.245166   -1.229727
    119          6           0       15.929348    2.953674   -0.347598
    120          6           0       16.232948    3.508606    1.028420
    121          8           0       16.522153    2.749077    1.974110
    122          8           0       16.323662    4.901133    1.035684
    123          6           0       17.014726    5.404254    2.217148
    124          1           0        9.198133    1.926228    1.112318
    125          1           0        9.873108   -4.294475    0.316951
    126          1           0       15.838492   -3.467416   -1.712238
    127          1           0       13.499194    4.084626    1.185369
    128          1           0       10.805321    4.168267    0.135867
    129          1           0       11.761595    4.322307    2.730304
    130          1           0       10.784312    2.912759    2.565814
    131          1           0       10.139380    4.623108    2.129492
    132          1           0       12.056878    4.960736   -1.231180
    133          1           0       13.569352    4.279073   -1.700482
    134          1           0       14.747228    6.098001   -1.023043
    135          1           0       13.964128    6.142195    0.551565
    136          1           0        6.848304   -0.040430    2.654243
    137          1           0        6.417729   -0.202265    1.077678
    138          1           0        7.305848    1.205037    1.417361
    139          1           0        5.767686   -2.200816    1.612583
    140          1           0        6.636903   -2.123963    3.134045
    141          1           0        5.908673   -3.739723    2.636812
    142          1           0       11.582633   -5.533247   -1.417740
    143          1           0       14.514029   -5.345491   -1.097283
    144          1           0       11.931179   -5.669135    1.289788
    145          1           0       13.426380   -6.516541    0.665387
    146          1           0       11.750401   -7.024095    0.303536
    147          1           0       13.386180   -4.019364   -3.331974
    148          1           0       12.638470   -5.601668   -3.365433
    149          1           0       14.260760   -6.392705   -4.472317
    150          1           0       15.368013   -6.232222   -3.123212
    151          1           0       15.098527   -4.884489   -4.412559
    152          1           0       17.748399   -2.467565   -1.891299
    153          1           0       18.764646   -1.372997   -0.998811
    154          1           0       18.365998   -0.921100   -2.683100
    155          1           0       15.730868    3.740954   -1.074857
    156          1           0       17.995721    5.840023    2.032944
    157          1           0       17.130408    4.668406    3.013045
    158          1           0       16.378976    6.189002    2.626334
 ---------------------------------------------------------------------

 SCF Done:  E(RPBE1PBE) =  -4067.36009252     A.U. after   16 cycles

 Excitation energies and oscillator strengths:

 Excited State   1:      Singlet-A      1.8516 eV  669.59 nm  f=0.4072  <S**2>=0.000
     309 -> 316       -0.16652
     312 -> 313        0.69532
     312 <- 313       -0.11408
 This state for optimization and/or second-order correction.
 Total Energy, E(TD-HF/TD-DFT) =  -4067.29204600
 Copying the excited state density for this state as the 1-particle RhoCI density.

 Excited State   2:      Singlet-A      1.8850 eV  657.75 nm  f=0.3780  <S**2>=0.000
     310 -> 315       -0.17640
     311 -> 314        0.68760

 Excited State   3:      Singlet-A      1.9176 eV  646.56 nm  f=0.0000  <S**2>=0.000
     312 -> 314        0.70710

 Excited State   4:      Singlet-A      1.9731 eV  628.36 nm  f=0.0000  <S**2>=0.000
     311 -> 313        0.70709

 Excited State   5:      Singlet-A      2.2642 eV  547.58 nm  f=0.0675  <S**2>=0.000
     310 -> 314        0.63663
     311 -> 315        0.28690

 The electronic state is 1-A.
 Alpha  occ. eigenvalues --  -46.92799 -46.91797 -19.27230 -19.25124 -19.20961
 Alpha  occ. eigenvalues --  -19.20320 -19.20024 -19.19461 -19.18979 -19.18862
 Alpha  occ. eigenvalues --  -14.42054 -14.41360 -14.41222 -14.40979 -14.39485
 Alpha  occ. eigenvalues --  -14.39257 -14.39061 -14.38722 -10.37730 -10.36310
 Alpha  occ. eigenvalues --  -10.33541 -10.32612 -10.32181 -10.32052 -10.29501
 Alpha  occ. eigenvalues --  -10.29275 -10.28893 -10.28788 -10.28758 -10.28628
 Alpha  occ. eigenvalues --  -10.28445 -10.28245 -10.28164 -10.27997 -10.27955
 Alpha  occ. eigenvalues --  -10.27764 -10.27610 -10.27596 -10.27434 -10.27430
 Alpha  occ. eigenvalues --  -10.27401 -10.27363 -10.27127 -10.26709 -10.26458
 Alpha  occ. eigenvalues --  -10.26386 -10.26351 -10.26064 -10.25992 -10.25760
 Alpha  occ. eigenvalues --  -10.25747 -10.25613 -10.25508 -10.25441 -10.25411
 Alpha  occ. eigenvalues --  -10.25402 -10.25335 -10.25312 -10.25215 -10.25195
 Alpha  occ. eigenvalues --  -10.25106 -10.25102 -10.25054 -10.24928 -10.24858
 Alpha  occ. eigenvalues --  -10.24620 -10.24604 -10.24425 -10.24270 -10.24135
 Alpha  occ. eigenvalues --  -10.24074 -10.23835 -10.23516 -10.23516 -10.23450
 Alpha  occ. eigenvalues --  -10.23313 -10.23311 -10.23285 -10.23259 -10.23133
 Alpha  occ. eigenvalues --  -10.23044 -10.22978 -10.22924 -10.22828 -10.22754
 Alpha  occ. eigenvalues --  -10.22634  -3.14770  -3.14022  -1.87608  -1.87146
 Alpha  occ. eigenvalues --   -1.86984  -1.86844  -1.86381  -1.86273  -1.10984
 Alpha  occ. eigenvalues --   -1.10956  -1.04947  -1.04411  -1.04049  -1.03633
 Alpha  occ. eigenvalues --   -1.02669  -1.02630  -0.99842  -0.98616  -0.98561
 Alpha  occ. eigenvalues --   -0.97974  -0.97745  -0.97226  -0.96807  -0.96511
 Alpha  occ. eigenvalues --   -0.87208  -0.86866  -0.83422  -0.83232  -0.82992
 Alpha  occ. eigenvalues --   -0.82830  -0.82369  -0.82356  -0.81957  -0.81614
 Alpha  occ. eigenvalues --   -0.81556  -0.81391  -0.81223  -0.80378  -0.78570
 Alpha  occ. eigenvalues --   -0.78561  -0.77940  -0.77901  -0.77032  -0.76964
 Alpha  occ. eigenvalues --   -0.76630  -0.76154  -0.75901  -0.75484  -0.75033
 Alpha  occ. eigenvalues --   -0.74538  -0.72804  -0.72709  -0.71893  -0.71803
 Alpha  occ. eigenvalues --   -0.71405  -0.71193  -0.70467  -0.70228  -0.69525
 Alpha  occ. eigenvalues --   -0.69128  -0.67045  -0.66837  -0.66327  -0.65435
 Alpha  occ. eigenvalues --   -0.63402  -0.63278  -0.63164  -0.62773  -0.62246
 Alpha  occ. eigenvalues --   -0.62173  -0.61778  -0.61176  -0.60028  -0.59892
 Alpha  occ. eigenvalues --   -0.59737  -0.59496  -0.59462  -0.59396  -0.58959
 Alpha  occ. eigenvalues --   -0.58878  -0.57125  -0.56593  -0.55042  -0.54900
 Alpha  occ. eigenvalues --   -0.54261  -0.54192  -0.53883  -0.53276  -0.53118
 Alpha  occ. eigenvalues --   -0.53001  -0.52882  -0.52453  -0.52134  -0.51937
 Alpha  occ. eigenvalues --   -0.50842  -0.50802  -0.50494  -0.49916  -0.49790
 Alpha  occ. eigenvalues --   -0.49630  -0.49309  -0.49078  -0.48359  -0.48331
 Alpha  occ. eigenvalues --   -0.48183  -0.48146  -0.47866  -0.47687  -0.47686
 Alpha  occ. eigenvalues --   -0.47445  -0.47210  -0.47055  -0.46867  -0.46729
 Alpha  occ. eigenvalues --   -0.46416  -0.46307  -0.46189  -0.46183  -0.46031
 Alpha  occ. eigenvalues --   -0.45937  -0.45904  -0.45696  -0.45440  -0.45299
 Alpha  occ. eigenvalues --   -0.45020  -0.44883  -0.44665  -0.44201  -0.44121
 Alpha  occ. eigenvalues --   -0.43995  -0.43934  -0.43842  -0.43616  -0.43492
 Alpha  occ. eigenvalues --   -0.43385  -0.43280  -0.42966  -0.42920  -0.42786
 Alpha  occ. eigenvalues --   -0.42601  -0.42403  -0.42148  -0.41893  -0.41851
 Alpha  occ. eigenvalues --   -0.41683  -0.41515  -0.41500  -0.41417  -0.41161
 Alpha  occ. eigenvalues --   -0.41060  -0.40793  -0.40697  -0.40671  -0.40418
 Alpha  occ. eigenvalues --   -0.40374  -0.40074  -0.39823  -0.39708  -0.39542
 Alpha  occ. eigenvalues --   -0.39301  -0.39236  -0.39085  -0.38874  -0.38853
 Alpha  occ. eigenvalues --   -0.38843  -0.38694  -0.38589  -0.38427  -0.38409
 Alpha  occ. eigenvalues --   -0.37905  -0.37883  -0.37840  -0.37821  -0.37600
 Alpha  occ. eigenvalues --   -0.37598  -0.37446  -0.37238  -0.37059  -0.36730
 Alpha  occ. eigenvalues --   -0.36615  -0.36564  -0.36443  -0.36225  -0.35985
 Alpha  occ. eigenvalues --   -0.35811  -0.35645  -0.35507  -0.35483  -0.35150
 Alpha  occ. eigenvalues --   -0.35062  -0.34788  -0.34653  -0.34409  -0.34047
 Alpha  occ. eigenvalues --   -0.33752  -0.33283  -0.32799  -0.32727  -0.32450
 Alpha  occ. eigenvalues --   -0.32450  -0.32252  -0.31682  -0.31503  -0.31455
 Alpha  occ. eigenvalues --   -0.31122  -0.31009  -0.29807  -0.29652  -0.29624
 Alpha  occ. eigenvalues --   -0.29184  -0.28658  -0.28528  -0.27072  -0.26948
 Alpha  occ. eigenvalues --   -0.26537  -0.26347  -0.25966  -0.25865  -0.25593
 Alpha  occ. eigenvalues --   -0.25421  -0.25413  -0.25006  -0.21048  -0.20967
 Alpha  occ. eigenvalues --   -0.18682  -0.18437
 Alpha virt. eigenvalues --   -0.10917  -0.10870  -0.05615  -0.04832  -0.04317
 Alpha virt. eigenvalues --   -0.04269  -0.02243  -0.02206  -0.01683  -0.00942
 Alpha virt. eigenvalues --   -0.00786   0.00379   0.01059   0.01206   0.01309

 Mulliken charges:
               1
     1  Mg  11.999933
     2  C    6.000845
     3  C    5.999172
     4  C    5.999415
     5  C    6.000702
     6  N    6.999941
     7  C    5.998390
     8  C    6.000569
     9  C    5.999741
    10  C    6.001562
    11  C    6.000033
    12  C    6.000246
    13  C    6.000001
    14  H    0.999717
    15  N    6.999671
    16  C    6.001944
    17  C    6.001455
    18  C    6.000527
    19  C    6.001720
    20  C    5.999803
    21  C    6.000708
    22  O    8.001293
    23  C    5.999715
    24  N    7.000283
    25  C    6.001897
    26  C    5.999522
    27  C    6.000325
    28  C    5.998484
    29  C    5.999767
    30  C    6.000362
    31  C    6.000030
    32  N    7.000078
    33  C    5.998276
    34  C    5.998481
    35  C    5.999857
    36  C    5.998410
    37  C    6.000287
    38  C    5.998982
    39  O    7.998229
    40  C    5.999930
    41  C    5.999900
    42  O    7.999811
    43  O    7.999899
    44  C    6.000144
    45  H    1.000434
    46  H    1.000314
    47  H    0.999482
    48  H    0.999813
    49  H    0.999775
    50  H    1.000204
    51  H    1.000557
    52  H    1.000274
    53  H    0.999218
    54  H    0.999980
    55  H    0.999612
    56  H    1.000160
    57  H    1.000881
    58  H    1.001161
    59  H    1.001338
    60  H    1.000182
    61  H    1.000806
    62  H    1.000581
    63  H    0.999910
    64  H    1.000133
    65  H    1.000630
    66  H    1.000175
    67  H    0.999901
    68  H    0.999854
    69  H    0.999365
    70  H    1.000264
    71  H    0.999592
    72  H    0.999956
    73  H    0.999080
    74  H    0.998640
    75  H    0.999137
    76  H    0.999362
    77  H    0.999571
    78  H    0.999659
    79  H    0.999941
    80  Mg  11.997904
    81  C    5.980090
    82  C    6.014948
    83  C    6.012608
    84  C    5.982404
    85  N    6.994044
    86  C    6.033492
    87  C    5.991163
    88  C    6.012023
    89  C    5.967983
    90  C    6.000914
    91  C    5.995791
    92  C    5.997018
    93  H    1.009754
    94  N    7.004188
    95  C    5.962314
    96  C    5.977231
    97  C    5.988717
    98  C    5.963837
    99  C    6.005818
   100  C    5.987987
   101  O    7.976874
   102  C    6.001761
   103  N    6.999620
   104  C    5.971843
   105  C    6.007374
   106  C    5.991145
   107  C    6.029703
   108  C    5.998202
   109  C    5.998940
   110  C    5.997812
   111  N    7.002251
   112  C    6.038437
   113  C    6.032549
   114  C    6.000415
   115  C    6.030207
   116  C    5.997027
   117  C    6.019184
   118  O    8.028439
   119  C    6.004577
   120  C    6.005949
   121  O    8.004092
   122  O    8.002961
   123  C    5.996772
   124  H    0.991569
   125  H    0.992080
   126  H    1.008591
   127  H    1.000511
   128  H    0.994665
   129  H    0.988237
   130  H    1.006135
   131  H    0.997836
   132  H    1.010351
   133  H    0.995695
   134  H    0.996198
   135  H    1.001668
   136  H    0.978312
   137  H    0.981601
   138  H    0.982258
   139  H    0.994726
   140  H    0.995080
   141  H    0.986440
   142  H    1.000111
   143  H    0.998869
   144  H    1.005099
   145  H    0.989087
   146  H    0.998565
   147  H    0.999319
   148  H    1.011136
   149  H    1.004673
   150  H    1.000933
   151  H    0.996129
   152  H    1.018543
   153  H    1.019316
   154  H    1.018071
   155  H    1.008708
   156  H    1.002945
   157  H    1.003381
   158  H    1.006801
 Sum of Mulliken charges = 624.00000

 Dipole moment (field-independent basis, Debye):
    X=             10.3340    Y=              1.8599    Z=             -2.3914  Tot=             10.7689
 Quadrupole moment (field-independent basis, Debye-Ang):
   XX=            249.8457   YY=             -0.1628   ZZ=              0.8663
   XY=             25.6846   XZ=            -40.7747   YZ=              3.3731

 Normal termination of Gaussian 16 at Thu Oct 14 18:50:17 2021.
