 Gaussian 16, Revision A.03,
 Gaussian 16:  ES64L-G16RevA.03 25-Dec-2016

 --------------------------------------------------------
 #p PBE1PBE/Def2SVP td=(nstates=5) density=(transition=1)
 --------------------------------------------------------

 --------------------------------
 TDDFT excited states in gaussian
 --------------------------------
 Symbolic Z-matrix:
 Charge =  0 Multiplicity = 1

                         Standard orientation:
 ---------------------------------------------------------------------
 Center     Atomic      Atomic             Coordinates (Angstroms)
 Number     Number       Type             X           Y           Z
 ---------------------------------------------------------------------
      1         12           0      -24.795086   -0.566878   -0.148805
      2          6           0      -23.231289    2.423317   -0.855372
      3          6           0      -24.924346    0.543900    3.253747
      4          6           0      -25.972370   -3.482883    0.725314
      5          6           0      -24.301380   -1.647573   -3.397429
      6          7           0      -23.927468    1.248501    1.082501
      7          6           0      -23.556445    2.380859    0.508910
      8          6           0      -23.651765    3.568655    1.507733
      9          6           0      -23.641013    2.778189    2.862722
     10          6           0      -24.200779    1.413334    2.430922
     11          6           0      -22.201315    2.666169    3.479126
     12          6           0      -24.987735    4.280788    1.199734
     13          6           0      -25.257831    5.588073    1.957019
     14          1           0      -24.374387    5.991702    3.120383
     15          7           0      -25.479401   -1.386839    1.634815
     16          6           0      -25.472850   -0.735856    2.916268
     17          6           0      -26.225424   -1.605675    3.809856
     18          6           0      -26.631493   -2.740403    3.040279
     19          6           0      -25.997884   -2.604593    1.729507
     20          6           0      -26.553219   -1.280112    5.314762
     21          6           0      -27.589099   -3.892253    3.491701
     22          8           0      -27.727496   -4.831275    2.756646
     23          6           0      -28.275614   -3.834632    4.817647
     24          7           0      -25.181775   -2.306418   -1.226444
     25          6           0      -25.686223   -3.419897   -0.648558
     26          6           0      -25.800096   -4.600964   -1.611680
     27          6           0      -25.392104   -3.955461   -2.956265
     28          6           0      -24.918201   -2.518355   -2.492400
     29          6           0      -24.934981   -5.862941   -1.247069
     30          6           0      -26.389967   -4.013932   -4.084631
     31          6           0      -27.876606   -3.644191   -3.863797
     32          7           0      -23.945189    0.149610   -1.832960
     33          6           0      -23.816051   -0.373533   -3.087686
     34          6           0      -23.253249    0.663820   -3.926140
     35          6           0      -23.014589    1.833091   -3.125034
     36          6           0      -23.456168    1.431820   -1.834493
     37          6           0      -22.969760    0.498247   -5.386569
     38          6           0      -22.482418    3.153406   -3.077455
     39          8           0      -21.944194    3.885874   -3.936020
     40          6           0      -22.378163    3.450440   -1.483408
     41          6           0      -22.717387    4.930066   -1.295715
     42          8           0      -23.682470    5.464000   -1.690424
     43          8           0      -21.679125    5.517805   -0.630737
     44          6           0      -21.907897    6.810890   -0.019484
     45          1           0      -24.899852    0.861070    4.297945
     46          1           0      -26.312706   -4.490887    0.971460
     47          1           0      -24.100454   -1.933708   -4.431212
     48          1           0      -22.768539    4.206469    1.476245
     49          1           0      -24.346875    3.331727    3.482428
     50          1           0      -22.112693    3.356759    4.316871
     51          1           0      -21.483613    2.895059    2.691102
     52          1           0      -21.985853    1.686644    3.906080
     53          1           0      -25.789346    3.610402    1.508655
     54          1           0      -25.158897    4.385755    0.128825
     55          1           0      -26.317747    5.767344    2.138795
     56          1           0      -25.128254    6.363187    1.201465
     57          1           0      -26.291575   -2.100780    5.983363
     58          1           0      -27.613455   -1.028353    5.333720
     59          1           0      -26.047869   -0.358245    5.605177
     60          1           0      -29.179255   -4.413168    4.624450
     61          1           0      -28.630438   -2.834669    5.064567
     62          1           0      -27.720094   -4.012955    5.738311
     63          1           0      -26.855545   -4.871978   -1.598264
     64          1           0      -24.458390   -4.353647   -3.353352
     65          1           0      -24.614580   -6.280858   -2.201050
     66          1           0      -25.663192   -6.505156   -0.751284
     67          1           0      -24.159259   -5.598777   -0.528406
     68          1           0      -26.471934   -5.093711   -4.204352
     69          1           0      -26.117307   -3.535722   -5.026011
     70          1           0      -28.629528   -4.413586   -4.029584
     71          1           0      -28.215471   -2.909020   -4.593687
     72          1           0      -28.010997   -3.302199   -2.837496
     73          1           0      -22.499514    1.430094   -5.699329
     74          1           0      -23.905491    0.414939   -5.940979
     75          1           0      -22.426393   -0.406736   -5.656739
     76          1           0      -21.355749    3.180693   -1.218009
     77          1           0      -21.043371    7.233450   -0.531679
     78          1           0      -21.942329    6.782919    1.069821
     79          1           0      -22.801852    7.325144   -0.373272
     80         12           0       24.190315   -0.871870   -0.185873
     81          6           0       25.179777    2.522359   -0.257474
     82          6           0       22.660032   -0.261810    2.816649
     83          6           0       23.836989   -4.143152    0.190552
     84          6           0       26.204569   -1.416348   -2.996172
     85          7           0       24.090447    0.898991    1.207766
     86          6           0       24.483250    2.200627    0.884982
     87          6           0       23.866800    3.202461    1.892236
     88          6           0       23.075159    2.274428    2.884454
     89          6           0       23.224421    0.851973    2.277143
     90          6           0       23.343054    2.457727    4.368078
     91          6           0       23.000870    4.325385    1.300244
     92          6           0       23.451287    5.753260    1.714227
     93          1           0       22.390271    6.603280    2.377314
     94          7           0       23.274918   -2.016710    1.282326
     95          6           0       22.726168   -1.616503    2.465174
     96          6           0       22.082596   -2.763506    3.060136
     97          6           0       22.551645   -3.958258    2.363568
     98          6           0       23.270911   -3.361186    1.248761
     99          6           0       21.264807   -2.675811    4.450841
    100          6           0       22.609116   -5.368247    2.768356
    101          8           0       23.009256   -6.295983    2.124579
    102          6           0       22.112983   -5.677210    4.177757
    103          7           0       25.115885   -2.560787   -1.166902
    104          6           0       24.739623   -3.814804   -0.848992
    105          6           0       25.224331   -4.809800   -1.906045
    106          6           0       25.647681   -3.894006   -3.065712
    107          6           0       25.630000   -2.528480   -2.415793
    108          6           0       26.435746   -5.696654   -1.360524
    109          6           0       24.523798   -3.977775   -4.219575
    110          6           0       23.178218   -3.269934   -3.902393
    111          7           0       25.376003    0.269660   -1.516693
    112          6           0       26.100197   -0.090777   -2.588528
    113          6           0       26.714880    1.090286   -3.132389
    114          6           0       26.343856    2.122555   -2.291324
    115          6           0       25.569169    1.584730   -1.259921
    116          6           0       27.613834    1.229441   -4.346185
    117          6           0       26.569392    3.557914   -2.101122
    118          8           0       27.232149    4.434100   -2.580723
    119          6           0       25.761535    3.896667   -0.820494
    120          6           0       26.746879    4.465331    0.132440
    121          8           0       27.748445    3.866135    0.433742
    122          8           0       26.437748    5.751180    0.545907
    123          6           0       27.523514    6.499626    1.263325
    124          1           0       22.005882   -0.013137    3.655069
    125          1           0       23.650244   -5.219371    0.201195
    126          1           0       26.673079   -1.450874   -3.981982
    127          1           0       24.670904    3.638758    2.485190
    128          1           0       22.025034    2.564792    2.846902
    129          1           0       24.263685    3.014570    4.536241
    130          1           0       23.377133    1.522385    4.927283
    131          1           0       22.545124    3.102736    4.735145
    132          1           0       21.941845    4.344982    1.557559
    133          1           0       22.997246    4.275946    0.211607
    134          1           0       23.944204    6.270912    0.891389
    135          1           0       24.215323    5.644258    2.482895
    136          1           0       20.314854   -3.191438    4.310507
    137          1           0       20.989530   -1.676649    4.786355
    138          1           0       21.737038   -3.046612    5.360539
    139          1           0       21.064666   -5.379668    4.143840
    140          1           0       22.707797   -5.035163    4.826659
    141          1           0       22.135751   -6.733387    4.448003
    142          1           0       24.434067   -5.453493   -2.293825
    143          1           0       26.637040   -3.992712   -3.512947
    144          1           0       26.387633   -6.651574   -1.884553
    145          1           0       26.465887   -5.942951   -0.298604
    146          1           0       27.324134   -5.149501   -1.675567
    147          1           0       24.306256   -5.001536   -4.523393
    148          1           0       24.840718   -3.386315   -5.078660
    149          1           0       22.367126   -3.471042   -4.601438
    150          1           0       23.361329   -2.195547   -3.925219
    151          1           0       22.889099   -3.554710   -2.890228
    152          1           0       27.138639    0.964224   -5.290343
    153          1           0       28.416706    0.519067   -4.150778
    154          1           0       28.090384    2.207824   -4.407305
    155          1           0       25.084710    4.682470   -1.155460
    156          1           0       26.924101    6.927006    2.067159
    157          1           0       27.958495    7.299600    0.664502
    158          1           0       28.387423    5.967984    1.661441
 ---------------------------------------------------------------------

 SCF Done:  E(RPBE1PBE) =  -4067.37971680     A.U. after   16 cycles

 Excitation energies and oscillator strengths:

 Excited State   1:      Singlet-A      1.8679 eV  663.76 nm  f=0.3803  <S**2>=0.000
     309 -> 316        0.16815
     311 -> 313        0.69460
     311 <- 313       -0.11167
 This state for optimization and/or second-order correction.
 Total Energy, E(TD-HF/TD-DFT) =  -4067.31107206
 Copying the excited state density for this state as the 1-particle RhoCI density.

 Excited State   2:      Singlet-A      1.8733 eV  661.85 nm  f=0.0000  <S**2>=0.000
     312 -> 313        0.70711

 Excited State   3:      Singlet-A      1.8859 eV  657.44 nm  f=0.3704  <S**2>=0.000
     310 -> 315       -0.19006
     312 -> 314        0.68804
     312 <- 314       -0.10015

 Excited State   4:      Singlet-A      2.1691 eV  571.59 nm  f=0.0000  <S**2>=0.000
     311 -> 314        0.70711

 Excited State   5:      Singlet-A      2.2023 eV  562.97 nm  f=0.1262  <S**2>=0.000
     309 -> 313        0.66415
     311 -> 316       -0.22436

 The electronic state is 1-A.
 Alpha  occ. eigenvalues --  -46.92935 -46.91674 -19.25770 -19.25036 -19.20409
 Alpha  occ. eigenvalues --  -19.19782 -19.19461 -19.19362 -19.19209 -19.18639
 Alpha  occ. eigenvalues --  -14.41695 -14.41387 -14.41262 -14.41185 -14.39439
 Alpha  occ. eigenvalues --  -14.39025 -14.38934 -14.38870 -10.35880 -10.35779
 Alpha  occ. eigenvalues --  -10.32472 -10.32276 -10.32167 -10.31501 -10.29235
 Alpha  occ. eigenvalues --  -10.29023 -10.28678 -10.28541 -10.28513 -10.28465
 Alpha  occ. eigenvalues --  -10.28390 -10.28383 -10.28300 -10.28261 -10.28168
 Alpha  occ. eigenvalues --  -10.27970 -10.27711 -10.27425 -10.27235 -10.27004
 Alpha  occ. eigenvalues --  -10.26946 -10.26806 -10.26707 -10.26532 -10.26291
 Alpha  occ. eigenvalues --  -10.26271 -10.26179 -10.25885 -10.25850 -10.25846
 Alpha  occ. eigenvalues --  -10.25826 -10.25742 -10.25643 -10.25636 -10.25552
 Alpha  occ. eigenvalues --  -10.25416 -10.25386 -10.25335 -10.25332 -10.25291
 Alpha  occ. eigenvalues --  -10.25264 -10.25124 -10.24890 -10.24760 -10.24715
 Alpha  occ. eigenvalues --  -10.24342 -10.24329 -10.24220 -10.24206 -10.24199
 Alpha  occ. eigenvalues --  -10.24112 -10.24091 -10.23943 -10.23827 -10.23769
 Alpha  occ. eigenvalues --  -10.23567 -10.23552 -10.23493 -10.23439 -10.23394
 Alpha  occ. eigenvalues --  -10.23167 -10.23039 -10.22709 -10.22698 -10.22649
 Alpha  occ. eigenvalues --  -10.22368  -3.14923  -3.13889  -1.87745  -1.87310
 Alpha  occ. eigenvalues --   -1.87138  -1.86730  -1.86279  -1.86103  -1.12356
 Alpha  occ. eigenvalues --   -1.10400  -1.06402  -1.06339  -1.05848  -1.04624
 Alpha  occ. eigenvalues --   -1.02685  -1.02422  -0.99887  -0.99820  -0.98969
 Alpha  occ. eigenvalues --   -0.98668  -0.98539  -0.97696  -0.96829  -0.96614
 Alpha  occ. eigenvalues --   -0.87348  -0.86695  -0.83671  -0.83187  -0.83076
 Alpha  occ. eigenvalues --   -0.83063  -0.82780  -0.82582  -0.82085  -0.81663
 Alpha  occ. eigenvalues --   -0.80861  -0.80716  -0.80613  -0.79960  -0.78716
 Alpha  occ. eigenvalues --   -0.78369  -0.78012  -0.77762  -0.76764  -0.76728
 Alpha  occ. eigenvalues --   -0.75972  -0.75743  -0.75489  -0.75188  -0.74618
 Alpha  occ. eigenvalues --   -0.74429  -0.72676  -0.72343  -0.71703  -0.71679
 Alpha  occ. eigenvalues --   -0.71086  -0.71047  -0.70452  -0.70191  -0.69908
 Alpha  occ. eigenvalues --   -0.69591  -0.67554  -0.67108  -0.66464  -0.66234
 Alpha  occ. eigenvalues --   -0.64645  -0.63695  -0.63636  -0.63306  -0.62515
 Alpha  occ. eigenvalues --   -0.62513  -0.61634  -0.60696  -0.59912  -0.59841
 Alpha  occ. eigenvalues --   -0.59671  -0.59650  -0.59431  -0.59060  -0.58832
 Alpha  occ. eigenvalues --   -0.58641  -0.56899  -0.56840  -0.55090  -0.55021
 Alpha  occ. eigenvalues --   -0.54273  -0.54208  -0.53857  -0.53729  -0.53387
 Alpha  occ. eigenvalues --   -0.53359  -0.52739  -0.52617  -0.52387  -0.52160
 Alpha  occ. eigenvalues --   -0.50770  -0.50618  -0.50598  -0.50255  -0.49900
 Alpha  occ. eigenvalues --   -0.49864  -0.49710  -0.49225  -0.48800  -0.48666
 Alpha  occ. eigenvalues --   -0.48290  -0.48082  -0.48018  -0.47677  -0.47563
 Alpha  occ. eigenvalues --   -0.47092  -0.47007  -0.46939  -0.46750  -0.46701
 Alpha  occ. eigenvalues --   -0.46609  -0.46546  -0.46271  -0.46127  -0.45722
 Alpha  occ. eigenvalues --   -0.45374  -0.45331  -0.45272  -0.44781  -0.44647
 Alpha  occ. eigenvalues --   -0.44639  -0.44391  -0.44278  -0.44128  -0.44069
 Alpha  occ. eigenvalues --   -0.44034  -0.43947  -0.43921  -0.43916  -0.43655
 Alpha  occ. eigenvalues --   -0.43362  -0.43069  -0.42938  -0.42927  -0.42802
 Alpha  occ. eigenvalues --   -0.42643  -0.42563  -0.42317  -0.42264  -0.42041
 Alpha  occ. eigenvalues --   -0.41665  -0.41550  -0.41432  -0.41264  -0.41102
 Alpha  occ. eigenvalues --   -0.40900  -0.40780  -0.40693  -0.40656  -0.40600
 Alpha  occ. eigenvalues --   -0.40314  -0.40248  -0.40091  -0.39947  -0.39811
 Alpha  occ. eigenvalues --   -0.39706  -0.39533  -0.39319  -0.38917  -0.38709
 Alpha  occ. eigenvalues --   -0.38503  -0.38201  -0.38175  -0.38161  -0.38103
 Alpha  occ. eigenvalues --   -0.37810  -0.37797  -0.37727  -0.37716  -0.37603
 Alpha  occ. eigenvalues --   -0.37341  -0.37233  -0.37145  -0.36982  -0.36959
 Alpha  occ. eigenvalues --   -0.36870  -0.36830  -0.36685  -0.36412  -0.36319
 Alpha  occ. eigenvalues --   -0.36318  -0.36300  -0.35843  -0.35739  -0.35242
 Alpha  occ. eigenvalues --   -0.35110  -0.34678  -0.34460  -0.34427  -0.33997
 Alpha  occ. eigenvalues --   -0.33340  -0.33302  -0.33054  -0.32824  -0.32815
 Alpha  occ. eigenvalues --   -0.32548  -0.32180  -0.32104  -0.31361  -0.31303
 Alpha  occ. eigenvalues --   -0.31196  -0.30892  -0.30145  -0.29600  -0.29140
 Alpha  occ. eigenvalues --   -0.29120  -0.28841  -0.28748  -0.27243  -0.26970
 Alpha  occ. eigenvalues --   -0.26153  -0.26047  -0.26000  -0.25754  -0.25636
 Alpha  occ. eigenvalues --   -0.25253  -0.25119  -0.25000  -0.21133  -0.20765
 Alpha  occ. eigenvalues --   -0.19195  -0.18744
 Alpha virt. eigenvalues --   -0.11591  -0.10955  -0.05359  -0.05003  -0.04022
 Alpha virt. eigenvalues --   -0.03691  -0.01935  -0.01820  -0.01126   0.00264
 Alpha virt. eigenvalues --    0.00810   0.01153   0.01277   0.01465   0.01815

 Mulliken charges:
               1
     1  Mg  12.000010
     2  C    6.000000
     3  C    6.000077
     4  C    6.000038
     5  C    5.999990
     6  N    7.000039
     7  C    6.000143
     8  C    5.999977
     9  C    6.000053
    10  C    5.999806
    11  C    6.000017
    12  C    5.999952
    13  C    6.000009
    14  H    1.000024
    15  N    7.000015
    16  C    5.999725
    17  C    5.999922
    18  C    5.999885
    19  C    5.999850
    20  C    6.000008
    21  C    5.999884
    22  O    7.999823
    23  C    6.000025
    24  N    6.999964
    25  C    5.999812
    26  C    6.000085
    27  C    5.999967
    28  C    6.000166
    29  C    5.999993
    30  C    5.999950
    31  C    5.999984
    32  N    7.000024
    33  C    6.000145
    34  C    6.000199
    35  C    5.999976
    36  C    6.000106
    37  C    6.000000
    38  C    6.000194
    39  O    8.000241
    40  C    5.999975
    41  C    6.000051
    42  O    8.000052
    43  O    7.999999
    44  C    5.999981
    45  H    0.999929
    46  H    0.999946
    47  H    1.000044
    48  H    0.999980
    49  H    0.999998
    50  H    0.999962
    51  H    0.999886
    52  H    0.999997
    53  H    1.000096
    54  H    0.999955
    55  H    1.000049
    56  H    0.999993
    57  H    0.999872
    58  H    0.999910
    59  H    0.999875
    60  H    0.999910
    61  H    0.999966
    62  H    0.999905
    63  H    1.000015
    64  H    0.999961
    65  H    0.999916
    66  H    1.000019
    67  H    0.999969
    68  H    1.000056
    69  H    0.999974
    70  H    1.000040
    71  H    0.999994
    72  H    1.000065
    73  H    1.000098
    74  H    1.000196
    75  H    1.000142
    76  H    1.000031
    77  H    1.000019
    78  H    1.000041
    79  H    1.000052
    80  Mg  11.999358
    81  C    6.023211
    82  C    5.994437
    83  C    5.981496
    84  C    6.001851
    85  N    7.008672
    86  C    5.968149
    87  C    6.012302
    88  C    5.989797
    89  C    6.025405
    90  C    5.997242
    91  C    5.999791
    92  C    6.002725
    93  H    0.992714
    94  N    6.997267
    95  C    6.033451
    96  C    6.023151
    97  C    6.020081
    98  C    6.024828
    99  C    5.998889
   100  C    6.009939
   101  O    8.030121
   102  C    5.997831
   103  N    6.994421
   104  C    6.034043
   105  C    5.990851
   106  C    6.006533
   107  C    5.972642
   108  C    5.994717
   109  C    6.005113
   110  C    6.001489
   111  N    7.004764
   112  C    5.966065
   113  C    5.968027
   114  C    6.001691
   115  C    5.961558
   116  C    5.999077
   117  C    5.985279
   118  O    7.974669
   119  C    5.998803
   120  C    5.992729
   121  O    7.998547
   122  O    7.997728
   123  C    6.002319
   124  H    1.010685
   125  H    1.005115
   126  H    0.988933
   127  H    0.998426
   128  H    1.002524
   129  H    1.010309
   130  H    0.993862
   131  H    1.005648
   132  H    0.992466
   133  H    1.005715
   134  H    1.004364
   135  H    0.998225
   136  H    1.015827
   137  H    1.017367
   138  H    1.018792
   139  H    1.006001
   140  H    1.004687
   141  H    1.014818
   142  H    1.000369
   143  H    1.000726
   144  H    1.003680
   145  H    0.993689
   146  H    1.011795
   147  H    0.989580
   148  H    1.002692
   149  H    0.995705
   150  H    1.010542
   151  H    0.982775
   152  H    0.980447
   153  H    0.983159
   154  H    0.986559
   155  H    0.992329
   156  H    0.994108
   157  H    0.997627
   158  H    0.996681
 Sum of Mulliken charges = 624.00000

 Dipole moment (field-independent basis, Debye):
    X=             -5.0040    Y=             -5.7950    Z=              6.9826  Tot=             10.3624
 Quadrupole moment (field-independent basis, Debye-Ang):
   XX=           -247.5591   YY=              8.9903   ZZ=              0.6074
   XY=           -140.3513   XZ=            172.4740   YZ=             -9.2709

 Normal termination of Gaussian 16 at Thu Oct 14 07:49:15 2021.
