 Gaussian 16, Revision A.03,
 Gaussian 16:  ES64L-G16RevA.03 25-Dec-2016

 --------------------------------------------------------
 #p PBE1PBE/Def2SVP td=(nstates=5) density=(transition=1)
 --------------------------------------------------------

 --------------------------------
 TDDFT excited states in gaussian
 --------------------------------
 Symbolic Z-matrix:
 Charge =  0 Multiplicity = 1

                         Standard orientation:
 ---------------------------------------------------------------------
 Center     Atomic      Atomic             Coordinates (Angstroms)
 Number     Number       Type             X           Y           Z
 ---------------------------------------------------------------------
      1         12           0      -29.399895    0.392316   -0.330032
      2          6           0      -26.143504   -0.804839   -0.151502
      3          6           0      -30.423176   -3.032309   -0.139267
      4          6           0      -32.515530    1.385209    0.005025
      5          6           0      -28.158040    3.635370    0.215973
      6          7           0      -28.385670   -1.645934   -0.043338
      7          6           0      -27.023603   -1.840095   -0.096734
      8          6           0      -26.697864   -3.329343    0.045760
      9          6           0      -28.079030   -3.982861   -0.236242
     10          6           0      -29.049903   -2.840056   -0.095856
     11          6           0      -28.299360   -4.713812   -1.618609
     12          6           0      -26.118954   -3.691180    1.423420
     13          6           0      -25.625923   -5.080223    1.567056
     14          1           0      -24.576976   -5.355394    2.711210
     15          7           0      -31.255018   -0.671030   -0.083258
     16          6           0      -31.462346   -2.059012   -0.058384
     17          6           0      -32.872544   -2.295582    0.077555
     18          6           0      -33.496446   -1.006681    0.260841
     19          6           0      -32.395212   -0.008218    0.033393
     20          6           0      -33.484244   -3.720015    0.181043
     21          6           0      -34.995371   -0.843847    0.532327
     22          8           0      -35.769320   -1.784134    0.462518
     23          6           0      -35.520270    0.496412    0.881147
     24          7           0      -30.205239    2.287542   -0.164515
     25          6           0      -31.533315    2.423314   -0.085423
     26          6           0      -31.898812    3.934513    0.208590
     27          6           0      -30.522918    4.693798    0.341263
     28          6           0      -29.517367    3.428609    0.167767
     29          6           0      -32.919674    4.622328   -0.735551
     30          6           0      -30.399611    5.335981    1.739618
     31          6           0      -29.545721    6.608299    1.801049
     32          7           0      -27.542623    1.322605   -0.022390
     33          6           0      -27.174247    2.636454    0.056534
     34          6           0      -25.708960    2.710797    0.013183
     35          6           0      -25.294109    1.417452   -0.158679
     36          6           0      -26.399739    0.599005   -0.109962
     37          6           0      -24.870395    3.993023    0.005476
     38          6           0      -24.133968    0.586388   -0.277164
     39          8           0      -22.957117    0.843855   -0.341300
     40          6           0      -24.640073   -0.894716   -0.292351
     41          6           0      -24.294486   -1.473031   -1.619968
     42          8           0      -24.507724   -0.992894   -2.698600
     43          8           0      -23.789558   -2.770135   -1.423760
     44          6           0      -23.479973   -3.502813   -2.618450
     45          1           0      -30.632541   -4.103012   -0.175187
     46          1           0      -33.493892    1.862761    0.095165
     47          1           0      -27.735826    4.637793    0.313890
     48          1           0      -26.038423   -3.568946   -0.787304
     49          1           0      -28.427251   -4.699620    0.506641
     50          1           0      -28.688038   -5.692426   -1.337729
     51          1           0      -27.537258   -4.589060   -2.388323
     52          1           0      -29.149246   -4.221741   -2.091309
     53          1           0      -26.822592   -3.651406    2.255375
     54          1           0      -25.318292   -2.997820    1.681130
     55          1           0      -25.196693   -5.358883    0.604658
     56          1           0      -26.479798   -5.744002    1.701562
     57          1           0      -33.684659   -3.700023    1.252749
     58          1           0      -32.786590   -4.549537    0.064066
     59          1           0      -34.370540   -4.036116   -0.369411
     60          1           0      -34.858818    0.851229    1.671510
     61          1           0      -36.514145    0.374284    1.312028
     62          1           0      -35.441578    1.049191   -0.055308
     63          1           0      -32.399740    3.926228    1.177043
     64          1           0      -30.319906    5.426359   -0.439270
     65          1           0      -33.861627    4.723302   -0.195512
     66          1           0      -32.972530    4.052261   -1.662498
     67          1           0      -32.612109    5.651208   -0.922283
     68          1           0      -29.975135    4.553060    2.367559
     69          1           0      -31.355938    5.535111    2.223651
     70          1           0      -30.237408    7.344114    2.212658
     71          1           0      -29.096911    6.900305    0.851543
     72          1           0      -28.744679    6.490742    2.530954
     73          1           0      -23.991966    4.001132    0.649915
     74          1           0      -25.608073    4.741744    0.295150
     75          1           0      -24.701713    4.232696   -1.044502
     76          1           0      -24.112611   -1.405048    0.513621
     77          1           0      -22.392887   -3.568593   -2.664291
     78          1           0      -23.849321   -3.142600   -3.578922
     79          1           0      -23.916054   -4.495508   -2.510010
     80         12           0       28.796591    0.675672   -0.451215
     81          6           0       28.340424   -2.783050    0.370710
     82          6           0       25.816194    1.319850    1.343595
     83          6           0       29.564076    3.941557   -0.523657
     84          6           0       31.974217   -0.098693   -1.554133
     85          7           0       27.221422   -0.582402    0.730238
     86          6           0       27.338298   -1.932833    0.905890
     87          6           0       26.346940   -2.397511    1.960941
     88          6           0       25.418738   -1.111949    1.994966
     89          6           0       26.150106   -0.008424    1.330626
     90          6           0       23.989540   -1.242558    1.369203
     91          6           0       27.105181   -2.833811    3.255488
     92          6           0       26.698737   -4.174994    3.993601
     93          1           0       26.171416   -4.120669    5.438714
     94          7           0       27.803864    2.358762    0.100171
     95          6           0       26.580693    2.447063    0.815736
     96          6           0       26.192105    3.834652    0.988224
     97          6           0       27.307567    4.590577    0.441522
     98          6           0       28.270069    3.611151   -0.026935
     99          6           0       24.980215    4.214028    1.732242
    100          6           0       27.330631    6.128449    0.399424
    101          8           0       26.364151    6.718392    0.964889
    102          6           0       28.422410    6.990549   -0.269223
    103          7           0       30.628909    1.850430   -0.715599
    104          6           0       30.639512    3.160447   -0.870744
    105          6           0       32.027961    3.585210   -1.225176
    106          6           0       32.744454    2.261384   -1.603655
    107          6           0       31.744307    1.227776   -1.185636
    108          6           0       32.257555    4.716277   -2.316624
    109          6           0       34.189032    2.037611   -0.916595
    110          6           0       35.439994    1.983629   -1.827436
    111          7           0       29.864969   -1.032690   -0.764897
    112          6           0       31.121142   -1.203798   -1.210249
    113          6           0       31.475251   -2.575064   -1.256290
    114          6           0       30.381995   -3.228278   -0.682564
    115          6           0       29.422060   -2.239263   -0.349943
    116          6           0       32.685761   -3.247082   -1.767473
    117          6           0       29.955240   -4.539190   -0.301173
    118          8           0       30.566469   -5.581605   -0.374091
    119          6           0       28.525357   -4.274015    0.493822
    120          6           0       27.440902   -5.003857   -0.173670
    121          8           0       27.263997   -5.069111   -1.396766
    122          8           0       26.666673   -5.558661    0.822965
    123          6           0       25.514199   -6.345897    0.387806
    124          1           0       24.903419    1.582849    1.880354
    125          1           0       29.909253    4.976166   -0.476920
    126          1           0       32.866172   -0.414041   -2.099840
    127          1           0       25.747660   -3.178546    1.492316
    128          1           0       25.469751   -0.922736    3.067849
    129          1           0       23.901875   -0.475471    0.598462
    130          1           0       23.176040   -1.065544    2.072408
    131          1           0       23.789007   -2.176091    0.842575
    132          1           0       26.872852   -1.978706    3.889856
    133          1           0       28.192251   -2.862451    3.184396
    134          1           0       27.591439   -4.798023    3.941810
    135          1           0       26.027478   -4.729540    3.338568
    136          1           0       25.040091    3.703365    2.693643
    137          1           0       24.097818    3.810746    1.235846
    138          1           0       24.743825    5.275082    1.816326
    139          1           0       29.321617    6.927544    0.343828
    140          1           0       27.908640    7.917232   -0.522835
    141          1           0       28.589024    6.472085   -1.214037
    142          1           0       32.458507    4.018508   -0.323261
    143          1           0       32.688145    2.283673   -2.692046
    144          1           0       33.198264    5.183760   -2.024641
    145          1           0       31.406853    5.397136   -2.292195
    146          1           0       32.370606    4.203578   -3.272011
    147          1           0       34.066514    1.105351   -0.365495
    148          1           0       34.291289    2.780483   -0.125637
    149          1           0       36.076702    1.124686   -1.619732
    150          1           0       36.006312    2.905586   -1.692966
    151          1           0       35.207347    1.996289   -2.892408
    152          1           0       32.511448   -4.306307   -1.953897
    153          1           0       33.324829   -3.066649   -0.902908
    154          1           0       33.146927   -2.591493   -2.506033
    155          1           0       28.627064   -4.456933    1.562941
    156          1           0       25.794858   -7.099965   -0.347877
    157          1           0       24.746851   -5.683702   -0.015861
    158          1           0       25.107343   -6.873077    1.250771
 ---------------------------------------------------------------------

 SCF Done:  E(RPBE1PBE) =  -4067.36199074     A.U. after   16 cycles

 Excitation energies and oscillator strengths:

 Excited State   1:      Singlet-A      1.8633 eV  665.42 nm  f=0.3787  <S**2>=0.000
     310 -> 316       -0.18034
     312 -> 314        0.69248
     312 <- 314       -0.10916
 This state for optimization and/or second-order correction.
 Total Energy, E(TD-HF/TD-DFT) =  -4067.29351752
 Copying the excited state density for this state as the 1-particle RhoCI density.

 Excited State   2:      Singlet-A      1.9036 eV  651.33 nm  f=0.3828  <S**2>=0.000
     309 -> 315       -0.17019
     311 -> 313        0.69346
     311 <- 313       -0.10647

 Excited State   3:      Singlet-A      1.9573 eV  633.45 nm  f=0.0000  <S**2>=0.000
     312 -> 313        0.70711

 Excited State   4:      Singlet-A      2.0976 eV  591.08 nm  f=0.0000  <S**2>=0.000
     311 -> 314        0.70711

 Excited State   5:      Singlet-A      2.2662 eV  547.11 nm  f=0.1241  <S**2>=0.000
     310 -> 314        0.64985
     312 -> 316        0.26969

 The electronic state is 1-A.
 Alpha  occ. eigenvalues --  -46.93043 -46.92281 -19.26847 -19.25673 -19.20747
 Alpha  occ. eigenvalues --  -19.20709 -19.19956 -19.18956 -19.18714 -19.18413
 Alpha  occ. eigenvalues --  -14.42226 -14.41794 -14.41378 -14.40956 -14.39734
 Alpha  occ. eigenvalues --  -14.39592 -14.39437 -14.38901 -10.37016 -10.36577
 Alpha  occ. eigenvalues --  -10.32572 -10.32466 -10.31809 -10.31490 -10.29895
 Alpha  occ. eigenvalues --  -10.29608 -10.29068 -10.28931 -10.28918 -10.28612
 Alpha  occ. eigenvalues --  -10.28538 -10.28498 -10.28484 -10.28454 -10.28269
 Alpha  occ. eigenvalues --  -10.28105 -10.28036 -10.28022 -10.27425 -10.27302
 Alpha  occ. eigenvalues --  -10.26903 -10.26746 -10.26469 -10.26333 -10.26311
 Alpha  occ. eigenvalues --  -10.26284 -10.26154 -10.26092 -10.26074 -10.25984
 Alpha  occ. eigenvalues --  -10.25911 -10.25784 -10.25755 -10.25593 -10.25478
 Alpha  occ. eigenvalues --  -10.25474 -10.25432 -10.25413 -10.25352 -10.25259
 Alpha  occ. eigenvalues --  -10.25243 -10.25184 -10.25182 -10.25091 -10.25063
 Alpha  occ. eigenvalues --  -10.24901 -10.24892 -10.24792 -10.24682 -10.24288
 Alpha  occ. eigenvalues --  -10.24238 -10.24147 -10.23996 -10.23993 -10.23968
 Alpha  occ. eigenvalues --  -10.23930 -10.23888 -10.23745 -10.23720 -10.23687
 Alpha  occ. eigenvalues --  -10.23508 -10.23252 -10.23123 -10.22518 -10.22277
 Alpha  occ. eigenvalues --  -10.21935  -3.15047  -3.14414  -1.87894  -1.87425
 Alpha  occ. eigenvalues --   -1.87256  -1.87243  -1.86776  -1.86654  -1.11425
 Alpha  occ. eigenvalues --   -1.11231  -1.05566  -1.05283  -1.04671  -1.03724
 Alpha  occ. eigenvalues --   -1.02895  -1.01975  -1.00104  -0.99394  -0.99297
 Alpha  occ. eigenvalues --   -0.98442  -0.98325  -0.98297  -0.97459  -0.97022
 Alpha  occ. eigenvalues --   -0.87762  -0.87474  -0.83661  -0.83660  -0.83484
 Alpha  occ. eigenvalues --   -0.83114  -0.82602  -0.82455  -0.82405  -0.82279
 Alpha  occ. eigenvalues --   -0.81807  -0.80878  -0.80332  -0.80198  -0.79423
 Alpha  occ. eigenvalues --   -0.78930  -0.78357  -0.78099  -0.77338  -0.76968
 Alpha  occ. eigenvalues --   -0.76773  -0.76202  -0.75687  -0.75686  -0.75235
 Alpha  occ. eigenvalues --   -0.74782  -0.72571  -0.72100  -0.71947  -0.71712
 Alpha  occ. eigenvalues --   -0.71275  -0.71182  -0.70569  -0.70549  -0.69839
 Alpha  occ. eigenvalues --   -0.69699  -0.67790  -0.67658  -0.66654  -0.66492
 Alpha  occ. eigenvalues --   -0.64156  -0.63831  -0.63783  -0.63427  -0.62839
 Alpha  occ. eigenvalues --   -0.62313  -0.61206  -0.61061  -0.60579  -0.60503
 Alpha  occ. eigenvalues --   -0.60141  -0.60122  -0.59641  -0.59432  -0.59281
 Alpha  occ. eigenvalues --   -0.59123  -0.57487  -0.57317  -0.54711  -0.54708
 Alpha  occ. eigenvalues --   -0.54554  -0.54545  -0.54043  -0.53875  -0.53460
 Alpha  occ. eigenvalues --   -0.53343  -0.53118  -0.52910  -0.52249  -0.52212
 Alpha  occ. eigenvalues --   -0.51111  -0.50764  -0.50417  -0.50411  -0.50146
 Alpha  occ. eigenvalues --   -0.49943  -0.49491  -0.49428  -0.49106  -0.48970
 Alpha  occ. eigenvalues --   -0.48611  -0.48306  -0.48158  -0.47959  -0.47831
 Alpha  occ. eigenvalues --   -0.47551  -0.47533  -0.47338  -0.47088  -0.46595
 Alpha  occ. eigenvalues --   -0.46571  -0.46319  -0.46308  -0.46138  -0.45918
 Alpha  occ. eigenvalues --   -0.45865  -0.45470  -0.45332  -0.45158  -0.44981
 Alpha  occ. eigenvalues --   -0.44951  -0.44881  -0.44569  -0.44528  -0.44511
 Alpha  occ. eigenvalues --   -0.44215  -0.44023  -0.43971  -0.43767  -0.43471
 Alpha  occ. eigenvalues --   -0.43364  -0.43147  -0.42880  -0.42777  -0.42550
 Alpha  occ. eigenvalues --   -0.42423  -0.42347  -0.42318  -0.42250  -0.42149
 Alpha  occ. eigenvalues --   -0.42034  -0.41926  -0.41772  -0.41744  -0.41363
 Alpha  occ. eigenvalues --   -0.41134  -0.41126  -0.41112  -0.40878  -0.40779
 Alpha  occ. eigenvalues --   -0.40681  -0.40573  -0.40363  -0.40135  -0.40044
 Alpha  occ. eigenvalues --   -0.39869  -0.39777  -0.39373  -0.39304  -0.39048
 Alpha  occ. eigenvalues --   -0.38657  -0.38560  -0.38424  -0.38398  -0.38343
 Alpha  occ. eigenvalues --   -0.38200  -0.38088  -0.38030  -0.37913  -0.37803
 Alpha  occ. eigenvalues --   -0.37756  -0.37642  -0.37637  -0.37266  -0.37217
 Alpha  occ. eigenvalues --   -0.37171  -0.36836  -0.36688  -0.36418  -0.36404
 Alpha  occ. eigenvalues --   -0.36117  -0.35907  -0.35692  -0.35475  -0.35272
 Alpha  occ. eigenvalues --   -0.35232  -0.35173  -0.34753  -0.34662  -0.33928
 Alpha  occ. eigenvalues --   -0.33743  -0.33736  -0.33214  -0.33052  -0.32692
 Alpha  occ. eigenvalues --   -0.32634  -0.32574  -0.31965  -0.31520  -0.31512
 Alpha  occ. eigenvalues --   -0.31145  -0.30854  -0.30156  -0.29912  -0.29576
 Alpha  occ. eigenvalues --   -0.29265  -0.29260  -0.28629  -0.27403  -0.26984
 Alpha  occ. eigenvalues --   -0.26106  -0.26034  -0.25810  -0.25705  -0.25609
 Alpha  occ. eigenvalues --   -0.25192  -0.25130  -0.24895  -0.21563  -0.21139
 Alpha  occ. eigenvalues --   -0.19281  -0.18937
 Alpha virt. eigenvalues --   -0.11517  -0.11343  -0.05486  -0.05213  -0.03919
 Alpha virt. eigenvalues --   -0.03325  -0.02033  -0.01730  -0.00741  -0.00542
 Alpha virt. eigenvalues --   -0.00181   0.00284   0.00664   0.00903   0.01817

 Mulliken charges:
               1
     1  Mg  12.000017
     2  C    6.000129
     3  C    5.999973
     4  C    5.999804
     5  C    6.000003
     6  N    6.999984
     7  C    5.999803
     8  C    6.000047
     9  C    5.999997
    10  C    6.000145
    11  C    5.999981
    12  C    6.000010
    13  C    5.999999
    14  H    0.999996
    15  N    6.999954
    16  C    6.000210
    17  C    6.000085
    18  C    6.000059
    19  C    6.000232
    20  C    5.999977
    21  C    6.000076
    22  O    8.000114
    23  C    5.999989
    24  N    6.999963
    25  C    6.000258
    26  C    5.999942
    27  C    6.000033
    28  C    5.999867
    29  C    6.000003
    30  C    6.000024
    31  C    6.000016
    32  N    6.999999
    33  C    5.999876
    34  C    5.999803
    35  C    6.000012
    36  C    5.999837
    37  C    6.000017
    38  C    5.999912
    39  O    7.999827
    40  C    5.999971
    41  C    5.999982
    42  O    7.999981
    43  O    7.999983
    44  C    6.000017
    45  H    1.000077
    46  H    1.000049
    47  H    0.999947
    48  H    1.000004
    49  H    1.000005
    50  H    1.000033
    51  H    1.000075
    52  H    0.999986
    53  H    0.999962
    54  H    1.000029
    55  H    1.000006
    56  H    0.999981
    57  H    1.000080
    58  H    1.000098
    59  H    1.000101
    60  H    1.000040
    61  H    1.000078
    62  H    1.000046
    63  H    0.999996
    64  H    0.999984
    65  H    0.999997
    66  H    0.999994
    67  H    1.000040
    68  H    0.999998
    69  H    0.999950
    70  H    0.999968
    71  H    0.999998
    72  H    0.999998
    73  H    0.999883
    74  H    0.999902
    75  H    0.999887
    76  H    0.999956
    77  H    0.999977
    78  H    0.999984
    79  H    0.999981
    80  Mg  11.999541
    81  C    6.013584
    82  C    5.981819
    83  C    5.984618
    84  C    6.019749
    85  N    6.995797
    86  C    5.973952
    87  C    6.007251
    88  C    5.991444
    89  C    6.029696
    90  C    5.997783
    91  C    6.007250
    92  C    6.000588
    93  H    0.990312
    94  N    6.997063
    95  C    6.045736
    96  C    6.019526
    97  C    6.011724
    98  C    6.031524
    99  C    5.996088
   100  C    6.012830
   101  O    8.021996
   102  C    6.001845
   103  N    7.000130
   104  C    6.031297
   105  C    5.989648
   106  C    6.010717
   107  C    5.965624
   108  C    5.998559
   109  C    6.001543
   110  C    6.001114
   111  N    7.000473
   112  C    5.964752
   113  C    5.972396
   114  C    5.995761
   115  C    5.972254
   116  C    5.998815
   117  C    5.984183
   118  O    7.973629
   119  C    5.996027
   120  C    5.995018
   121  O    7.995620
   122  O    7.997494
   123  C    6.002240
   124  H    1.008153
   125  H    1.007216
   126  H    0.993620
   127  H    1.000357
   128  H    1.001953
   129  H    0.995108
   130  H    1.001442
   131  H    1.012226
   132  H    0.988147
   133  H    1.005152
   134  H    1.003479
   135  H    1.000061
   136  H    1.018906
   137  H    1.019497
   138  H    1.013211
   139  H    1.010434
   140  H    1.011478
   141  H    1.007504
   142  H    1.001070
   143  H    0.997861
   144  H    1.005276
   145  H    0.992614
   146  H    1.006806
   147  H    1.005755
   148  H    0.990957
   149  H    1.002153
   150  H    0.994371
   151  H    0.998774
   152  H    0.987372
   153  H    0.981394
   154  H    0.981474
   155  H    0.990611
   156  H    0.998164
   157  H    0.993560
   158  H    0.994837
 Sum of Mulliken charges = 624.00000

 Dipole moment (field-independent basis, Debye):
    X=             -4.8921    Y=              8.9666    Z=              1.6894  Tot=             10.3531
 Quadrupole moment (field-independent basis, Debye-Ang):
   XX=           -276.7403   YY=             10.4033   ZZ=             -1.2479
   XY=            255.1228   XZ=             49.2880   YZ=              1.0596

 Normal termination of Gaussian 16 at Fri Oct 15 15:39:04 2021.
