 Gaussian 16, Revision A.03,
 Gaussian 16:  ES64L-G16RevA.03 25-Dec-2016

 --------------------------------------------------------
 #p PBE1PBE/Def2SVP td=(nstates=5) density=(transition=1)
 --------------------------------------------------------

 --------------------------------
 TDDFT excited states in gaussian
 --------------------------------
 Symbolic Z-matrix:
 Charge =  0 Multiplicity = 1

                         Standard orientation:
 ---------------------------------------------------------------------
 Center     Atomic      Atomic             Coordinates (Angstroms)
 Number     Number       Type             X           Y           Z
 ---------------------------------------------------------------------
      1         12           0      -24.844633    0.560596   -0.029491
      2          6           0      -21.724579   -0.621489    0.790112
      3          6           0      -26.213862   -2.445544    1.292613
      4          6           0      -27.905126    1.325569   -1.245169
      5          6           0      -23.525412    3.232297   -1.569722
      6          7           0      -24.043516   -1.324237    0.930594
      7          6           0      -22.709139   -1.552886    1.134356
      8          6           0      -22.485675   -2.857378    1.902669
      9          6           0      -23.954076   -3.486427    1.853091
     10          6           0      -24.797910   -2.362444    1.327002
     11          6           0      -24.050942   -4.834128    1.048095
     12          6           0      -21.966648   -2.640537    3.397115
     13          6           0      -20.865275   -3.474819    4.005673
     14          1           0      -20.923565   -4.952083    3.841800
     15          7           0      -26.838075   -0.386223    0.046019
     16          6           0      -27.201745   -1.472908    0.761948
     17          6           0      -28.616687   -1.637761    0.776604
     18          6           0      -29.152753   -0.520479    0.061792
     19          6           0      -27.929417    0.150629   -0.470561
     20          6           0      -29.189468   -2.850408    1.436473
     21          6           0      -30.599896   -0.223034   -0.292094
     22          8           0      -30.913886    0.613327   -1.144731
     23          6           0      -31.725684   -0.977116    0.393612
     24          7           0      -25.610684    2.010047   -1.388992
     25          6           0      -26.937329    2.190411   -1.622448
     26          6           0      -27.179379    3.492111   -2.384695
     27          6           0      -25.763357    4.181125   -2.322100
     28          6           0      -24.905714    3.086754   -1.717983
     29          6           0      -27.839382    3.491631   -3.795223
     30          6           0      -25.682626    5.580478   -1.580679
     31          6           0      -25.332942    5.649750   -0.109194
     32          7           0      -23.031807    1.155568   -0.432253
     33          6           0      -22.570623    2.341141   -0.945677
     34          6           0      -21.156341    2.420238   -0.998364
     35          6           0      -20.766977    1.294714   -0.279016
     36          6           0      -21.941252    0.574825    0.060728
     37          6           0      -20.189473    3.465259   -1.539694
     38          6           0      -19.685328    0.556158    0.207507
     39          8           0      -18.497093    0.780260    0.067413
     40          6           0      -20.224267   -0.796022    0.942278
     41          6           0      -19.665329   -1.941529    0.234992
     42          8           0      -19.912020   -2.265158   -0.943733
     43          8           0      -18.767180   -2.646913    0.972293
     44          6           0      -17.901175   -3.618231    0.294553
     45          1           0      -26.522168   -3.360610    1.801842
     46          1           0      -28.901602    1.742759   -1.403375
     47          1           0      -23.098247    4.225346   -1.719295
     48          1           0      -21.697873   -3.420521    1.400701
     49          1           0      -24.297696   -3.772404    2.847338
     50          1           0      -24.415664   -5.600706    1.730928
     51          1           0      -23.051395   -4.979589    0.638037
     52          1           0      -24.809651   -4.856133    0.265216
     53          1           0      -22.884737   -2.801803    3.962370
     54          1           0      -21.805375   -1.583211    3.604573
     55          1           0      -20.721228   -3.196819    5.049712
     56          1           0      -19.966834   -3.217590    3.445822
     57          1           0      -30.022850   -2.475482    2.029496
     58          1           0      -28.478386   -3.279016    2.143138
     59          1           0      -29.528655   -3.646730    0.773081
     60          1           0      -31.582394   -1.109759    1.466388
     61          1           0      -31.978338   -1.865335   -0.187089
     62          1           0      -32.582790   -0.308770    0.305869
     63          1           0      -27.948273    3.983738   -1.788318
     64          1           0      -25.407976    4.503996   -3.299929
     65          1           0      -27.104283    3.753867   -4.555982
     66          1           0      -28.610078    4.261823   -3.769662
     67          1           0      -28.246129    2.489855   -3.929003
     68          1           0      -26.656312    6.051616   -1.708028
     69          1           0      -24.942650    6.213872   -2.070434
     70          1           0      -26.062733    6.231578    0.454309
     71          1           0      -24.344207    6.067286    0.085578
     72          1           0      -25.340551    4.612598    0.226054
     73          1           0      -20.759572    4.310033   -1.928171
     74          1           0      -19.572753    3.013010   -2.316781
     75          1           0      -19.544944    3.793609   -0.724783
     76          1           0      -19.730353   -0.696001    1.909225
     77          1           0      -16.973680   -3.832947    0.825534
     78          1           0      -17.719843   -3.429023   -0.763048
     79          1           0      -18.416611   -4.572629    0.403147
     80         12           0       25.051927    0.033618    0.297216
     81          6           0       21.741114   -1.091338   -0.110745
     82          6           0       25.644293   -1.132738   -2.924977
     83          6           0       28.069347    1.440572    0.382182
     84          6           0       23.969600    1.881959    3.027710
     85          7           0       23.720876   -0.853417   -1.364356
     86          6           0       22.435200   -1.353999   -1.298431
     87          6           0       22.052209   -2.308893   -2.409526
     88          6           0       23.316427   -2.339861   -3.301169
     89          6           0       24.297348   -1.393457   -2.534461
     90          6           0       23.916056   -3.785897   -3.533509
     91          6           0       20.762774   -1.925707   -3.264316
     92          6           0       20.446059   -0.434345   -3.462142
     93          1           0       20.759569    0.210474   -4.844711
     94          7           0       26.601592    0.125929   -1.051011
     95          6           0       26.681232   -0.457595   -2.283442
     96          6           0       28.025356   -0.261561   -2.844583
     97          6           0       28.760294    0.494341   -1.880638
     98          6           0       27.781263    0.727768   -0.774938
     99          6           0       28.466057   -0.816514   -4.193871
    100          6           0       30.223012    0.962144   -2.226669
    101          8           0       30.665393    0.687342   -3.333391
    102          6           0       31.046229    1.842079   -1.194645
    103          7           0       25.830856    1.524942    1.437217
    104          6           0       27.186351    1.844113    1.402457
    105          6           0       27.569570    2.860892    2.619722
    106          6           0       26.113576    3.047725    3.313552
    107          6           0       25.267806    2.085667    2.543065
    108          6           0       28.655451    2.276583    3.570511
    109          6           0       25.520741    4.520826    3.261006
    110          6           0       25.028037    5.171768    4.562744
    111          7           0       23.254859    0.272619    1.380050
    112          6           0       22.928672    1.053497    2.459163
    113          6           0       21.494156    0.862362    2.760132
    114          6           0       21.037798   -0.088467    1.808247
    115          6           0       22.158000   -0.359983    0.973940
    116          6           0       20.679894    1.539705    3.827378
    117          6           0       19.818217   -0.778120    1.346901
    118          8           0       18.672739   -0.865926    1.812768
    119          6           0       20.313171   -1.618492    0.179169
    120          6           0       20.213403   -3.018346    0.421361
    121          8           0       21.053564   -3.634862    1.126587
    122          8           0       19.108182   -3.581034   -0.247382
    123          6           0       18.958379   -5.032641   -0.234396
    124          1           0       25.938341   -1.625806   -3.853537
    125          1           0       29.096429    1.784160    0.518799
    126          1           0       23.725209    2.447083    3.929082
    127          1           0       21.877646   -3.239025   -1.870037
    128          1           0       23.053158   -1.780179   -4.197963
    129          1           0       23.769170   -4.076215   -4.573780
    130          1           0       23.371054   -4.446840   -2.859011
    131          1           0       24.986749   -3.810901   -3.328092
    132          1           0       19.969659   -2.347405   -2.645568
    133          1           0       20.793878   -2.459863   -4.214230
    134          1           0       20.950150    0.168603   -2.706132
    135          1           0       19.390804   -0.281505   -3.239800
    136          1           0       28.509191   -0.081956   -4.998055
    137          1           0       27.939336   -1.741676   -4.428177
    138          1           0       29.471073   -1.233200   -4.129770
    139          1           0       30.953879    1.355735   -0.223245
    140          1           0       30.602473    2.837296   -1.190595
    141          1           0       32.052307    2.093767   -1.530146
    142          1           0       28.047668    3.719546    2.149244
    143          1           0       26.201568    2.679242    4.335849
    144          1           0       28.137179    1.801749    4.403334
    145          1           0       29.394004    3.017855    3.875944
    146          1           0       29.305250    1.536773    3.103316
    147          1           0       24.732035    4.510252    2.508036
    148          1           0       26.383336    5.084207    2.905175
    149          1           0       24.344999    6.000329    4.373525
    150          1           0       25.957848    5.522265    5.010180
    151          1           0       24.538300    4.357558    5.097310
    152          1           0       21.198179    2.483622    3.994029
    153          1           0       20.849474    0.895163    4.689860
    154          1           0       19.608183    1.592389    3.633397
    155          1           0       19.637679   -1.299099   -0.614124
    156          1           0       18.770967   -5.508930    0.727995
    157          1           0       19.842211   -5.501396   -0.668070
    158          1           0       18.209820   -5.269337   -0.990705
 ---------------------------------------------------------------------

 SCF Done:  E(RPBE1PBE) =  -4067.39198491     A.U. after   16 cycles

 Excitation energies and oscillator strengths:

 Excited State   1:      Singlet-A      1.8378 eV  674.64 nm  f=0.0000  <S**2>=0.000
     312 -> 313        0.70711
 This state for optimization and/or second-order correction.
 Total Energy, E(TD-HF/TD-DFT) =  -4067.32444733
 Copying the excited state density for this state as the 1-particle RhoCI density.

 Excited State   2:      Singlet-A      1.8697 eV  663.14 nm  f=0.3998  <S**2>=0.000
     309 -> 315       -0.17499
     312 -> 314        0.69122
     312 <- 314       -0.10378

 Excited State   3:      Singlet-A      1.8776 eV  660.34 nm  f=0.3626  <S**2>=0.000
     310 -> 316        0.17151
     311 -> 313        0.69246
     311 <- 313       -0.11012

 Excited State   4:      Singlet-A      2.1926 eV  565.46 nm  f=0.0000  <S**2>=0.000
     311 -> 314        0.70711

 Excited State   5:      Singlet-A      2.2058 eV  562.09 nm  f=0.1673  <S**2>=0.000
     310 -> 313        0.67021
     311 -> 316       -0.21423

 The electronic state is 1-A.
 Alpha  occ. eigenvalues --  -46.92496 -46.92342 -19.26401 -19.25683 -19.20422
 Alpha  occ. eigenvalues --  -19.19787 -19.19458 -19.19041 -19.18912 -19.18736
 Alpha  occ. eigenvalues --  -14.42049 -14.41714 -14.41616 -14.41036 -14.39520
 Alpha  occ. eigenvalues --  -14.39170 -14.39144 -14.39008 -10.36962 -10.35906
 Alpha  occ. eigenvalues --  -10.33634 -10.32525 -10.32436 -10.31723 -10.29549
 Alpha  occ. eigenvalues --  -10.29300 -10.29069 -10.28840 -10.28815 -10.28519
 Alpha  occ. eigenvalues --  -10.28449 -10.28430 -10.28429 -10.28191 -10.27957
 Alpha  occ. eigenvalues --  -10.27779 -10.27683 -10.27682 -10.27672 -10.27438
 Alpha  occ. eigenvalues --  -10.27144 -10.26732 -10.26481 -10.26285 -10.26233
 Alpha  occ. eigenvalues --  -10.26206 -10.26108 -10.26088 -10.26050 -10.25924
 Alpha  occ. eigenvalues --  -10.25922 -10.25902 -10.25896 -10.25810 -10.25785
 Alpha  occ. eigenvalues --  -10.25741 -10.25470 -10.25365 -10.25360 -10.25347
 Alpha  occ. eigenvalues --  -10.25165 -10.25135 -10.25132 -10.25008 -10.24647
 Alpha  occ. eigenvalues --  -10.24475 -10.24472 -10.24420 -10.24407 -10.24284
 Alpha  occ. eigenvalues --  -10.24266 -10.24256 -10.24247 -10.24055 -10.23879
 Alpha  occ. eigenvalues --  -10.23877 -10.23542 -10.23525 -10.23397 -10.23381
 Alpha  occ. eigenvalues --  -10.23195 -10.23016 -10.22833 -10.22821 -10.22445
 Alpha  occ. eigenvalues --  -10.22407  -3.14685  -3.14543  -1.87508  -1.87340
 Alpha  occ. eigenvalues --   -1.87019  -1.86957  -1.86934  -1.86769  -1.10603
 Alpha  occ. eigenvalues --   -1.09668  -1.05106  -1.04704  -1.04125  -1.03807
 Alpha  occ. eigenvalues --   -1.01765  -1.00610  -1.00085  -0.99317  -0.98851
 Alpha  occ. eigenvalues --   -0.98772  -0.98171  -0.98123  -0.97213  -0.96481
 Alpha  occ. eigenvalues --   -0.87514  -0.86985  -0.83478  -0.83313  -0.83083
 Alpha  occ. eigenvalues --   -0.82528  -0.82449  -0.82331  -0.82164  -0.81686
 Alpha  occ. eigenvalues --   -0.81122  -0.80730  -0.80443  -0.79803  -0.78817
 Alpha  occ. eigenvalues --   -0.78574  -0.78165  -0.78032  -0.77050  -0.76928
 Alpha  occ. eigenvalues --   -0.76001  -0.75853  -0.75488  -0.75228  -0.74600
 Alpha  occ. eigenvalues --   -0.74415  -0.72661  -0.72514  -0.71794  -0.71496
 Alpha  occ. eigenvalues --   -0.71398  -0.71000  -0.70830  -0.70541  -0.69843
 Alpha  occ. eigenvalues --   -0.69265  -0.68007  -0.66804  -0.66182  -0.65985
 Alpha  occ. eigenvalues --   -0.64014  -0.63643  -0.63639  -0.63330  -0.62829
 Alpha  occ. eigenvalues --   -0.62555  -0.61530  -0.61228  -0.60194  -0.60031
 Alpha  occ. eigenvalues --   -0.59676  -0.59673  -0.59230  -0.59102  -0.58761
 Alpha  occ. eigenvalues --   -0.58730  -0.57025  -0.56836  -0.54778  -0.54718
 Alpha  occ. eigenvalues --   -0.54402  -0.54131  -0.53646  -0.53607  -0.53216
 Alpha  occ. eigenvalues --   -0.52863  -0.52433  -0.52338  -0.51881  -0.51767
 Alpha  occ. eigenvalues --   -0.50844  -0.50658  -0.50064  -0.49858  -0.49582
 Alpha  occ. eigenvalues --   -0.49494  -0.49326  -0.48974  -0.48789  -0.48599
 Alpha  occ. eigenvalues --   -0.48384  -0.47852  -0.47761  -0.47599  -0.47228
 Alpha  occ. eigenvalues --   -0.47173  -0.47117  -0.46943  -0.46751  -0.46669
 Alpha  occ. eigenvalues --   -0.46613  -0.46157  -0.45981  -0.45795  -0.45470
 Alpha  occ. eigenvalues --   -0.45381  -0.45171  -0.45058  -0.44936  -0.44813
 Alpha  occ. eigenvalues --   -0.44548  -0.44460  -0.44145  -0.43939  -0.43918
 Alpha  occ. eigenvalues --   -0.43867  -0.43834  -0.43665  -0.43537  -0.43411
 Alpha  occ. eigenvalues --   -0.43366  -0.43215  -0.43161  -0.42923  -0.42836
 Alpha  occ. eigenvalues --   -0.42807  -0.42521  -0.42129  -0.42092  -0.41812
 Alpha  occ. eigenvalues --   -0.41783  -0.41593  -0.41344  -0.41201  -0.41131
 Alpha  occ. eigenvalues --   -0.40979  -0.40934  -0.40927  -0.40716  -0.40606
 Alpha  occ. eigenvalues --   -0.40554  -0.40091  -0.40075  -0.39752  -0.39749
 Alpha  occ. eigenvalues --   -0.39525  -0.39431  -0.39291  -0.39225  -0.38924
 Alpha  occ. eigenvalues --   -0.38831  -0.38770  -0.38695  -0.38389  -0.38197
 Alpha  occ. eigenvalues --   -0.38031  -0.37964  -0.37807  -0.37760  -0.37732
 Alpha  occ. eigenvalues --   -0.37448  -0.37250  -0.37115  -0.37063  -0.36895
 Alpha  occ. eigenvalues --   -0.36772  -0.36568  -0.36500  -0.36357  -0.36177
 Alpha  occ. eigenvalues --   -0.35996  -0.35962  -0.35524  -0.35460  -0.35233
 Alpha  occ. eigenvalues --   -0.34955  -0.34785  -0.34745  -0.34648  -0.34469
 Alpha  occ. eigenvalues --   -0.33848  -0.33429  -0.33202  -0.32600  -0.32513
 Alpha  occ. eigenvalues --   -0.32317  -0.32080  -0.32051  -0.31663  -0.31596
 Alpha  occ. eigenvalues --   -0.31107  -0.30569  -0.29979  -0.29738  -0.29064
 Alpha  occ. eigenvalues --   -0.28853  -0.28635  -0.27992  -0.26977  -0.26893
 Alpha  occ. eigenvalues --   -0.26530  -0.26201  -0.26117  -0.25973  -0.25611
 Alpha  occ. eigenvalues --   -0.25547  -0.25387  -0.25319  -0.21032  -0.20819
 Alpha  occ. eigenvalues --   -0.19065  -0.18480
 Alpha virt. eigenvalues --   -0.11458  -0.10738  -0.05271  -0.04775  -0.03970
 Alpha virt. eigenvalues --   -0.03932  -0.02388  -0.01922  -0.01163  -0.01022
 Alpha virt. eigenvalues --   -0.00963   0.00168   0.00822   0.01115   0.01824

 Mulliken charges:
               1
     1  Mg  12.000000
     2  C    6.000000
     3  C    6.000000
     4  C    6.000000
     5  C    6.000000
     6  N    7.000000
     7  C    6.000000
     8  C    6.000000
     9  C    6.000000
    10  C    6.000000
    11  C    6.000000
    12  C    6.000000
    13  C    6.000000
    14  H    1.000000
    15  N    7.000000
    16  C    6.000000
    17  C    6.000000
    18  C    6.000000
    19  C    6.000000
    20  C    6.000000
    21  C    6.000000
    22  O    8.000000
    23  C    6.000000
    24  N    7.000000
    25  C    6.000000
    26  C    6.000000
    27  C    6.000000
    28  C    6.000000
    29  C    6.000000
    30  C    6.000000
    31  C    6.000000
    32  N    7.000000
    33  C    6.000000
    34  C    6.000000
    35  C    6.000000
    36  C    6.000000
    37  C    6.000000
    38  C    6.000000
    39  O    8.000000
    40  C    6.000000
    41  C    6.000000
    42  O    8.000000
    43  O    8.000000
    44  C    6.000000
    45  H    1.000000
    46  H    1.000000
    47  H    1.000000
    48  H    1.000000
    49  H    1.000000
    50  H    1.000000
    51  H    1.000000
    52  H    1.000000
    53  H    1.000000
    54  H    1.000000
    55  H    1.000000
    56  H    1.000000
    57  H    1.000000
    58  H    1.000000
    59  H    1.000000
    60  H    1.000000
    61  H    1.000000
    62  H    1.000000
    63  H    1.000000
    64  H    1.000000
    65  H    1.000000
    66  H    1.000000
    67  H    1.000000
    68  H    1.000000
    69  H    1.000000
    70  H    1.000000
    71  H    1.000000
    72  H    1.000000
    73  H    1.000000
    74  H    1.000000
    75  H    1.000000
    76  H    1.000000
    77  H    1.000000
    78  H    1.000000
    79  H    1.000000
    80  Mg  12.000000
    81  C    6.000000
    82  C    6.000000
    83  C    6.000000
    84  C    6.000000
    85  N    7.000000
    86  C    6.000000
    87  C    6.000000
    88  C    6.000000
    89  C    6.000000
    90  C    6.000000
    91  C    6.000000
    92  C    6.000000
    93  H    1.000000
    94  N    7.000000
    95  C    6.000000
    96  C    6.000000
    97  C    6.000000
    98  C    6.000000
    99  C    6.000000
   100  C    6.000000
   101  O    8.000000
   102  C    6.000000
   103  N    7.000000
   104  C    6.000000
   105  C    6.000000
   106  C    6.000000
   107  C    6.000000
   108  C    6.000000
   109  C    6.000000
   110  C    6.000000
   111  N    7.000000
   112  C    6.000000
   113  C    6.000000
   114  C    6.000000
   115  C    6.000000
   116  C    6.000000
   117  C    6.000000
   118  O    8.000000
   119  C    6.000000
   120  C    6.000000
   121  O    8.000000
   122  O    8.000000
   123  C    6.000000
   124  H    1.000000
   125  H    1.000000
   126  H    1.000000
   127  H    1.000000
   128  H    1.000000
   129  H    1.000000
   130  H    1.000000
   131  H    1.000000
   132  H    1.000000
   133  H    1.000000
   134  H    1.000000
   135  H    1.000000
   136  H    1.000000
   137  H    1.000000
   138  H    1.000000
   139  H    1.000000
   140  H    1.000000
   141  H    1.000000
   142  H    1.000000
   143  H    1.000000
   144  H    1.000000
   145  H    1.000000
   146  H    1.000000
   147  H    1.000000
   148  H    1.000000
   149  H    1.000000
   150  H    1.000000
   151  H    1.000000
   152  H    1.000000
   153  H    1.000000
   154  H    1.000000
   155  H    1.000000
   156  H    1.000000
   157  H    1.000000
   158  H    1.000000
 Sum of Mulliken charges = 624.00000

 Dipole moment (field-independent basis, Debye):
    X=              0.0000    Y=              0.0000    Z=             -0.0000  Tot=              0.0000
 Quadrupole moment (field-independent basis, Debye-Ang):
   XX=              0.0000   YY=             -0.0000   ZZ=              0.0000
   XY=             -0.0000   XZ=             -0.0000   YZ=             -0.0000

 Normal termination of Gaussian 16 at Fri Oct 15 19:20:44 2021.
