 Gaussian 16, Revision A.03,
 Gaussian 16:  ES64L-G16RevA.03 25-Dec-2016

 --------------------------------------------------------
 #p PBE1PBE/Def2SVP td=(nstates=5) density=(transition=1)
 --------------------------------------------------------

 --------------------------------
 TDDFT excited states in gaussian
 --------------------------------
 Symbolic Z-matrix:
 Charge =  0 Multiplicity = 1

                         Standard orientation:
 ---------------------------------------------------------------------
 Center     Atomic      Atomic             Coordinates (Angstroms)
 Number     Number       Type             X           Y           Z
 ---------------------------------------------------------------------
      1         12           0       33.816531    0.561819   -0.583025
      2          6           0       31.665257   -2.256672    0.362356
      3          6           0       31.370075    2.533514    0.868509
      4          6           0       36.025538    2.854978   -0.405321
      5          6           0       36.206802   -1.940873   -1.549929
      6          7           0       31.743123    0.090214    0.655257
      7          6           0       31.082654   -1.095268    0.893320
      8          6           0       29.819783   -0.816946    1.788008
      9          6           0       29.605750    0.703576    1.690996
     10          6           0       30.972269    1.141692    1.039420
     11          6           0       28.402344    1.245300    0.812797
     12          6           0       29.948858   -1.367841    3.249425
     13          6           0       28.702571   -1.982603    3.849131
     14          1           0       27.905565   -1.104551    4.864201
     15          7           0       33.700531    2.448485    0.003783
     16          6           0       32.611032    3.133049    0.469496
     17          6           0       32.983439    4.547941    0.743698
     18          6           0       34.355975    4.625074    0.390913
     19          6           0       34.755744    3.270762    0.016795
     20          6           0       32.091871    5.641014    1.355263
     21          6           0       35.330189    5.787943    0.600133
     22          8           0       34.865075    6.838917    1.032836
     23          6           0       36.707805    5.750607    0.303533
     24          7           0       35.926779    0.374439   -0.686247
     25          6           0       36.546436    1.600362   -0.826407
     26          6           0       38.032310    1.345988   -1.292006
     27          6           0       38.139296   -0.220271   -1.345085
     28          6           0       36.642501   -0.608926   -1.286284
     29          6           0       38.450632    2.038491   -2.618080
     30          6           0       39.023841   -0.963226   -0.264380
     31          6           0       40.547994   -0.991900   -0.472697
     32          7           0       33.986627   -1.645662   -0.672560
     33          6           0       34.960476   -2.466528   -1.205266
     34          6           0       34.526424   -3.840742   -1.275580
     35          6           0       33.211924   -3.801779   -0.676452
     36          6           0       32.896492   -2.464005   -0.251603
     37          6           0       35.375113   -4.966723   -1.780427
     38          6           0       32.151206   -4.612743   -0.274554
     39          8           0       32.044983   -5.830592   -0.222382
     40          6           0       31.167103   -3.707463    0.521513
     41          6           0       29.839378   -3.885559   -0.177200
     42          8           0       28.787040   -4.133729    0.416591
     43          8           0       29.835422   -3.581612   -1.597980
     44          6           0       28.483246   -3.420666   -2.130184
     45          1           0       30.583398    3.185038    1.253377
     46          1           0       36.833327    3.570931   -0.570649
     47          1           0       37.004641   -2.568320   -1.952480
     48          1           0       28.940296   -1.204474    1.271806
     49          1           0       29.593837    1.174739    2.673825
     50          1           0       27.665163    1.585868    1.539594
     51          1           0       27.937624    0.441386    0.242693
     52          1           0       28.661216    2.006968    0.077379
     53          1           0       30.154482   -0.609196    4.005025
     54          1           0       30.704702   -2.152300    3.292880
     55          1           0       28.992592   -2.950901    4.257079
     56          1           0       28.009816   -2.181724    3.030867
     57          1           0       32.275326    6.590765    0.852145
     58          1           0       32.357279    5.631098    2.412347
     59          1           0       31.037416    5.421766    1.193064
     60          1           0       36.816847    5.661656   -0.777816
     61          1           0       37.274688    4.997978    0.851612
     62          1           0       37.034427    6.695114    0.739994
     63          1           0       38.779970    1.678865   -0.572857
     64          1           0       38.459823   -0.562875   -2.328649
     65          1           0       38.782397    1.229032   -3.268464
     66          1           0       39.281073    2.710691   -2.404438
     67          1           0       37.540147    2.548409   -2.935259
     68          1           0       38.641305   -1.984157   -0.287462
     69          1           0       38.926174   -0.488893    0.712351
     70          1           0       40.625577   -0.507418   -1.446443
     71          1           0       40.905370   -2.009564   -0.636357
     72          1           0       41.160663   -0.477828    0.267493
     73          1           0       36.273713   -4.945636   -1.165244
     74          1           0       35.747367   -4.810801   -2.792798
     75          1           0       34.948791   -5.947539   -1.569494
     76          1           0       31.087828   -4.132512    1.521902
     77          1           0       28.772513   -2.775051   -2.960270
     78          1           0       27.779783   -3.078343   -1.371231
     79          1           0       28.211213   -4.382156   -2.565832
     80         12           0      -33.914108   -0.332984   -0.481700
     81          6           0      -30.946732    1.374037   -0.023237
     82          6           0      -32.344659   -3.174980    0.662947
     83          6           0      -36.977008   -1.883327   -0.362198
     84          6           0      -35.440720    2.576682   -1.508582
     85          7           0      -31.960764   -0.793690    0.417090
     86          6           0      -30.888131    0.076082    0.423486
     87          6           0      -29.623803   -0.583911    0.967263
     88          6           0      -30.005225   -2.106991    0.853807
     89          6           0      -31.514733   -2.018977    0.682846
     90          6           0      -29.235419   -2.976128   -0.240828
     91          6           0      -29.149057   -0.117092    2.380288
     92          6           0      -27.666758    0.159360    2.517868
     93          1           0      -26.970075   -0.871292    3.392622
     94          7           0      -34.525960   -2.235463    0.087701
     95          6           0      -33.749499   -3.246756    0.492772
     96          6           0      -34.534078   -4.453849    0.686636
     97          6           0      -35.871517   -4.203725    0.428460
     98          6           0      -35.872300   -2.718450    0.078754
     99          6           0      -33.894849   -5.820539    1.226649
    100          6           0      -37.044954   -5.240803    0.431258
    101          8           0      -36.800964   -6.429933    0.782039
    102          6           0      -38.432500   -4.856210    0.085678
    103          7           0      -36.040382    0.335877   -0.655408
    104          6           0      -37.052778   -0.496524   -0.736276
    105          6           0      -38.282048    0.131586   -1.359017
    106          6           0      -37.908467    1.618082   -1.682043
    107          6           0      -36.343193    1.535370   -1.344196
    108          6           0      -39.108173   -0.657245   -2.424601
    109          6           0      -38.601726    2.789676   -0.927969
    110          6           0      -38.445138    4.121501   -1.632321
    111          7           0      -33.316354    1.631239   -0.715454
    112          6           0      -34.039349    2.729361   -1.236094
    113          6           0      -33.128623    3.833837   -1.367117
    114          6           0      -31.865918    3.360507   -0.934392
    115          6           0      -32.086873    2.048420   -0.525020
    116          6           0      -33.397988    5.150891   -2.079606
    117          6           0      -30.550963    3.748096   -0.793750
    118          8           0      -29.944725    4.778905   -0.903185
    119          6           0      -29.877880    2.490036   -0.034125
    120          6           0      -29.800212    2.941213    1.423598
    121          8           0      -30.717586    2.924496    2.221550
    122          8           0      -28.503877    3.381962    1.635783
    123          6           0      -28.235359    3.964840    2.946429
    124          1           0      -31.865251   -4.142672    0.823789
    125          1           0      -37.914367   -2.440924   -0.314459
    126          1           0      -35.751729    3.527031   -1.947373
    127          1           0      -28.828926   -0.410113    0.242538
    128          1           0      -29.928842   -2.520919    1.859916
    129          1           0      -29.944072   -3.786171   -0.412939
    130          1           0      -28.356141   -3.497533    0.138280
    131          1           0      -28.951625   -2.468016   -1.162347
    132          1           0      -29.436243   -0.948912    3.023804
    133          1           0      -29.731724    0.666960    2.863442
    134          1           0      -27.562567    1.159376    2.939451
    135          1           0      -27.147478    0.139686    1.559509
    136          1           0      -32.832759   -5.772444    1.470637
    137          1           0      -34.036542   -6.621929    0.500760
    138          1           0      -34.291435   -6.124950    2.194242
    139          1           0      -38.459019   -4.465639   -0.931108
    140          1           0      -38.882524   -4.235830    0.860843
    141          1           0      -38.940249   -5.809997   -0.052311
    142          1           0      -39.096353    0.354546   -0.669291
    143          1           0      -37.821175    1.803252   -2.752907
    144          1           0      -38.747531   -1.685765   -2.378907
    145          1           0      -39.096768   -0.203452   -3.416251
    146          1           0      -40.173618   -0.725144   -2.204320
    147          1           0      -38.197825    2.775263    0.084243
    148          1           0      -39.639348    2.469381   -0.834449
    149          1           0      -39.334772    4.713053   -1.414739
    150          1           0      -38.351822    4.067665   -2.717632
    151          1           0      -37.631618    4.676000   -1.164473
    152          1           0      -32.506871    5.759138   -2.234938
    153          1           0      -34.146971    5.690252   -1.501214
    154          1           0      -33.838190    4.985637   -3.063040
    155          1           0      -28.948079    2.185765   -0.515725
    156          1           0      -28.807797    4.885808    3.058256
    157          1           0      -27.170145    4.126884    3.107652
    158          1           0      -28.607297    3.296812    3.722772
 ---------------------------------------------------------------------

 SCF Done:  E(RPBE1PBE) =  -4067.32393685     A.U. after   17 cycles

 Excitation energies and oscillator strengths:

 Excited State   1:      Singlet-A      1.8703 eV  662.91 nm  f=0.3373  <S**2>=0.000
     309 -> 315        0.19149
     311 -> 313        0.68645
 This state for optimization and/or second-order correction.
 Total Energy, E(TD-HF/TD-DFT) =  -4067.25520415
 Copying the excited state density for this state as the 1-particle RhoCI density.

 Excited State   2:      Singlet-A      1.8858 eV  657.46 nm  f=0.3632  <S**2>=0.000
     310 -> 316        0.14502
     312 -> 314        0.69236

 Excited State   3:      Singlet-A      2.0166 eV  614.81 nm  f=0.0000  <S**2>=0.000
     312 -> 313        0.70711

 Excited State   4:      Singlet-A      2.1302 eV  582.04 nm  f=0.0000  <S**2>=0.000
     311 -> 314        0.70711

 Excited State   5:      Singlet-A      2.2322 eV  555.44 nm  f=0.0731  <S**2>=0.000
     308 -> 313       -0.10212
     309 -> 313        0.63201
     311 -> 315       -0.29400

 The electronic state is 1-A.
 Alpha  occ. eigenvalues --  -46.94137 -46.92789 -19.25316 -19.24378 -19.20332
 Alpha  occ. eigenvalues --  -19.20268 -19.20070 -19.18931 -19.18469 -19.18182
 Alpha  occ. eigenvalues --  -14.42080 -14.41716 -14.41637 -14.41581 -14.40325
 Alpha  occ. eigenvalues --  -14.39972 -14.38910 -14.38413 -10.36459 -10.36296
 Alpha  occ. eigenvalues --  -10.33825 -10.31972 -10.30938 -10.30703 -10.30218
 Alpha  occ. eigenvalues --  -10.29927 -10.29679 -10.29558 -10.29465 -10.29075
 Alpha  occ. eigenvalues --  -10.29007 -10.28868 -10.28786 -10.28536 -10.28469
 Alpha  occ. eigenvalues --  -10.28115 -10.28002 -10.27842 -10.27245 -10.27149
 Alpha  occ. eigenvalues --  -10.27131 -10.26860 -10.26835 -10.26678 -10.26661
 Alpha  occ. eigenvalues --  -10.26648 -10.26359 -10.26196 -10.26122 -10.26119
 Alpha  occ. eigenvalues --  -10.26046 -10.26012 -10.26004 -10.25967 -10.25965
 Alpha  occ. eigenvalues --  -10.25827 -10.25818 -10.25524 -10.25400 -10.25320
 Alpha  occ. eigenvalues --  -10.25259 -10.25132 -10.25070 -10.25049 -10.24654
 Alpha  occ. eigenvalues --  -10.24557 -10.24550 -10.24530 -10.24526 -10.24522
 Alpha  occ. eigenvalues --  -10.24501 -10.24449 -10.24433 -10.24410 -10.24283
 Alpha  occ. eigenvalues --  -10.24100 -10.23955 -10.23831 -10.23751 -10.23623
 Alpha  occ. eigenvalues --  -10.23511 -10.23337 -10.23303 -10.23114 -10.23082
 Alpha  occ. eigenvalues --  -10.21436  -3.16130  -3.14811  -1.88912  -1.88556
 Alpha  occ. eigenvalues --   -1.88317  -1.87634  -1.87188  -1.87038  -1.10362
 Alpha  occ. eigenvalues --   -1.08669  -1.05106  -1.05031  -1.03797  -1.03479
 Alpha  occ. eigenvalues --   -1.02885  -1.01182  -0.99566  -0.99160  -0.98373
 Alpha  occ. eigenvalues --   -0.98006  -0.97897  -0.97894  -0.97206  -0.95841
 Alpha  occ. eigenvalues --   -0.87315  -0.86229  -0.83470  -0.83253  -0.83200
 Alpha  occ. eigenvalues --   -0.82774  -0.82756  -0.82172  -0.81374  -0.81271
 Alpha  occ. eigenvalues --   -0.81123  -0.80571  -0.80356  -0.80349  -0.79236
 Alpha  occ. eigenvalues --   -0.78645  -0.78122  -0.77929  -0.77929  -0.77228
 Alpha  occ. eigenvalues --   -0.76836  -0.76348  -0.75532  -0.75187  -0.74595
 Alpha  occ. eigenvalues --   -0.74236  -0.72517  -0.71978  -0.71670  -0.71344
 Alpha  occ. eigenvalues --   -0.71318  -0.70925  -0.70138  -0.69746  -0.69613
 Alpha  occ. eigenvalues --   -0.69477  -0.67342  -0.66937  -0.66385  -0.66110
 Alpha  occ. eigenvalues --   -0.64083  -0.63505  -0.63478  -0.63044  -0.62477
 Alpha  occ. eigenvalues --   -0.62158  -0.61607  -0.61383  -0.60020  -0.60014
 Alpha  occ. eigenvalues --   -0.59907  -0.59838  -0.59476  -0.59213  -0.58706
 Alpha  occ. eigenvalues --   -0.58608  -0.56404  -0.56393  -0.54885  -0.54430
 Alpha  occ. eigenvalues --   -0.54353  -0.54144  -0.53778  -0.53564  -0.53516
 Alpha  occ. eigenvalues --   -0.52986  -0.52523  -0.52062  -0.51853  -0.51548
 Alpha  occ. eigenvalues --   -0.51218  -0.50829  -0.50276  -0.50125  -0.49690
 Alpha  occ. eigenvalues --   -0.49357  -0.48736  -0.48716  -0.48427  -0.48337
 Alpha  occ. eigenvalues --   -0.48301  -0.48120  -0.48089  -0.48023  -0.47852
 Alpha  occ. eigenvalues --   -0.47759  -0.47471  -0.47210  -0.47120  -0.46602
 Alpha  occ. eigenvalues --   -0.46601  -0.46412  -0.46198  -0.45913  -0.45703
 Alpha  occ. eigenvalues --   -0.45596  -0.45470  -0.45243  -0.45221  -0.44744
 Alpha  occ. eigenvalues --   -0.44537  -0.44516  -0.44497  -0.44262  -0.44061
 Alpha  occ. eigenvalues --   -0.43974  -0.43873  -0.43741  -0.43624  -0.43375
 Alpha  occ. eigenvalues --   -0.43305  -0.43250  -0.43038  -0.42864  -0.42850
 Alpha  occ. eigenvalues --   -0.42634  -0.42407  -0.42254  -0.42014  -0.41871
 Alpha  occ. eigenvalues --   -0.41600  -0.41464  -0.41258  -0.41140  -0.41034
 Alpha  occ. eigenvalues --   -0.40912  -0.40815  -0.40606  -0.40595  -0.40161
 Alpha  occ. eigenvalues --   -0.40081  -0.40020  -0.39925  -0.39750  -0.39570
 Alpha  occ. eigenvalues --   -0.39496  -0.39437  -0.39275  -0.39150  -0.38939
 Alpha  occ. eigenvalues --   -0.38874  -0.38800  -0.38730  -0.38507  -0.38483
 Alpha  occ. eigenvalues --   -0.38244  -0.38051  -0.37852  -0.37498  -0.37412
 Alpha  occ. eigenvalues --   -0.37377  -0.37362  -0.37177  -0.37147  -0.37066
 Alpha  occ. eigenvalues --   -0.36856  -0.36846  -0.36739  -0.36452  -0.36368
 Alpha  occ. eigenvalues --   -0.36168  -0.35843  -0.35360  -0.35185  -0.35092
 Alpha  occ. eigenvalues --   -0.35064  -0.34893  -0.34843  -0.34262  -0.34185
 Alpha  occ. eigenvalues --   -0.33947  -0.33805  -0.33029  -0.32883  -0.32561
 Alpha  occ. eigenvalues --   -0.32435  -0.32165  -0.31543  -0.31413  -0.31351
 Alpha  occ. eigenvalues --   -0.30476  -0.30259  -0.29672  -0.29641  -0.29256
 Alpha  occ. eigenvalues --   -0.29228  -0.28695  -0.28413  -0.27214  -0.27111
 Alpha  occ. eigenvalues --   -0.26764  -0.26657  -0.26388  -0.26078  -0.25301
 Alpha  occ. eigenvalues --   -0.25168  -0.24929  -0.24437  -0.21384  -0.20862
 Alpha  occ. eigenvalues --   -0.19111  -0.18941
 Alpha virt. eigenvalues --   -0.11334  -0.11088  -0.06112  -0.05468  -0.04377
 Alpha virt. eigenvalues --   -0.03909  -0.02511  -0.02421  -0.02154  -0.00928
 Alpha virt. eigenvalues --    0.00092   0.00138   0.00893   0.01268   0.01377

 Mulliken charges:
               1
     1  Mg  12.003228
     2  C    5.985015
     3  C    5.999341
     4  C    6.028441
     5  C    5.988960
     6  N    6.990238
     7  C    6.027182
     8  C    5.994674
     9  C    6.004034
    10  C    5.973798
    11  C    6.006887
    12  C    5.998455
    13  C    5.998706
    14  H    1.008092
    15  N    7.007451
    16  C    5.966490
    17  C    5.975152
    18  C    5.997075
    19  C    5.962915
    20  C    6.000907
    21  C    5.987104
    22  O    7.983285
    23  C    6.003849
    24  N    7.000937
    25  C    5.962277
    26  C    6.010478
    27  C    5.994668
    28  C    6.032569
    29  C    6.000666
    30  C    5.996919
    31  C    6.001235
    32  N    6.996644
    33  C    6.027493
    34  C    6.036569
    35  C    5.993148
    36  C    6.037821
    37  C    5.999370
    38  C    6.016661
    39  O    8.027802
    40  C    5.998201
    41  C    6.003706
    42  O    8.009134
    43  O    7.996489
    44  C    5.998631
    45  H    0.988423
    46  H    0.993790
    47  H    1.008296
    48  H    0.998941
    49  H    0.999856
    50  H    0.994205
    51  H    0.986887
    52  H    1.002815
    53  H    1.008171
    54  H    0.993121
    55  H    0.997386
    56  H    0.999143
    57  H    0.986223
    58  H    0.983594
    59  H    0.985323
    60  H    0.991919
    61  H    0.989962
    62  H    0.989447
    63  H    0.996453
    64  H    0.997435
    65  H    0.989918
    66  H    0.999573
    67  H    1.003005
    68  H    0.993367
    69  H    1.008894
    70  H    1.004366
    71  H    0.998954
    72  H    1.005313
    73  H    1.019448
    74  H    1.019798
    75  H    1.013402
    76  H    1.007347
    77  H    1.004174
    78  H    1.006358
    79  H    1.002000
    80  Mg  11.999984
    81  C    5.999936
    82  C    6.000128
    83  C    6.000101
    84  C    5.999919
    85  N    7.000016
    86  C    6.000180
    87  C    5.999945
    88  C    6.000049
    89  C    5.999770
    90  C    6.000007
    91  C    5.999972
    92  C    5.999983
    93  H    1.000045
    94  N    7.000066
    95  C    5.999771
    96  C    5.999860
    97  C    5.999980
    98  C    5.999749
    99  C    6.000016
   100  C    5.999901
   101  O    7.999888
   102  C    6.000025
   103  N    7.000020
   104  C    5.999746
   105  C    6.000094
   106  C    5.999972
   107  C    6.000206
   108  C    6.000005
   109  C    5.999964
   110  C    5.999983
   111  N    7.000012
   112  C    6.000201
   113  C    6.000170
   114  C    6.000051
   115  C    6.000094
   116  C    6.000003
   117  C    6.000098
   118  O    8.000190
   119  C    6.000025
   120  C    5.999985
   121  O    8.000062
   122  O    8.000006
   123  C    5.999986
   124  H    0.999945
   125  H    0.999957
   126  H    1.000039
   127  H    0.999991
   128  H    0.999995
   129  H    1.000026
   130  H    0.999954
   131  H    0.999939
   132  H    1.000055
   133  H    0.999984
   134  H    0.999992
   135  H    1.000001
   136  H    0.999894
   137  H    0.999904
   138  H    0.999902
   139  H    0.999949
   140  H    0.999949
   141  H    0.999926
   142  H    0.999957
   143  H    0.999986
   144  H    1.000030
   145  H    0.999954
   146  H    0.999981
   147  H    1.000018
   148  H    1.000059
   149  H    1.000032
   150  H    1.000008
   151  H    0.999969
   152  H    1.000080
   153  H    1.000105
   154  H    1.000108
   155  H    1.000066
   156  H    1.000013
   157  H    1.000039
   158  H    1.000032
 Sum of Mulliken charges = 624.00000

 Dipole moment (field-independent basis, Debye):
    X=              0.6934    Y=             -9.5673    Z=             -1.7591  Tot=              9.7524
 Quadrupole moment (field-independent basis, Debye-Ang):
   XX=             45.3592   YY=             -5.6686   ZZ=              1.5957
   XY=           -326.2213   XZ=            -59.0807   YZ=              1.0222

 Normal termination of Gaussian 16 at Fri Oct 15 07:43:35 2021.
