 Gaussian 16, Revision A.03,
 Gaussian 16:  ES64L-G16RevA.03 25-Dec-2016

 --------------------------------------------------------
 #p PBE1PBE/Def2SVP td=(nstates=5) density=(transition=1)
 --------------------------------------------------------

 --------------------------------
 TDDFT excited states in gaussian
 --------------------------------
 Symbolic Z-matrix:
 Charge =  0 Multiplicity = 1

                         Standard orientation:
 ---------------------------------------------------------------------
 Center     Atomic      Atomic             Coordinates (Angstroms)
 Number     Number       Type             X           Y           Z
 ---------------------------------------------------------------------
      1         12           0      -25.155653   -0.504465   -0.287113
      2          6           0      -23.239148    2.421817   -0.490412
      3          6           0      -26.959139    0.987076    2.369715
      4          6           0      -26.794927   -3.443110    0.167445
      5          6           0      -22.865206   -2.066073   -2.345330
      6          7           0      -25.177543    1.504602    0.648349
      7          6           0      -24.390113    2.584907    0.239826
      8          6           0      -25.013232    3.915452    0.796639
      9          6           0      -26.101526    3.401455    1.746248
     10          6           0      -26.056612    1.838292    1.623951
     11          6           0      -25.820990    3.874822    3.197956
     12          6           0      -25.486735    4.760314   -0.379796
     13          6           0      -25.517233    6.270278   -0.208714
     14          1           0      -25.378281    6.847681    1.218062
     15          7           0      -26.675722   -1.181201    1.048875
     16          6           0      -27.259015   -0.425411    2.083583
     17          6           0      -28.224479   -1.224248    2.817844
     18          6           0      -28.282196   -2.525923    2.180711
     19          6           0      -27.212367   -2.428669    1.097187
     20          6           0      -29.139314   -0.677056    3.920976
     21          6           0      -29.154597   -3.733421    2.465496
     22          8           0      -29.052323   -4.744047    1.782944
     23          6           0      -30.266667   -3.592791    3.432597
     24          7           0      -24.879226   -2.468590   -1.069383
     25          6           0      -25.749229   -3.479898   -0.794139
     26          6           0      -25.426684   -4.705531   -1.688464
     27          6           0      -24.191386   -4.253385   -2.559989
     28          6           0      -23.996038   -2.795911   -2.067994
     29          6           0      -25.155344   -5.946313   -0.819009
     30          6           0      -24.433896   -4.263353   -4.092699
     31          6           0      -23.787564   -5.507437   -4.694218
     32          7           0      -23.323025   -0.048480   -1.187779
     33          6           0      -22.450127   -0.766318   -1.935268
     34          6           0      -21.226429    0.055855   -2.097622
     35          6           0      -21.514615    1.315069   -1.659123
     36          6           0      -22.797568    1.180022   -1.069723
     37          6           0      -20.009645   -0.470180   -2.840224
     38          6           0      -21.055583    2.705104   -1.536497
     39          8           0      -19.985847    3.199338   -1.871517
     40          6           0      -22.195149    3.446094   -0.864115
     41          6           0      -21.581993    4.176308    0.256577
     42          8           0      -21.218597    3.774919    1.370383
     43          8           0      -21.380898    5.476705   -0.158852
     44          6           0      -20.718674    6.362590    0.773776
     45          1           0      -27.545764    1.508865    3.128407
     46          1           0      -27.440463   -4.313022    0.305505
     47          1           0      -22.144697   -2.655638   -2.916193
     48          1           0      -24.150995    4.329861    1.320450
     49          1           0      -27.011138    3.935094    1.470856
     50          1           0      -25.536649    3.084016    3.892337
     51          1           0      -26.790847    4.133797    3.621757
     52          1           0      -25.039757    4.633503    3.240411
     53          1           0      -26.459262    4.338454   -0.635239
     54          1           0      -24.883839    4.514508   -1.253185
     55          1           0      -26.424833    6.653547   -0.673086
     56          1           0      -24.678434    6.568732   -0.838538
     57          1           0      -28.900021    0.340686    4.229846
     58          1           0      -29.071822   -1.310639    4.806360
     59          1           0      -30.173976   -0.784075    3.597358
     60          1           0      -30.989237   -2.883167    3.028804
     61          1           0      -29.890365   -3.430295    4.442565
     62          1           0      -30.850530   -4.509664    3.514116
     63          1           0      -26.318911   -4.927523   -2.273467
     64          1           0      -23.360611   -4.868982   -2.212620
     65          1           0      -24.190910   -6.435232   -0.953496
     66          1           0      -25.923582   -6.606614   -1.220824
     67          1           0      -25.171695   -5.760949    0.254623
     68          1           0      -23.833502   -3.491196   -4.574071
     69          1           0      -25.487001   -4.222800   -4.371601
     70          1           0      -24.564744   -5.910683   -5.343255
     71          1           0      -23.632179   -6.319410   -3.984240
     72          1           0      -22.869536   -5.333712   -5.256288
     73          1           0      -20.009166   -1.543198   -3.033631
     74          1           0      -19.074511   -0.230279   -2.335672
     75          1           0      -20.041477   -0.083536   -3.859458
     76          1           0      -22.632400    4.118246   -1.601726
     77          1           0      -19.808255    5.865354    1.109410
     78          1           0      -21.323311    6.606219    1.647641
     79          1           0      -20.270793    7.133035    0.147064
     80         12           0       24.256008   -0.753395    0.385161
     81          6           0       24.106593    2.462078   -1.192181
     82          6           0       24.450822    0.739918    3.302976
     83          6           0       25.185225   -3.715148    1.546632
     84          6           0       24.403861   -2.134171   -3.020765
     85          7           0       24.228054    1.365480    0.973270
     86          6           0       24.194905    2.535454    0.188663
     87          6           0       24.232423    3.866763    1.030295
     88          6           0       24.278272    3.188068    2.533260
     89          6           0       24.307410    1.680233    2.303940
     90          6           0       25.548271    3.653753    3.366744
     91          6           0       23.057138    4.872518    0.771220
     92          6           0       22.851136    5.940108    1.839146
     93          1           0       23.139784    7.379062    1.373661
     94          7           0       24.654450   -1.412972    2.206050
     95          6           0       24.680563   -0.684003    3.371742
     96          6           0       24.957624   -1.506072    4.530743
     97          6           0       25.158730   -2.831457    3.975285
     98          6           0       24.922530   -2.689120    2.494423
     99          6           0       24.952123   -1.082294    5.923854
    100          6           0       25.476484   -4.143637    4.671053
    101          8           0       25.505267   -5.207541    4.118787
    102          6           0       25.849745   -4.011408    6.123686
    103          7           0       24.792124   -2.650430   -0.606790
    104          6           0       25.109379   -3.731314    0.149609
    105          6           0       25.305653   -4.990911   -0.735832
    106          6           0       24.913798   -4.463820   -2.159966
    107          6           0       24.631681   -2.992309   -1.925328
    108          6           0       26.705793   -5.693777   -0.722320
    109          6           0       23.680771   -5.157673   -2.839253
    110          6           0       24.010076   -6.544607   -3.434383
    111          7           0       24.282708   -0.072253   -1.673019
    112          6           0       24.264922   -0.716815   -2.888432
    113          6           0       24.098192    0.237932   -3.910899
    114          6           0       24.086164    1.462545   -3.356173
    115          6           0       24.224780    1.266461   -1.948644
    116          6           0       23.899693   -0.184867   -5.360649
    117          6           0       24.049479    2.917573   -3.534564
    118          8           0       23.983765    3.582129   -4.536393
    119          6           0       24.087743    3.612256   -2.090659
    120          6           0       25.405784    4.308185   -1.968936
    121          8           0       26.492557    3.919720   -1.604168
    122          8           0       25.146032    5.613787   -2.335757
    123          6           0       26.282661    6.564285   -2.292479
    124          1           0       24.574376    1.144128    4.309737
    125          1           0       25.634034   -4.616617    1.970685
    126          1           0       24.354341   -2.708849   -3.948548
    127          1           0       25.208901    4.326484    0.876934
    128          1           0       23.400350    3.531105    3.081188
    129          1           0       25.242963    3.894481    4.384927
    130          1           0       26.163546    4.467835    2.984517
    131          1           0       26.224661    2.813989    3.523116
    132          1           0       22.233833    4.166780    0.653314
    133          1           0       23.026849    5.400949   -0.181894
    134          1           0       23.503210    5.726123    2.685502
    135          1           0       21.790120    5.987356    2.082760
    136          1           0       24.100057   -1.661477    6.279637
    137          1           0       24.840726   -0.000998    6.005864
    138          1           0       25.808002   -1.348935    6.543583
    139          1           0       24.961020   -4.154865    6.738104
    140          1           0       26.584644   -3.229489    6.317253
    141          1           0       26.609533   -4.782491    6.248030
    142          1           0       24.454852   -5.632002   -0.503174
    143          1           0       25.803714   -4.452300   -2.789657
    144          1           0       27.218321   -5.768641   -1.681826
    145          1           0       26.496902   -6.737161   -0.487125
    146          1           0       27.435935   -5.268209   -0.033935
    147          1           0       23.327222   -4.537020   -3.661834
    148          1           0       22.914137   -5.185319   -2.063660
    149          1           0       25.080755   -6.635245   -3.618524
    150          1           0       23.406673   -6.629992   -4.338028
    151          1           0       23.787219   -7.380183   -2.770198
    152          1           0       23.337406    0.565396   -5.916672
    153          1           0       23.405441   -1.156277   -5.377400
    154          1           0       24.861520   -0.392320   -5.830167
    155          1           0       23.246751    4.291041   -1.946964
    156          1           0       26.168340    7.193694   -3.174930
    157          1           0       27.264471    6.091204   -2.303608
    158          1           0       26.044205    7.077988   -1.360647
 ---------------------------------------------------------------------

 SCF Done:  E(RPBE1PBE) =  -4067.38124313     A.U. after   17 cycles

 Excitation energies and oscillator strengths:

 Excited State   1:      Singlet-A      1.8263 eV  678.86 nm  f=0.3791  <S**2>=0.000
     309 -> 315        0.16165
     311 -> 313        0.69459
     311 <- 313       -0.11150
 This state for optimization and/or second-order correction.
 Total Energy, E(TD-HF/TD-DFT) =  -4067.31412617
 Copying the excited state density for this state as the 1-particle RhoCI density.

 Excited State   2:      Singlet-A      1.8601 eV  666.53 nm  f=0.3871  <S**2>=0.000
     310 -> 316       -0.16826
     312 -> 314        0.69338
     312 <- 314       -0.10831

 Excited State   3:      Singlet-A      1.9555 eV  634.03 nm  f=0.0000  <S**2>=0.000
     312 -> 313        0.70711

 Excited State   4:      Singlet-A      2.0029 eV  619.02 nm  f=0.0000  <S**2>=0.000
     311 -> 314        0.70711

 Excited State   5:      Singlet-A      2.2008 eV  563.37 nm  f=0.1148  <S**2>=0.000
     309 -> 313        0.65556
     311 -> 315       -0.24492

 The electronic state is 1-A.
 Alpha  occ. eigenvalues --  -46.92527 -46.91967 -19.25171 -19.24470 -19.20084
 Alpha  occ. eigenvalues --  -19.20057 -19.19652 -19.19267 -19.19236 -19.19152
 Alpha  occ. eigenvalues --  -14.41726 -14.41680 -14.41271 -14.40849 -14.39700
 Alpha  occ. eigenvalues --  -14.39253 -14.38944 -14.38494 -10.36428 -10.35912
 Alpha  occ. eigenvalues --  -10.32675 -10.32411 -10.32386 -10.31875 -10.29589
 Alpha  occ. eigenvalues --  -10.28843 -10.28654 -10.28652 -10.28584 -10.28559
 Alpha  occ. eigenvalues --  -10.28534 -10.28387 -10.28232 -10.28091 -10.28018
 Alpha  occ. eigenvalues --  -10.27938 -10.27837 -10.27800 -10.27365 -10.26979
 Alpha  occ. eigenvalues --  -10.26845 -10.26772 -10.26716 -10.26664 -10.26561
 Alpha  occ. eigenvalues --  -10.26513 -10.26421 -10.26170 -10.26095 -10.25813
 Alpha  occ. eigenvalues --  -10.25702 -10.25592 -10.25551 -10.25524 -10.25515
 Alpha  occ. eigenvalues --  -10.25486 -10.25377 -10.25320 -10.25235 -10.24885
 Alpha  occ. eigenvalues --  -10.24735 -10.24687 -10.24674 -10.24568 -10.24413
 Alpha  occ. eigenvalues --  -10.24408 -10.24407 -10.24403 -10.24371 -10.24357
 Alpha  occ. eigenvalues --  -10.24231 -10.23986 -10.23871 -10.23634 -10.23629
 Alpha  occ. eigenvalues --  -10.23367 -10.23240 -10.23077 -10.23003 -10.22993
 Alpha  occ. eigenvalues --  -10.22988 -10.22983 -10.22749 -10.22691 -10.22485
 Alpha  occ. eigenvalues --  -10.22370  -3.14508  -3.14089  -1.87361  -1.86925
 Alpha  occ. eigenvalues --   -1.86840  -1.86761  -1.86444  -1.86336  -1.10608
 Alpha  occ. eigenvalues --   -1.10383  -1.06112  -1.05501  -1.05010  -1.04870
 Alpha  occ. eigenvalues --   -1.02228  -1.01728  -0.99170  -0.98447  -0.97970
 Alpha  occ. eigenvalues --   -0.97408  -0.97219  -0.97107  -0.96188  -0.96180
 Alpha  occ. eigenvalues --   -0.87836  -0.87325  -0.83534  -0.83202  -0.83089
 Alpha  occ. eigenvalues --   -0.82515  -0.82282  -0.82219  -0.81468  -0.81462
 Alpha  occ. eigenvalues --   -0.81168  -0.81074  -0.80352  -0.79966  -0.78605
 Alpha  occ. eigenvalues --   -0.78171  -0.78153  -0.77441  -0.77043  -0.76445
 Alpha  occ. eigenvalues --   -0.76421  -0.76206  -0.75271  -0.75022  -0.74404
 Alpha  occ. eigenvalues --   -0.74393  -0.72410  -0.72269  -0.71629  -0.71271
 Alpha  occ. eigenvalues --   -0.71138  -0.70903  -0.70305  -0.69822  -0.69180
 Alpha  occ. eigenvalues --   -0.68914  -0.67185  -0.67030  -0.65712  -0.65466
 Alpha  occ. eigenvalues --   -0.63939  -0.63489  -0.63103  -0.62894  -0.62360
 Alpha  occ. eigenvalues --   -0.62169  -0.61441  -0.61417  -0.59813  -0.59504
 Alpha  occ. eigenvalues --   -0.59328  -0.59185  -0.59117  -0.58791  -0.58480
 Alpha  occ. eigenvalues --   -0.58437  -0.56763  -0.55992  -0.54612  -0.54581
 Alpha  occ. eigenvalues --   -0.54254  -0.54049  -0.53598  -0.53344  -0.53334
 Alpha  occ. eigenvalues --   -0.53015  -0.52645  -0.52471  -0.52271  -0.51506
 Alpha  occ. eigenvalues --   -0.50681  -0.50541  -0.50321  -0.50139  -0.49660
 Alpha  occ. eigenvalues --   -0.49571  -0.49326  -0.48994  -0.48799  -0.48503
 Alpha  occ. eigenvalues --   -0.48244  -0.48186  -0.48036  -0.47885  -0.47744
 Alpha  occ. eigenvalues --   -0.47533  -0.47464  -0.47282  -0.46930  -0.46541
 Alpha  occ. eigenvalues --   -0.46504  -0.46380  -0.46220  -0.46029  -0.45901
 Alpha  occ. eigenvalues --   -0.45450  -0.45425  -0.45106  -0.44837  -0.44806
 Alpha  occ. eigenvalues --   -0.44403  -0.44345  -0.44218  -0.44162  -0.44038
 Alpha  occ. eigenvalues --   -0.44027  -0.43789  -0.43738  -0.43669  -0.43383
 Alpha  occ. eigenvalues --   -0.43276  -0.43056  -0.42882  -0.42632  -0.42509
 Alpha  occ. eigenvalues --   -0.42461  -0.42392  -0.42087  -0.41745  -0.41716
 Alpha  occ. eigenvalues --   -0.41482  -0.41403  -0.41083  -0.40995  -0.40829
 Alpha  occ. eigenvalues --   -0.40592  -0.40563  -0.40384  -0.40204  -0.39997
 Alpha  occ. eigenvalues --   -0.39970  -0.39898  -0.39752  -0.39705  -0.39609
 Alpha  occ. eigenvalues --   -0.39491  -0.39467  -0.39246  -0.39173  -0.39048
 Alpha  occ. eigenvalues --   -0.38711  -0.38624  -0.38425  -0.38261  -0.38187
 Alpha  occ. eigenvalues --   -0.37988  -0.37965  -0.37830  -0.37685  -0.37610
 Alpha  occ. eigenvalues --   -0.37406  -0.37353  -0.37280  -0.36903  -0.36759
 Alpha  occ. eigenvalues --   -0.36706  -0.36422  -0.36394  -0.36167  -0.35917
 Alpha  occ. eigenvalues --   -0.35859  -0.35763  -0.35598  -0.35344  -0.35260
 Alpha  occ. eigenvalues --   -0.34833  -0.34329  -0.33893  -0.33766  -0.33475
 Alpha  occ. eigenvalues --   -0.33079  -0.32998  -0.32957  -0.32773  -0.32753
 Alpha  occ. eigenvalues --   -0.32057  -0.31578  -0.31473  -0.31405  -0.31274
 Alpha  occ. eigenvalues --   -0.30916  -0.30637  -0.29393  -0.29381  -0.29103
 Alpha  occ. eigenvalues --   -0.29101  -0.28259  -0.28236  -0.26932  -0.26846
 Alpha  occ. eigenvalues --   -0.26449  -0.26157  -0.25944  -0.25755  -0.25733
 Alpha  occ. eigenvalues --   -0.25549  -0.25460  -0.25332  -0.20736  -0.20547
 Alpha  occ. eigenvalues --   -0.18582  -0.18575
 Alpha virt. eigenvalues --   -0.11123  -0.10953  -0.05058  -0.04698  -0.04044
 Alpha virt. eigenvalues --   -0.03288  -0.02445  -0.01752  -0.00437  -0.00212
 Alpha virt. eigenvalues --    0.00559   0.00842   0.01076   0.01428   0.01479

 Mulliken charges:
               1
     1  Mg  11.999629
     2  C    6.022779
     3  C    5.996443
     4  C    5.977391
     5  C    6.005108
     6  N    7.014252
     7  C    5.966755
     8  C    6.005223
     9  C    5.988817
    10  C    6.029821
    11  C    5.998230
    12  C    6.004189
    13  C    5.999855
    14  H    0.993593
    15  N    6.995222
    16  C    6.035998
    17  C    6.018478
    18  C    6.017250
    19  C    6.028398
    20  C    5.997655
    21  C    6.014531
    22  O    8.030371
    23  C    5.992375
    24  N    6.993612
    25  C    6.031743
    26  C    5.993135
    27  C    6.011041
    28  C    5.972579
    29  C    5.997730
    30  C    6.004266
    31  C    6.001498
    32  N    7.001018
    33  C    5.966538
    34  C    5.969566
    35  C    5.999826
    36  C    5.966348
    37  C    6.003001
    38  C    5.980551
    39  O    7.973427
    40  C    5.999870
    41  C    5.996879
    42  O    7.991987
    43  O    7.999460
    44  C    6.001217
    45  H    1.013142
    46  H    1.002022
    47  H    0.989064
    48  H    1.002924
    49  H    1.006116
    50  H    0.998817
    51  H    0.999211
    52  H    1.012854
    53  H    0.990864
    54  H    1.007567
    55  H    0.996928
    56  H    1.004312
    57  H    1.015712
    58  H    1.016682
    59  H    1.016388
    60  H    1.007389
    61  H    1.007610
    62  H    1.014706
    63  H    0.998030
    64  H    0.996422
    65  H    1.008117
    66  H    0.999777
    67  H    0.994779
    68  H    1.004478
    69  H    0.990747
    70  H    0.994572
    71  H    0.994704
    72  H    1.001223
    73  H    0.982595
    74  H    0.982278
    75  H    0.979716
    76  H    0.992609
    77  H    0.999347
    78  H    0.993295
    79  H    0.997344
    80  Mg  12.000024
    81  C    5.999913
    82  C    6.000012
    83  C    6.000006
    84  C    5.999983
    85  N    6.999949
    86  C    6.000177
    87  C    5.999920
    88  C    6.000078
    89  C    5.999937
    90  C    6.000012
    91  C    5.999981
    92  C    6.000010
    93  H    0.999985
    94  N    7.000019
    95  C    5.999776
    96  C    5.999868
    97  C    5.999864
    98  C    5.999919
    99  C    6.000005
   100  C    5.999888
   101  O    7.999801
   102  C    6.000059
   103  N    7.000018
   104  C    5.999860
   105  C    6.000059
   106  C    5.999921
   107  C    6.000124
   108  C    6.000005
   109  C    5.999959
   110  C    6.000005
   111  N    6.999983
   112  C    6.000163
   113  C    6.000201
   114  C    6.000041
   115  C    6.000142
   116  C    6.000012
   117  C    6.000164
   118  O    8.000203
   119  C    6.000005
   120  C    5.999979
   121  O    8.000038
   122  O    8.000020
   123  C    5.999988
   124  H    0.999928
   125  H    0.999966
   126  H    1.000067
   127  H    0.999993
   128  H    0.999997
   129  H    0.999985
   130  H    0.999906
   131  H    1.000013
   132  H    1.000038
   133  H    0.999977
   134  H    1.000020
   135  H    1.000047
   136  H    0.999914
   137  H    0.999903
   138  H    0.999868
   139  H    0.999943
   140  H    0.999946
   141  H    0.999884
   142  H    1.000020
   143  H    0.999983
   144  H    0.999939
   145  H    0.999989
   146  H    1.000010
   147  H    0.999997
   148  H    1.000079
   149  H    0.999991
   150  H    1.000032
   151  H    1.000036
   152  H    1.000114
   153  H    1.000113
   154  H    1.000086
   155  H    1.000086
   156  H    1.000022
   157  H    0.999992
   158  H    1.000038
 Sum of Mulliken charges = 624.00000

 Dipole moment (field-independent basis, Debye):
    X=             -8.3894    Y=             -2.4667    Z=              5.7453  Tot=             10.4631
 Quadrupole moment (field-independent basis, Debye-Ang):
   XX=            415.5910   YY=              0.8375   ZZ=              2.7046
   XY=             67.6923   XZ=           -149.2599   YZ=             -5.5546

 Normal termination of Gaussian 16 at Fri Oct 15 01:55:11 2021.
