 Gaussian 16, Revision A.03,
 Gaussian 16:  ES64L-G16RevA.03 25-Dec-2016

 --------------------------------------------------------
 #p PBE1PBE/Def2SVP td=(nstates=5) density=(transition=1)
 --------------------------------------------------------

 --------------------------------
 TDDFT excited states in gaussian
 --------------------------------
 Symbolic Z-matrix:
 Charge =  0 Multiplicity = 1

                         Standard orientation:
 ---------------------------------------------------------------------
 Center     Atomic      Atomic             Coordinates (Angstroms)
 Number     Number       Type             X           Y           Z
 ---------------------------------------------------------------------
      1         12           0      -21.295610   -0.766452   -0.106106
      2          6           0      -22.190389    2.542441    0.466564
      3          6           0      -18.371067    0.269207   -1.419105
      4          6           0      -20.788968   -3.869360   -1.352864
      5          6           0      -24.660314   -1.698155    0.497584
      6          7           0      -20.446155    1.173969   -0.312516
      7          6           0      -20.858158    2.420296    0.106346
      8          6           0      -19.801794    3.496498   -0.266985
      9          6           0      -18.945589    2.728461   -1.320648
     10          6           0      -19.183870    1.277997   -0.927299
     11          6           0      -19.367012    2.971332   -2.812631
     12          6           0      -19.187128    4.026909    1.041238
     13          6           0      -18.995749    5.495493    1.072693
     14          1           0      -18.858216    6.071089    2.409065
     15          7           0      -19.692948   -1.685190   -1.021311
     16          6           0      -18.546705   -1.077936   -1.423625
     17          6           0      -17.566768   -2.096547   -1.705817
     18          6           0      -18.293530   -3.341278   -1.681405
     19          6           0      -19.690403   -2.981854   -1.420196
     20          6           0      -16.157075   -1.804629   -2.077255
     21          6           0      -17.850967   -4.800283   -2.027773
     22          8           0      -18.610951   -5.767226   -1.944508
     23          6           0      -16.418510   -5.125257   -2.347189
     24          7           0      -22.680737   -2.425160   -0.692259
     25          6           0      -22.135862   -3.680657   -1.076740
     26          6           0      -23.138652   -4.786630   -1.082994
     27          6           0      -24.271301   -4.071385   -0.277099
     28          6           0      -23.813667   -2.628739   -0.078913
     29          6           0      -23.546679   -5.276725   -2.513577
     30          6           0      -24.561435   -4.736131    1.118065
     31          6           0      -23.325377   -4.958780    2.026340
     32          7           0      -23.055905    0.163586    0.483534
     33          6           0      -24.337190   -0.349055    0.738926
     34          6           0      -25.136280    0.746355    1.143595
     35          6           0      -24.321788    1.869694    1.073257
     36          6           0      -23.095800    1.461594    0.662242
     37          6           0      -26.556746    0.661378    1.603714
     38          6           0      -24.331656    3.251467    1.198572
     39          8           0      -25.266770    4.010565    1.511906
     40          6           0      -22.935713    3.838085    0.829730
     41          6           0      -22.485906    4.552690    2.142200
     42          8           0      -22.175258    3.983673    3.203808
     43          8           0      -22.500977    5.924029    1.911581
     44          6           0      -22.354124    6.843606    3.084341
     45          1           0      -17.508064    0.731249   -1.903204
     46          1           0      -20.773644   -4.939214   -1.574357
     47          1           0      -25.643860   -1.956195    0.895859
     48          1           0      -20.289647    4.375528   -0.686836
     49          1           0      -17.891934    2.949596   -1.152913
     50          1           0      -20.156319    3.705662   -2.975945
     51          1           0      -19.811497    2.071322   -3.235574
     52          1           0      -18.504763    3.350118   -3.361019
     53          1           0      -18.178091    3.618417    1.074771
     54          1           0      -19.812592    3.679765    1.864112
     55          1           0      -19.907392    5.918329    0.650213
     56          1           0      -18.175104    5.751136    0.402692
     57          1           0      -15.866533   -0.797384   -1.779293
     58          1           0      -16.010624   -2.104785   -3.115374
     59          1           0      -15.494038   -2.447832   -1.498556
     60          1           0      -16.475954   -6.032157   -2.949561
     61          1           0      -15.862402   -5.361363   -1.439649
     62          1           0      -15.944125   -4.344648   -2.942734
     63          1           0      -22.827923   -5.668452   -0.520941
     64          1           0      -25.182473   -4.076967   -0.876162
     65          1           0      -23.308888   -4.495060   -3.235578
     66          1           0      -24.597393   -5.523366   -2.666932
     67          1           0      -23.043056   -6.174933   -2.872069
     68          1           0      -25.112442   -5.651227    0.900389
     69          1           0      -25.295886   -4.066483    1.565436
     70          1           0      -23.407629   -4.440493    2.981910
     71          1           0      -22.458992   -4.608729    1.464454
     72          1           0      -23.163376   -6.009379    2.265513
     73          1           0      -27.116596    1.336514    0.956583
     74          1           0      -26.580672    0.940473    2.657096
     75          1           0      -27.032902   -0.311082    1.477820
     76          1           0      -23.077812    4.587111    0.051165
     77          1           0      -23.191510    6.623346    3.746049
     78          1           0      -22.359042    7.916335    2.891384
     79          1           0      -21.394081    6.460129    3.429943
     80         12           0       22.351701    0.447632    0.438405
     81          6           0       18.854522    1.048707    0.355321
     82          6           0       21.791028   -1.545290    3.245723
     83          6           0       25.243728   -0.976207   -0.228686
     84          6           0       22.517893    2.337125   -2.693075
     85          7           0       20.420633   -0.375378    1.524427
     86          6           0       19.209560    0.231227    1.457750
     87          6           0       18.357298   -0.218252    2.630983
     88          6           0       19.371218   -0.497723    3.740525
     89          6           0       20.612411   -0.888712    2.786812
     90          6           0       19.777204    0.651215    4.665434
     91          6           0       17.424593   -1.425943    2.181112
     92          6           0       16.033969   -1.270430    2.657463
     93          1           0       15.319840   -2.525148    3.196604
     94          7           0       23.417095   -1.125614    1.350665
     95          6           0       23.042045   -1.763671    2.559058
     96          6           0       24.107374   -2.678772    2.882841
     97          6           0       25.184614   -2.508854    1.973164
     98          6           0       24.666860   -1.533001    0.949196
     99          6           0       23.999314   -3.601446    4.092770
    100          6           0       26.456415   -3.261235    1.974057
    101          8           0       26.638457   -4.111257    2.836873
    102          6           0       27.554103   -3.175548    0.964956
    103          7           0       23.669002    0.619722   -1.361309
    104          6           0       24.877773    0.045777   -1.199364
    105          6           0       25.841783    0.483455   -2.316936
    106          6           0       25.032035    1.690049   -3.057622
    107          6           0       23.667789    1.601697   -2.325809
    108          6           0       27.322644    0.811804   -1.824182
    109          6           0       24.946848    1.587651   -4.612726
    110          6           0       23.634722    0.998434   -5.234017
    111          7           0       21.057822    1.457030   -0.868056
    112          6           0       21.296299    2.219259   -2.047037
    113          6           0       20.018045    2.977200   -2.401106
    114          6           0       19.090809    2.476465   -1.501256
    115          6           0       19.773080    1.585896   -0.597082
    116          6           0       19.686273    4.005516   -3.499614
    117          6           0       17.730996    2.571466   -1.074079
    118          8           0       16.820748    3.303792   -1.465539
    119          6           0       17.575956    1.550629   -0.003988
    120          6           0       16.726055    0.456281   -0.689311
    121          8           0       17.113746   -0.401054   -1.480286
    122          8           0       15.375549    0.665669   -0.294384
    123          6           0       14.378279   -0.133045   -0.882473
    124          1           0       21.701773   -2.105834    4.178751
    125          1           0       26.257990   -1.378849   -0.262973
    126          1           0       22.500193    3.039538   -3.528166
    127          1           0       17.729097    0.574699    3.036530
    128          1           0       19.185395   -1.281173    4.474324
    129          1           0       19.072560    1.482315    4.670030
    130          1           0       20.830444    0.907803    4.549035
    131          1           0       19.685068    0.193710    5.651157
    132          1           0       17.809942   -2.344774    2.623236
    133          1           0       17.490288   -1.671561    1.121127
    134          1           0       15.544401   -0.867664    1.771505
    135          1           0       16.028693   -0.530830    3.457988
    136          1           0       24.617405   -3.277909    4.930032
    137          1           0       24.211176   -4.620805    3.773420
    138          1           0       22.975663   -3.614944    4.467291
    139          1           0       28.024901   -2.196544    1.057723
    140          1           0       27.259256   -3.330182   -0.073675
    141          1           0       28.402800   -3.799733    1.241964
    142          1           0       25.837624   -0.374282   -2.989184
    143          1           0       25.462177    2.639562   -2.740819
    144          1           0       27.550074    0.293717   -0.892639
    145          1           0       27.647550    1.851844   -1.776628
    146          1           0       27.924165    0.519840   -2.686437
    147          1           0       25.785858    1.038580   -5.039369
    148          1           0       25.004537    2.634133   -4.911160
    149          1           0       24.120183    0.548693   -6.100452
    150          1           0       22.867391    1.695720   -5.571025
    151          1           0       23.261954    0.235088   -4.550739
    152          1           0       19.328472    4.938771   -3.066142
    153          1           0       18.795579    3.503374   -3.876054
    154          1           0       20.513278    4.005729   -4.209324
    155          1           0       17.006023    1.974858    0.822715
    156          1           0       13.363758    0.085518   -0.546875
    157          1           0       14.597977   -1.168330   -0.624735
    158          1           0       14.462717    0.057286   -1.952777
 ---------------------------------------------------------------------

 SCF Done:  E(RPBE1PBE) =  -4067.33672492     A.U. after   16 cycles

 Excitation energies and oscillator strengths:

 Excited State   1:      Singlet-A      1.8237 eV  679.86 nm  f=0.3708  <S**2>=0.000
     309 -> 316        0.15443
     311 -> 313        0.69667
     311 <- 313       -0.11762
 This state for optimization and/or second-order correction.
 Total Energy, E(TD-HF/TD-DFT) =  -4067.26970615
 Copying the excited state density for this state as the 1-particle RhoCI density.

 Excited State   2:      Singlet-A      1.8406 eV  673.62 nm  f=0.3386  <S**2>=0.000
     310 -> 315        0.18907
     312 -> 314        0.68681

 Excited State   3:      Singlet-A      1.9219 eV  645.11 nm  f=0.0000  <S**2>=0.000
     312 -> 313        0.70711

 Excited State   4:      Singlet-A      2.0178 eV  614.44 nm  f=0.0000  <S**2>=0.000
     311 -> 314        0.70710

 Excited State   5:      Singlet-A      2.1946 eV  564.94 nm  f=0.0643  <S**2>=0.000
     310 -> 314        0.63436
     312 -> 315       -0.29979

 The electronic state is 1-A.
 Alpha  occ. eigenvalues --  -46.94710 -46.91702 -19.25394 -19.25393 -19.21615
 Alpha  occ. eigenvalues --  -19.20217 -19.19110 -19.18979 -19.17856 -19.17851
 Alpha  occ. eigenvalues --  -14.41903 -14.41538 -14.41535 -14.40915 -14.39890
 Alpha  occ. eigenvalues --  -14.39481 -14.39015 -14.38146 -10.37676 -10.37059
 Alpha  occ. eigenvalues --  -10.32455 -10.31654 -10.31318 -10.30723 -10.29656
 Alpha  occ. eigenvalues --  -10.29259 -10.29234 -10.29162 -10.29023 -10.28728
 Alpha  occ. eigenvalues --  -10.28652 -10.28631 -10.28359 -10.28272 -10.28121
 Alpha  occ. eigenvalues --  -10.27995 -10.27906 -10.27852 -10.27094 -10.27030
 Alpha  occ. eigenvalues --  -10.26943 -10.26934 -10.26669 -10.26393 -10.26256
 Alpha  occ. eigenvalues --  -10.26221 -10.26126 -10.25999 -10.25926 -10.25925
 Alpha  occ. eigenvalues --  -10.25758 -10.25705 -10.25703 -10.25501 -10.25489
 Alpha  occ. eigenvalues --  -10.25384 -10.25370 -10.25337 -10.25318 -10.25224
 Alpha  occ. eigenvalues --  -10.25195 -10.24988 -10.24974 -10.24915 -10.24834
 Alpha  occ. eigenvalues --  -10.24763 -10.24571 -10.24466 -10.24321 -10.24262
 Alpha  occ. eigenvalues --  -10.24178 -10.24010 -10.23892 -10.23882 -10.23847
 Alpha  occ. eigenvalues --  -10.23581 -10.23347 -10.23287 -10.23222 -10.23133
 Alpha  occ. eigenvalues --  -10.23122 -10.23087 -10.22968 -10.22795 -10.22672
 Alpha  occ. eigenvalues --  -10.21379  -3.16498  -3.13875  -1.89276  -1.88923
 Alpha  occ. eigenvalues --   -1.88674  -1.86696  -1.86253  -1.86100  -1.10577
 Alpha  occ. eigenvalues --   -1.09134  -1.04296  -1.04218  -1.04154  -1.03475
 Alpha  occ. eigenvalues --   -1.02606  -1.01432  -0.99433  -0.98826  -0.98586
 Alpha  occ. eigenvalues --   -0.98152  -0.98085  -0.97501  -0.96842  -0.96002
 Alpha  occ. eigenvalues --   -0.88776  -0.86876  -0.83463  -0.83449  -0.83298
 Alpha  occ. eigenvalues --   -0.83037  -0.82882  -0.82111  -0.82102  -0.81575
 Alpha  occ. eigenvalues --   -0.81423  -0.81198  -0.80832  -0.79930  -0.79088
 Alpha  occ. eigenvalues --   -0.78874  -0.77967  -0.77786  -0.77000  -0.76451
 Alpha  occ. eigenvalues --   -0.75892  -0.75784  -0.75241  -0.75167  -0.74709
 Alpha  occ. eigenvalues --   -0.74646  -0.72540  -0.72382  -0.71607  -0.71355
 Alpha  occ. eigenvalues --   -0.71219  -0.71203  -0.70362  -0.70320  -0.69813
 Alpha  occ. eigenvalues --   -0.69599  -0.67665  -0.67201  -0.66460  -0.66342
 Alpha  occ. eigenvalues --   -0.64292  -0.64121  -0.63191  -0.63176  -0.61967
 Alpha  occ. eigenvalues --   -0.61719  -0.61271  -0.60926  -0.59861  -0.59841
 Alpha  occ. eigenvalues --   -0.59468  -0.59233  -0.59123  -0.59068  -0.59012
 Alpha  occ. eigenvalues --   -0.58548  -0.56791  -0.56146  -0.54505  -0.54443
 Alpha  occ. eigenvalues --   -0.54348  -0.54297  -0.53936  -0.53750  -0.53318
 Alpha  occ. eigenvalues --   -0.53094  -0.52938  -0.52157  -0.51609  -0.51341
 Alpha  occ. eigenvalues --   -0.50676  -0.50596  -0.50547  -0.50257  -0.50129
 Alpha  occ. eigenvalues --   -0.49862  -0.49454  -0.49446  -0.49291  -0.49174
 Alpha  occ. eigenvalues --   -0.48313  -0.48049  -0.47976  -0.47670  -0.47635
 Alpha  occ. eigenvalues --   -0.47537  -0.47417  -0.47340  -0.47005  -0.46763
 Alpha  occ. eigenvalues --   -0.46499  -0.46475  -0.46227  -0.46101  -0.46015
 Alpha  occ. eigenvalues --   -0.46008  -0.45838  -0.45190  -0.45045  -0.44928
 Alpha  occ. eigenvalues --   -0.44805  -0.44529  -0.44123  -0.44046  -0.44020
 Alpha  occ. eigenvalues --   -0.43825  -0.43818  -0.43631  -0.43578  -0.43354
 Alpha  occ. eigenvalues --   -0.43176  -0.43169  -0.42945  -0.42724  -0.42642
 Alpha  occ. eigenvalues --   -0.42540  -0.42322  -0.42232  -0.42048  -0.41867
 Alpha  occ. eigenvalues --   -0.41661  -0.41649  -0.41313  -0.41031  -0.40824
 Alpha  occ. eigenvalues --   -0.40688  -0.40657  -0.40624  -0.40563  -0.40524
 Alpha  occ. eigenvalues --   -0.40253  -0.40209  -0.40103  -0.39930  -0.39364
 Alpha  occ. eigenvalues --   -0.39323  -0.39252  -0.39150  -0.38944  -0.38931
 Alpha  occ. eigenvalues --   -0.38577  -0.38511  -0.38346  -0.38298  -0.38208
 Alpha  occ. eigenvalues --   -0.38159  -0.37957  -0.37847  -0.37832  -0.37574
 Alpha  occ. eigenvalues --   -0.37283  -0.37097  -0.37027  -0.36769  -0.36527
 Alpha  occ. eigenvalues --   -0.36441  -0.36368  -0.36175  -0.35957  -0.35886
 Alpha  occ. eigenvalues --   -0.35797  -0.35749  -0.35474  -0.35381  -0.35091
 Alpha  occ. eigenvalues --   -0.34976  -0.34864  -0.34094  -0.33988  -0.33537
 Alpha  occ. eigenvalues --   -0.33309  -0.33192  -0.33013  -0.32926  -0.32651
 Alpha  occ. eigenvalues --   -0.32382  -0.31902  -0.31618  -0.31613  -0.31338
 Alpha  occ. eigenvalues --   -0.30985  -0.30822  -0.30062  -0.29466  -0.29287
 Alpha  occ. eigenvalues --   -0.29093  -0.28990  -0.28700  -0.26979  -0.26780
 Alpha  occ. eigenvalues --   -0.26276  -0.25895  -0.25640  -0.25303  -0.25261
 Alpha  occ. eigenvalues --   -0.25014  -0.24873  -0.24785  -0.21151  -0.21022
 Alpha  occ. eigenvalues --   -0.18829  -0.18778
 Alpha virt. eigenvalues --   -0.11412  -0.11108  -0.06027  -0.05119  -0.04403
 Alpha virt. eigenvalues --   -0.03652  -0.03166  -0.02214  -0.02006  -0.00495
 Alpha virt. eigenvalues --    0.00075   0.00392   0.00742   0.00762   0.01648

 Mulliken charges:
               1
     1  Mg  12.002492
     2  C    5.975550
     3  C    6.003075
     4  C    6.032038
     5  C    6.016625
     6  N    6.979209
     7  C    6.032003
     8  C    5.996913
     9  C    6.006608
    10  C    5.976756
    11  C    6.003264
    12  C    5.994100
    13  C    6.000568
    14  H    0.998714
    15  N    7.006761
    16  C    5.964609
    17  C    5.980616
    18  C    5.987020
    19  C    5.962326
    20  C    6.003232
    21  C    5.987513
    22  O    7.970914
    23  C    6.004906
    24  N    7.016620
    25  C    5.958350
    26  C    6.014768
    27  C    5.992689
    28  C    6.017662
    29  C    5.999544
    30  C    5.992243
    31  C    5.994598
    32  N    6.998117
    33  C    6.026992
    34  C    6.030706
    35  C    5.999968
    36  C    6.027372
    37  C    5.997149
    38  C    6.014622
    39  O    8.028929
    40  C    6.003772
    41  C    6.003202
    42  O    8.003564
    43  O    8.001552
    44  C    5.999461
    45  H    0.985955
    46  H    0.996011
    47  H    1.015959
    48  H    0.998562
    49  H    0.998682
    50  H    0.984197
    51  H    1.000535
    52  H    0.996693
    53  H    1.011859
    54  H    0.994383
    55  H    0.996282
    56  H    1.005432
    57  H    0.985638
    58  H    0.981476
    59  H    0.982620
    60  H    0.987085
    61  H    0.989380
    62  H    0.996030
    63  H    0.999147
    64  H    1.002873
    65  H    1.000438
    66  H    0.990759
    67  H    1.003434
    68  H    1.009725
    69  H    0.993566
    70  H    0.997367
    71  H    1.013298
    72  H    1.006736
    73  H    1.017457
    74  H    1.018784
    75  H    1.016116
    76  H    1.008088
    77  H    0.999106
    78  H    1.004304
    79  H    1.004326
    80  Mg  11.999934
    81  C    5.999662
    82  C    6.000240
    83  C    6.000282
    84  C    5.999703
    85  N    6.999999
    86  C    6.000529
    87  C    5.999929
    88  C    6.000035
    89  C    5.999457
    90  C    6.000033
    91  C    5.999892
    92  C    5.999942
    93  H    1.000257
    94  N    7.000137
    95  C    5.999137
    96  C    5.999611
    97  C    5.999743
    98  C    5.999319
    99  C    6.000124
   100  C    5.999751
   101  O    7.999480
   102  C    6.000102
   103  N    6.999909
   104  C    5.999391
   105  C    6.000237
   106  C    5.999764
   107  C    6.000676
   108  C    6.000080
   109  C    6.000018
   110  C    5.999848
   111  N    6.999996
   112  C    6.000865
   113  C    6.000570
   114  C    6.000032
   115  C    6.000502
   116  C    5.999995
   117  C    6.000483
   118  O    8.000713
   119  C    5.999916
   120  C    6.000074
   121  O    8.000145
   122  O    8.000042
   123  C    5.999907
   124  H    0.999809
   125  H    0.999868
   126  H    1.000167
   127  H    0.999982
   128  H    1.000010
   129  H    0.999723
   130  H    1.000005
   131  H    0.999952
   132  H    1.000255
   133  H    0.999967
   134  H    0.999928
   135  H    1.000046
   136  H    0.999555
   137  H    0.999675
   138  H    0.999654
   139  H    0.999733
   140  H    0.999768
   141  H    0.999702
   142  H    0.999974
   143  H    1.000049
   144  H    1.000158
   145  H    0.999823
   146  H    0.999866
   147  H    1.000166
   148  H    0.999969
   149  H    1.000157
   150  H    0.999935
   151  H    1.000066
   152  H    1.000337
   153  H    1.000316
   154  H    1.000303
   155  H    1.000234
   156  H    1.000212
   157  H    1.000153
   158  H    1.000020
 Sum of Mulliken charges = 624.00000

 Dipole moment (field-independent basis, Debye):
    X=             -8.7646    Y=              4.0320    Z=              3.7634  Tot=             10.3556
 Quadrupole moment (field-independent basis, Debye-Ang):
   XX=            362.0476   YY=             -4.6833   ZZ=             -2.6115
   XY=            -72.9334   XZ=            -82.7943   YZ=             -3.2223

 Normal termination of Gaussian 16 at Thu Oct 14 15:04:29 2021.
