 Gaussian 16, Revision A.03,
 Gaussian 16:  ES64L-G16RevA.03 25-Dec-2016

 --------------------------------------------------------
 #p PBE1PBE/Def2SVP td=(nstates=5) density=(transition=1)
 --------------------------------------------------------

 --------------------------------
 TDDFT excited states in gaussian
 --------------------------------
 Symbolic Z-matrix:
 Charge =  0 Multiplicity = 1

                         Standard orientation:
 ---------------------------------------------------------------------
 Center     Atomic      Atomic             Coordinates (Angstroms)
 Number     Number       Type             X           Y           Z
 ---------------------------------------------------------------------
      1         12           0      -11.690931    0.371301   -0.301990
      2          6           0       -9.690490   -2.497823   -0.434791
      3          6           0      -14.032663   -1.614115    1.290207
      4          6           0      -13.524467    3.117454    0.186672
      5          6           0       -8.910503    2.321748   -1.129856
      6          7           0      -11.706504   -1.902359    0.545448
      7          6           0      -10.819359   -2.868694    0.240418
      8          6           0      -11.190383   -4.224903    0.790566
      9          6           0      -12.710923   -3.902991    1.052984
     10          6           0      -12.870849   -2.386463    1.022919
     11          6           0      -13.583667   -4.510815   -0.077354
     12          6           0      -10.273231   -4.626339    1.952744
     13          6           0       -9.838448   -3.568372    2.988192
     14          1           0       -9.999247   -3.962479    4.451649
     15          7           0      -13.502341    0.707961    0.586947
     16          6           0      -14.341340   -0.263516    1.064893
     17          6           0      -15.702358    0.282389    1.147003
     18          6           0      -15.580743    1.720238    0.983723
     19          6           0      -14.158158    1.882702    0.554435
     20          6           0      -16.921542   -0.544525    1.708702
     21          6           0      -16.675616    2.766696    1.205641
     22          8           0      -17.807395    2.430854    1.417874
     23          6           0      -16.347325    4.228862    1.111981
     24          7           0      -11.152092    2.476866   -0.259592
     25          6           0      -12.132527    3.479019   -0.138008
     26          6           0      -11.553939    4.941058   -0.354726
     27          6           0      -10.062349    4.616744   -0.843164
     28          6           0      -10.035589    3.020885   -0.784439
     29          6           0      -12.328931    5.991563   -1.296871
     30          6           0       -8.860978    5.303789   -0.047136
     31          6           0       -7.637354    5.627405   -1.039115
     32          7           0       -9.680188    0.044319   -0.768300
     33          6           0       -8.701819    0.930443   -1.171007
     34          6           0       -7.503592    0.185262   -1.537382
     35          6           0       -7.808078   -1.187262   -1.346542
     36          6           0       -9.139352   -1.216962   -0.794302
     37          6           0       -6.259655    0.744087   -2.177084
     38          6           0       -7.335573   -2.610129   -1.349584
     39          8           0       -6.235481   -3.068567   -1.563437
     40          6           0       -8.567721   -3.456836   -0.814981
     41          6           0       -8.955925   -4.395964   -1.923763
     42          8           0       -8.325658   -5.444885   -2.208946
     43          8           0      -10.173000   -4.003100   -2.461493
     44          6           0      -10.772748   -4.929251   -3.362913
     45          1           0      -14.809283   -2.257286    1.709514
     46          1           0      -14.080877    4.054377    0.112547
     47          1           0       -8.117626    2.925529   -1.576515
     48          1           0      -11.188888   -4.989693    0.014138
     49          1           0      -13.150445   -4.244374    1.989223
     50          1           0      -14.420084   -3.823814   -0.208215
     51          1           0      -13.849100   -5.540974    0.155936
     52          1           0      -13.199932   -4.521302   -1.098004
     53          1           0       -9.334748   -4.932002    1.491256
     54          1           0      -10.729990   -5.472416    2.466330
     55          1           0      -10.452555   -2.677333    2.860079
     56          1           0       -8.775305   -3.375609    2.847328
     57          1           0      -16.949303   -0.647750    2.793789
     58          1           0      -16.927240   -1.536507    1.256869
     59          1           0      -17.911462   -0.196761    1.415620
     60          1           0      -17.176893    4.855312    1.441442
     61          1           0      -16.066076    4.542168    0.106378
     62          1           0      -15.583813    4.333189    1.883325
     63          1           0      -11.564013    5.288582    0.677657
     64          1           0       -9.930358    4.876358   -1.893140
     65          1           0      -13.022449    6.539733   -0.660249
     66          1           0      -12.860167    5.488382   -2.104295
     67          1           0      -11.591724    6.651629   -1.754430
     68          1           0       -8.412098    4.607743    0.661384
     69          1           0       -9.203252    6.183339    0.498714
     70          1           0       -6.738937    5.087198   -0.740302
     71          1           0       -7.423020    6.695387   -1.012259
     72          1           0       -7.703904    5.315208   -2.080757
     73          1           0       -5.841848    1.499241   -1.512151
     74          1           0       -6.517547    1.218924   -3.123964
     75          1           0       -5.489085   -0.013616   -2.318295
     76          1           0       -8.134057   -4.081902   -0.034703
     77          1           0      -11.760538   -4.565846   -3.645373
     78          1           0      -10.749130   -5.942744   -2.962071
     79          1           0      -10.267732   -4.945761   -4.328685
     80         12           0       11.001420    0.865377   -0.324024
     81          6           0       12.064153   -2.575350    0.381397
     82          6           0        7.926324   -0.146717    0.900366
     83          6           0       10.350630    3.959841    0.089050
     84          6           0       14.459234    1.489186   -1.076459
     85          7           0       10.160356   -1.206963    0.702032
     86          6           0       10.752930   -2.440239    0.863734
     87          6           0        9.767942   -3.394048    1.633680
     88          6           0        8.398832   -2.699751    1.530252
     89          6           0        8.840420   -1.275877    1.018927
     90          6           0        7.314863   -3.304116    0.544028
     91          6           0       10.225106   -3.725229    3.095599
     92          6           0        9.999427   -5.146206    3.565392
     93          1           0        8.777560   -5.388712    4.506027
     94          7           0        9.353376    1.789028    0.265998
     95          6           0        8.151978    1.244117    0.629645
     96          6           0        7.183321    2.327497    0.951800
     97          6           0        7.911513    3.526264    0.735103
     98          6           0        9.270986    3.118613    0.389280
     99          6           0        5.750118    2.163782    1.483630
    100          6           0        7.493398    4.965656    1.048890
    101          8           0        6.344185    5.142892    1.443867
    102          6           0        8.316101    6.098933    0.887552
    103          7           0       12.352189    2.497589   -0.222930
    104          6           0       11.698583    3.711963   -0.290803
    105          6           0       12.769300    4.825449   -0.611778
    106          6           0       14.122809    4.030328   -0.668566
    107          6           0       13.595160    2.578351   -0.759408
    108          6           0       12.498064    5.673935   -1.884384
    109          6           0       15.182910    4.242049    0.486287
    110          6           0       16.077004    5.492792    0.427161
    111          7           0       12.920658   -0.238179   -0.416837
    112          6           0       14.172263    0.140450   -0.859672
    113          6           0       15.062880   -0.987830   -0.984547
    114          6           0       14.260055   -2.094305   -0.515971
    115          6           0       12.959408   -1.631236   -0.111596
    116          6           0       16.493903   -0.887019   -1.414650
    117          6           0       14.310243   -3.457445   -0.226764
    118          8           0       15.251274   -4.238916   -0.196374
    119          6           0       12.970742   -3.819157    0.477945
    120          6           0       12.401151   -4.948552   -0.348375
    121          8           0       11.983191   -6.002376    0.137789
    122          8           0       12.216175   -4.658202   -1.759933
    123          6           0       11.345478   -5.629785   -2.419810
    124          1           0        6.926978   -0.455248    1.212748
    125          1           0       10.224653    5.041641    0.009771
    126          1           0       15.445885    1.822016   -1.405131
    127          1           0        9.615299   -4.290314    1.030732
    128          1           0        7.957038   -2.526561    2.511533
    129          1           0        6.583391   -3.777463    1.198663
    130          1           0        7.742063   -4.091732   -0.075990
    131          1           0        6.868464   -2.597596   -0.155652
    132          1           0        9.680081   -3.191462    3.874571
    133          1           0       11.296170   -3.553880    3.205262
    134          1           0       10.941597   -5.491937    3.990737
    135          1           0        9.811362   -5.756879    2.681748
    136          1           0        5.095092    2.895196    1.009517
    137          1           0        5.857765    2.285371    2.561402
    138          1           0        5.343158    1.189203    1.217490
    139          1           0        8.502491    6.230304   -0.178806
    140          1           0        9.230202    6.090328    1.481305
    141          1           0        7.701452    6.864435    1.362408
    142          1           0       12.882873    5.565367    0.179802
    143          1           0       14.632951    4.182973   -1.619339
    144          1           0       13.383356    5.542833   -2.506768
    145          1           0       12.402868    6.717132   -1.584707
    146          1           0       11.578953    5.243693   -2.284042
    147          1           0       15.809263    3.352103    0.416679
    148          1           0       14.690378    4.347272    1.453176
    149          1           0       15.768004    5.914056   -0.529908
    150          1           0       17.125119    5.223138    0.289749
    151          1           0       15.964057    6.222929    1.228197
    152          1           0       16.954563   -0.191147   -0.714699
    153          1           0       16.623844   -0.407086   -2.384474
    154          1           0       17.051328   -1.810121   -1.255261
    155          1           0       13.228545   -4.210412    1.461910
    156          1           0       11.016377   -4.956014   -3.211808
    157          1           0       10.630065   -6.077249   -1.729872
    158          1           0       12.004902   -6.360237   -2.888695
 ---------------------------------------------------------------------

 SCF Done:  E(RPBE1PBE) =  -4067.32060377     A.U. after   16 cycles

 Excitation energies and oscillator strengths:

 Excited State   1:      Singlet-A      1.8696 eV  663.16 nm  f=0.4356  <S**2>=0.000
     309 -> 315        0.18936
     312 -> 313        0.68019
 This state for optimization and/or second-order correction.
 Total Energy, E(TD-HF/TD-DFT) =  -4067.25189781
 Copying the excited state density for this state as the 1-particle RhoCI density.

 Excited State   2:      Singlet-A      1.8972 eV  653.51 nm  f=0.2687  <S**2>=0.000
     310 -> 316        0.18609
     311 -> 314        0.68097

 Excited State   3:      Singlet-A      1.9605 eV  632.40 nm  f=0.0000  <S**2>=0.000
     311 -> 313        0.70708

 Excited State   4:      Singlet-A      1.9744 eV  627.97 nm  f=0.0000  <S**2>=0.000
     312 -> 314        0.70708

 Excited State   5:      Singlet-A      2.2319 eV  555.50 nm  f=0.0334  <S**2>=0.000
     309 -> 313        0.61016
     310 -> 314        0.16986
     312 -> 315       -0.28356

 The electronic state is 1-A.
 Alpha  occ. eigenvalues --  -46.94052 -46.93815 -19.26729 -19.24272 -19.20318
 Alpha  occ. eigenvalues --  -19.20228 -19.19921 -19.19132 -19.18869 -19.18095
 Alpha  occ. eigenvalues --  -14.41987 -14.41885 -14.41556 -14.41223 -14.40241
 Alpha  occ. eigenvalues --  -14.40084 -14.39251 -14.38825 -10.37059 -10.36356
 Alpha  occ. eigenvalues --  -10.33118 -10.32344 -10.31910 -10.30616 -10.30511
 Alpha  occ. eigenvalues --  -10.29850 -10.29461 -10.29371 -10.29327 -10.29219
 Alpha  occ. eigenvalues --  -10.28986 -10.28790 -10.28763 -10.28706 -10.28467
 Alpha  occ. eigenvalues --  -10.28385 -10.28086 -10.27886 -10.27727 -10.27532
 Alpha  occ. eigenvalues --  -10.27219 -10.27161 -10.27075 -10.27062 -10.27048
 Alpha  occ. eigenvalues --  -10.26888 -10.26570 -10.26555 -10.26533 -10.26266
 Alpha  occ. eigenvalues --  -10.26258 -10.26171 -10.26134 -10.26046 -10.26045
 Alpha  occ. eigenvalues --  -10.26037 -10.25909 -10.25901 -10.25873 -10.25727
 Alpha  occ. eigenvalues --  -10.25697 -10.25605 -10.25514 -10.25485 -10.25306
 Alpha  occ. eigenvalues --  -10.25226 -10.24992 -10.24969 -10.24573 -10.24512
 Alpha  occ. eigenvalues --  -10.24468 -10.24298 -10.24278 -10.24046 -10.23963
 Alpha  occ. eigenvalues --  -10.23909 -10.23858 -10.23846 -10.23808 -10.23678
 Alpha  occ. eigenvalues --  -10.23625 -10.23559 -10.23477 -10.23462 -10.23255
 Alpha  occ. eigenvalues --  -10.22997  -3.16044  -3.15762  -1.88826  -1.88562
 Alpha  occ. eigenvalues --   -1.88470  -1.88231  -1.88154  -1.87973  -1.11263
 Alpha  occ. eigenvalues --   -1.08564  -1.06165  -1.05566  -1.05045  -1.03710
 Alpha  occ. eigenvalues --   -1.01898  -1.01076  -0.99483  -0.99364  -0.98462
 Alpha  occ. eigenvalues --   -0.97928  -0.97801  -0.97711  -0.96658  -0.95755
 Alpha  occ. eigenvalues --   -0.87225  -0.86918  -0.83301  -0.83174  -0.83092
 Alpha  occ. eigenvalues --   -0.82702  -0.82619  -0.82023  -0.81724  -0.81182
 Alpha  occ. eigenvalues --   -0.81043  -0.80520  -0.80269  -0.79837  -0.79152
 Alpha  occ. eigenvalues --   -0.79130  -0.78057  -0.77843  -0.77688  -0.76893
 Alpha  occ. eigenvalues --   -0.76741  -0.76094  -0.75447  -0.75174  -0.74764
 Alpha  occ. eigenvalues --   -0.74143  -0.72431  -0.71867  -0.71630  -0.71595
 Alpha  occ. eigenvalues --   -0.71205  -0.70951  -0.70737  -0.70032  -0.69682
 Alpha  occ. eigenvalues --   -0.69524  -0.67336  -0.67257  -0.66495  -0.66294
 Alpha  occ. eigenvalues --   -0.64266  -0.63798  -0.63430  -0.62972  -0.62785
 Alpha  occ. eigenvalues --   -0.62064  -0.61568  -0.61290  -0.60364  -0.59922
 Alpha  occ. eigenvalues --   -0.59748  -0.59456  -0.59390  -0.59348  -0.59193
 Alpha  occ. eigenvalues --   -0.58523  -0.58330  -0.56300  -0.54805  -0.54591
 Alpha  occ. eigenvalues --   -0.54343  -0.53905  -0.53682  -0.53490  -0.53434
 Alpha  occ. eigenvalues --   -0.52845  -0.52334  -0.51941  -0.51770  -0.51474
 Alpha  occ. eigenvalues --   -0.51122  -0.50796  -0.50650  -0.50189  -0.50093
 Alpha  occ. eigenvalues --   -0.49659  -0.49268  -0.48866  -0.48670  -0.48379
 Alpha  occ. eigenvalues --   -0.48351  -0.48220  -0.48018  -0.47820  -0.47764
 Alpha  occ. eigenvalues --   -0.47523  -0.47395  -0.47335  -0.47032  -0.46566
 Alpha  occ. eigenvalues --   -0.46501  -0.46307  -0.46197  -0.46044  -0.45824
 Alpha  occ. eigenvalues --   -0.45773  -0.45512  -0.45369  -0.45184  -0.45178
 Alpha  occ. eigenvalues --   -0.44650  -0.44570  -0.44428  -0.44396  -0.44356
 Alpha  occ. eigenvalues --   -0.44149  -0.43997  -0.43784  -0.43631  -0.43532
 Alpha  occ. eigenvalues --   -0.43383  -0.43233  -0.43088  -0.42958  -0.42753
 Alpha  occ. eigenvalues --   -0.42549  -0.42306  -0.42248  -0.41989  -0.41923
 Alpha  occ. eigenvalues --   -0.41775  -0.41611  -0.41380  -0.41368  -0.41106
 Alpha  occ. eigenvalues --   -0.41026  -0.40814  -0.40811  -0.40513  -0.40512
 Alpha  occ. eigenvalues --   -0.40289  -0.40146  -0.40078  -0.39976  -0.39672
 Alpha  occ. eigenvalues --   -0.39646  -0.39412  -0.39172  -0.39056  -0.39052
 Alpha  occ. eigenvalues --   -0.38866  -0.38829  -0.38701  -0.38653  -0.38464
 Alpha  occ. eigenvalues --   -0.38399  -0.38191  -0.38012  -0.37955  -0.37821
 Alpha  occ. eigenvalues --   -0.37663  -0.37345  -0.37285  -0.37220  -0.37067
 Alpha  occ. eigenvalues --   -0.37040  -0.36880  -0.36772  -0.36647  -0.36643
 Alpha  occ. eigenvalues --   -0.36268  -0.36170  -0.36080  -0.35297  -0.35120
 Alpha  occ. eigenvalues --   -0.34950  -0.34856  -0.34782  -0.34204  -0.34160
 Alpha  occ. eigenvalues --   -0.33917  -0.33724  -0.33170  -0.32807  -0.32469
 Alpha  occ. eigenvalues --   -0.32278  -0.32236  -0.32066  -0.31760  -0.31397
 Alpha  occ. eigenvalues --   -0.31243  -0.30153  -0.29820  -0.29582  -0.29482
 Alpha  occ. eigenvalues --   -0.29142  -0.28730  -0.28318  -0.27026  -0.26950
 Alpha  occ. eigenvalues --   -0.26575  -0.26207  -0.26104  -0.26013  -0.25784
 Alpha  occ. eigenvalues --   -0.25478  -0.25081  -0.24352  -0.21298  -0.21006
 Alpha  occ. eigenvalues --   -0.19058  -0.19025
 Alpha virt. eigenvalues --   -0.11248  -0.11187  -0.06029  -0.05562  -0.04295
 Alpha virt. eigenvalues --   -0.04160  -0.02427  -0.02337  -0.02074  -0.02004
 Alpha virt. eigenvalues --   -0.00160   0.00183   0.00238   0.01119   0.01497

 Mulliken charges:
               1
     1  Mg  12.000186
     2  C    5.997770
     3  C    6.000295
     4  C    6.003215
     5  C    5.999843
     6  N    6.998521
     7  C    6.003807
     8  C    5.998764
     9  C    6.000633
    10  C    5.996942
    11  C    6.000426
    12  C    5.999605
    13  C    5.999291
    14  H    1.000867
    15  N    7.000949
    16  C    5.995294
    17  C    5.996998
    18  C    5.998393
    19  C    5.995245
    20  C    6.000351
    21  C    5.998392
    22  O    7.997217
    23  C    6.000272
    24  N    7.000875
    25  C    5.994534
    26  C    6.001492
    27  C    5.998996
    28  C    6.003219
    29  C    6.000094
    30  C    5.999466
    31  C    5.999734
    32  N    6.999439
    33  C    6.004357
    34  C    6.004524
    35  C    6.000252
    36  C    6.004203
    37  C    5.999966
    38  C    6.002653
    39  O    8.004007
    40  C    6.000053
    41  C    6.000082
    42  O    8.000636
    43  O    8.000182
    44  C    5.999806
    45  H    0.998246
    46  H    0.999120
    47  H    1.001692
    48  H    0.999950
    49  H    0.999875
    50  H    1.000991
    51  H    0.998725
    52  H    0.998314
    53  H    0.999271
    54  H    1.000702
    55  H    1.001117
    56  H    0.999444
    57  H    0.997325
    58  H    0.997731
    59  H    0.997882
    60  H    0.998182
    61  H    0.998651
    62  H    0.999147
    63  H    0.999984
    64  H    1.000089
    65  H    1.000291
    66  H    0.999692
    67  H    0.998969
    68  H    1.000204
    69  H    1.001359
    70  H    1.000299
    71  H    1.000945
    72  H    0.999621
    73  H    1.003183
    74  H    1.002397
    75  H    1.002296
    76  H    1.001060
    77  H    1.000904
    78  H    1.000432
    79  H    1.000068
    80  Mg  12.003230
    81  C    5.985297
    82  C    5.999129
    83  C    6.028259
    84  C    5.988995
    85  N    6.990303
    86  C    6.026767
    87  C    5.994739
    88  C    6.004032
    89  C    5.974118
    90  C    6.006802
    91  C    5.998458
    92  C    5.998724
    93  H    1.008004
    94  N    7.007492
    95  C    5.966918
    96  C    5.975193
    97  C    5.997255
    98  C    5.963187
    99  C    6.000896
   100  C    5.987157
   101  O    7.983446
   102  C    6.003813
   103  N    7.000948
   104  C    5.962625
   105  C    6.010353
   106  C    5.994692
   107  C    6.032226
   108  C    6.000681
   109  C    5.996953
   110  C    6.001230
   111  N    6.996665
   112  C    6.027262
   113  C    6.036192
   114  C    5.993271
   115  C    6.037455
   116  C    5.999393
   117  C    6.016527
   118  O    8.027611
   119  C    5.998209
   120  C    6.003674
   121  O    8.009070
   122  O    7.996525
   123  C    5.998657
   124  H    0.988374
   125  H    0.993873
   126  H    1.008287
   127  H    0.998939
   128  H    0.999832
   129  H    0.994209
   130  H    0.987013
   131  H    1.002719
   132  H    1.008107
   133  H    0.993211
   134  H    0.997459
   135  H    0.999134
   136  H    0.986211
   137  H    0.983751
   138  H    0.985348
   139  H    0.991983
   140  H    0.990095
   141  H    0.989544
   142  H    0.996533
   143  H    0.997515
   144  H    0.990061
   145  H    0.999599
   146  H    1.002918
   147  H    0.993465
   148  H    1.008810
   149  H    1.004323
   150  H    0.998998
   151  H    1.005282
   152  H    1.019300
   153  H    1.019636
   154  H    1.013296
   155  H    1.007336
   156  H    1.004113
   157  H    1.006271
   158  H    1.002023
 Sum of Mulliken charges = 624.00000

 Dipole moment (field-independent basis, Debye):
    X=              9.7237    Y=             -4.8566    Z=             -2.1766  Tot=             11.0849
 Quadrupole moment (field-independent basis, Debye-Ang):
   XX=            154.2581   YY=             -4.5102   ZZ=              0.8780
   XY=            -44.6322   XZ=            -14.1960   YZ=             -1.6661

 Normal termination of Gaussian 16 at Fri Oct 15 00:03:15 2021.
