 Gaussian 16, Revision A.03,
 Gaussian 16:  ES64L-G16RevA.03 25-Dec-2016

 --------------------------------------------------------
 #p PBE1PBE/Def2SVP td=(nstates=5) density=(transition=1)
 --------------------------------------------------------

 --------------------------------
 TDDFT excited states in gaussian
 --------------------------------
 Symbolic Z-matrix:
 Charge =  0 Multiplicity = 1

                         Standard orientation:
 ---------------------------------------------------------------------
 Center     Atomic      Atomic             Coordinates (Angstroms)
 Number     Number       Type             X           Y           Z
 ---------------------------------------------------------------------
      1         12           0       -9.796796   -0.884356    0.353454
      2          6           0       -9.636839    2.701675   -0.193150
      3          6           0       -7.830910   -0.324521    3.034269
      4          6           0       -9.901521   -4.048073    0.780901
      5          6           0      -11.572782   -1.191261   -2.694259
      6          7           0       -8.842108    1.094269    1.341967
      7          6           0       -9.004044    2.382120    0.992579
      8          6           0       -8.389051    3.305581    2.061493
      9          6           0       -7.459916    2.211855    2.767893
     10          6           0       -8.103556    0.936270    2.418363
     11          6           0       -5.952538    2.353646    2.638757
     12          6           0       -9.524013    3.901624    2.912087
     13          6           0       -9.141158    5.263137    3.563500
     14          1           0       -7.842188    6.096792    3.148035
     15          7           0       -9.006022   -2.080306    1.771573
     16          6           0       -8.134873   -1.699506    2.774185
     17          6           0       -7.722406   -2.902367    3.491003
     18          6           0       -8.385050   -3.999823    2.887925
     19          6           0       -9.133309   -3.378953    1.758356
     20          6           0       -6.786546   -2.912581    4.616619
     21          6           0       -8.394858   -5.563653    3.300715
     22          8           0       -9.150181   -6.343741    2.788510
     23          6           0       -7.667856   -6.067430    4.560447
     24          7           0      -10.399697   -2.416022   -0.957614
     25          6           0      -10.471764   -3.642824   -0.447463
     26          6           0      -11.181561   -4.639629   -1.323728
     27          6           0      -12.019710   -3.657922   -2.178620
     28          6           0      -11.153898   -2.359856   -2.028438
     29          6           0      -10.209282   -5.530447   -2.228846
     30          6           0      -13.540940   -3.490164   -1.761504
     31          6           0      -14.297135   -4.673882   -1.091055
     32          7           0      -10.382264    0.404589   -1.198558
     33          6           0      -11.125483    0.195610   -2.313326
     34          6           0      -11.472138    1.391025   -2.937762
     35          6           0      -10.871031    2.349717   -2.173139
     36          6           0      -10.228820    1.750660   -1.107515
     37          6           0      -12.380593    1.538592   -4.155258
     38          6           0      -10.726525    3.810788   -2.088739
     39          8           0      -10.978420    4.720031   -2.865184
     40          6           0       -9.965306    4.060897   -0.714292
     41          6           0       -8.829055    4.920643   -0.995984
     42          8           0       -7.751692    4.587327   -1.499674
     43          8           0       -9.256003    6.192796   -0.853975
     44          6           0       -8.353603    7.153834   -1.462386
     45          1           0       -7.053825   -0.159556    3.783624
     46          1           0       -9.882219   -5.128208    0.936716
     47          1           0      -12.203402   -1.328317   -3.574954
     48          1           0       -7.727977    4.049634    1.616943
     49          1           0       -7.616391    2.343705    3.837645
     50          1           0       -5.479924    2.592383    3.591032
     51          1           0       -5.708172    3.134439    1.918762
     52          1           0       -5.457182    1.475871    2.223685
     53          1           0       -9.678284    3.232142    3.758605
     54          1           0      -10.480382    3.967798    2.393684
     55          1           0       -9.177150    5.213893    4.652266
     56          1           0      -10.059892    5.834681    3.432463
     57          1           0       -6.754612   -1.949065    5.124820
     58          1           0       -5.819833   -3.160443    4.177955
     59          1           0       -7.029392   -3.641118    5.390467
     60          1           0       -8.085764   -5.686347    5.492205
     61          1           0       -6.614562   -5.865387    4.364661
     62          1           0       -7.688262   -7.157218    4.587518
     63          1           0      -11.710586   -5.260140   -0.600796
     64          1           0      -12.037503   -3.920074   -3.236196
     65          1           0      -10.626935   -6.525963   -2.080211
     66          1           0       -9.166509   -5.526199   -1.909564
     67          1           0      -10.230421   -5.318962   -3.297244
     68          1           0      -14.101888   -3.144990   -2.628843
     69          1           0      -13.445972   -2.755208   -0.961978
     70          1           0      -14.143171   -4.660423   -0.012339
     71          1           0      -13.921368   -5.545493   -1.628097
     72          1           0      -15.365382   -4.653864   -1.304015
     73          1           0      -13.063346    0.691154   -4.089235
     74          1           0      -11.852925    1.425366   -5.101828
     75          1           0      -12.898397    2.494621   -4.079984
     76          1           0      -10.678534    4.557946   -0.055555
     77          1           0       -8.696614    8.184426   -1.375728
     78          1           0       -7.986278    6.915171   -2.460627
     79          1           0       -7.417544    7.200191   -0.904772
     80         12           0        9.850044   -0.621825   -0.243890
     81          6           0        7.901717    2.315217   -0.239004
     82          6           0       12.416276    1.284769    1.069114
     83          6           0       11.892895   -3.356422   -0.301575
     84          6           0        7.393368   -2.269360   -1.831228
     85          7           0       10.115541    1.573733    0.386900
     86          6           0        9.150457    2.572603    0.432409
     87          6           0        9.659466    3.764806    1.217475
     88          6           0       11.211001    3.522830    1.290533
     89          6           0       11.238707    2.058464    0.914234
     90          6           0       12.096515    4.477323    0.397191
     91          6           0        9.078473    3.847888    2.636877
     92          6           0        8.793382    5.263750    3.149155
     93          1           0        9.997388    6.195271    3.461738
     94          7           0       11.830221   -1.017057    0.382473
     95          6           0       12.671975   -0.062953    0.842506
     96          6           0       13.960545   -0.646106    1.030708
     97          6           0       13.867219   -2.059999    0.787337
     98          6           0       12.532227   -2.176430    0.227589
     99          6           0       15.147741    0.162763    1.474424
    100          6           0       14.898959   -3.183442    0.890329
    101          8           0       14.572631   -4.387036    0.793263
    102          6           0       16.392504   -2.915467    1.037231
    103          7           0        9.635133   -2.537476   -0.874056
    104          6           0       10.630011   -3.510521   -0.876110
    105          6           0       10.106994   -4.739432   -1.546223
    106          6           0        8.626373   -4.491068   -2.009189
    107          6           0        8.485829   -3.039142   -1.524064
    108          6           0       11.052423   -5.344194   -2.627397
    109          6           0        7.566452   -5.421273   -1.380348
    110          6           0        7.201760   -6.626680   -2.268293
    111          7           0        8.065785   -0.142091   -0.949031
    112          6           0        7.074971   -0.920946   -1.545178
    113          6           0        5.801732   -0.149455   -1.797071
    114          6           0        6.158442    1.119002   -1.311362
    115          6           0        7.483012    1.069750   -0.769578
    116          6           0        4.522794   -0.679561   -2.419241
    117          6           0        5.619268    2.460260   -1.144962
    118          8           0        4.534446    2.941668   -1.474291
    119          6           0        6.724979    3.244034   -0.318217
    120          6           0        6.978381    4.541560   -1.110682
    121          8           0        7.042908    4.648732   -2.317964
    122          8           0        6.955730    5.615045   -0.222341
    123          6           0        7.181183    6.903501   -0.877701
    124          1           0       13.177953    1.896468    1.556705
    125          1           0       12.453522   -4.291372   -0.361299
    126          1           0        6.699324   -2.837985   -2.453104
    127          1           0        9.498658    4.728509    0.734864
    128          1           0       11.646783    3.659607    2.280260
    129          1           0       11.560484    5.284396   -0.103042
    130          1           0       12.632967    4.012604   -0.429722
    131          1           0       12.830952    5.003579    1.006935
    132          1           0        9.733684    3.366126    3.362257
    133          1           0        8.107871    3.353857    2.685505
    134          1           0        8.131729    5.257401    4.015228
    135          1           0        8.181676    5.823762    2.442138
    136          1           0       15.107288    1.008666    0.788030
    137          1           0       16.136712   -0.279224    1.354113
    138          1           0       15.084723    0.547747    2.491967
    139          1           0       16.733099   -2.196179    0.292253
    140          1           0       16.813986   -3.909968    0.891593
    141          1           0       16.621483   -2.492654    2.015435
    142          1           0       10.189155   -5.547221   -0.818382
    143          1           0        8.474998   -4.474057   -3.089263
    144          1           0       11.912499   -4.681063   -2.722788
    145          1           0       10.525868   -5.366078   -3.581151
    146          1           0       11.330228   -6.316198   -2.218432
    147          1           0        6.728898   -4.795282   -1.073347
    148          1           0        7.964129   -5.920359   -0.496412
    149          1           0        8.021835   -6.841097   -2.953850
    150          1           0        6.356731   -6.497298   -2.944779
    151          1           0        7.086609   -7.496549   -1.620953
    152          1           0        4.051513   -1.328373   -1.680765
    153          1           0        4.650389   -1.281885   -3.318482
    154          1           0        3.906644    0.197838   -2.615146
    155          1           0        6.454048    3.503194    0.705100
    156          1           0        8.226577    7.206321   -0.944489
    157          1           0        6.594036    7.601817   -0.281447
    158          1           0        6.868159    7.035434   -1.913405
 ---------------------------------------------------------------------

 SCF Done:  E(RPBE1PBE) =  -4067.38277866     A.U. after   16 cycles

 Excitation energies and oscillator strengths:

 Excited State   1:      Singlet-A      1.8492 eV  670.49 nm  f=0.3777  <S**2>=0.000
     309 -> 315       -0.18096
     312 -> 313        0.69136
     312 <- 313       -0.10445
 This state for optimization and/or second-order correction.
 Total Energy, E(TD-HF/TD-DFT) =  -4067.31482301
 Copying the excited state density for this state as the 1-particle RhoCI density.

 Excited State   2:      Singlet-A      1.9149 eV  647.47 nm  f=0.0000  <S**2>=0.000
     311 -> 313        0.70707

 Excited State   3:      Singlet-A      1.9471 eV  636.77 nm  f=0.3491  <S**2>=0.000
     310 -> 316       -0.18483
     311 -> 314        0.68730

 Excited State   4:      Singlet-A      2.0019 eV  619.33 nm  f=0.0000  <S**2>=0.000
     312 -> 314        0.70709

 Excited State   5:      Singlet-A      2.2267 eV  556.81 nm  f=0.0787  <S**2>=0.000
     309 -> 313        0.64697
     312 -> 315        0.27280

 The electronic state is 1-A.
 Alpha  occ. eigenvalues --  -46.92646 -46.91079 -19.26395 -19.25415 -19.20600
 Alpha  occ. eigenvalues --  -19.20419 -19.19356 -19.19344 -19.19192 -19.18875
 Alpha  occ. eigenvalues --  -14.42039 -14.40972 -14.40661 -14.40632 -14.39598
 Alpha  occ. eigenvalues --  -14.39330 -14.39075 -14.38359 -10.36694 -10.35071
 Alpha  occ. eigenvalues --  -10.33859 -10.32906 -10.32266 -10.32061 -10.29306
 Alpha  occ. eigenvalues --  -10.28692 -10.28477 -10.28464 -10.28373 -10.28231
 Alpha  occ. eigenvalues --  -10.28201 -10.28164 -10.28116 -10.28014 -10.27932
 Alpha  occ. eigenvalues --  -10.27622 -10.27437 -10.27381 -10.27082 -10.27076
 Alpha  occ. eigenvalues --  -10.26626 -10.26624 -10.26618 -10.26564 -10.26465
 Alpha  occ. eigenvalues --  -10.26407 -10.26407 -10.26189 -10.26151 -10.26141
 Alpha  occ. eigenvalues --  -10.25825 -10.25768 -10.25670 -10.25625 -10.25170
 Alpha  occ. eigenvalues --  -10.25122 -10.25121 -10.25101 -10.25083 -10.25048
 Alpha  occ. eigenvalues --  -10.25038 -10.25003 -10.25001 -10.24693 -10.24510
 Alpha  occ. eigenvalues --  -10.24335 -10.24333 -10.24324 -10.24169 -10.24052
 Alpha  occ. eigenvalues --  -10.24038 -10.23913 -10.23834 -10.23787 -10.23746
 Alpha  occ. eigenvalues --  -10.23620 -10.23504 -10.23473 -10.23379 -10.23285
 Alpha  occ. eigenvalues --  -10.23173 -10.23045 -10.23008 -10.22947 -10.22800
 Alpha  occ. eigenvalues --  -10.21624  -3.14728  -3.13436  -1.87570  -1.87120
 Alpha  occ. eigenvalues --   -1.86936  -1.86277  -1.85787  -1.85704  -1.11144
 Alpha  occ. eigenvalues --   -1.11035  -1.07077  -1.04281  -1.03990  -1.03552
 Alpha  occ. eigenvalues --   -1.02983  -1.01306  -1.00337  -0.99646  -0.99264
 Alpha  occ. eigenvalues --   -0.99052  -0.98262  -0.98247  -0.97814  -0.96104
 Alpha  occ. eigenvalues --   -0.86938  -0.86679  -0.83692  -0.83326  -0.83116
 Alpha  occ. eigenvalues --   -0.82832  -0.82593  -0.82321  -0.81828  -0.81611
 Alpha  occ. eigenvalues --   -0.81224  -0.81144  -0.80498  -0.80062  -0.78652
 Alpha  occ. eigenvalues --   -0.78471  -0.77900  -0.77345  -0.76585  -0.76522
 Alpha  occ. eigenvalues --   -0.75852  -0.75817  -0.75257  -0.74972  -0.74393
 Alpha  occ. eigenvalues --   -0.74342  -0.72701  -0.72588  -0.71797  -0.71572
 Alpha  occ. eigenvalues --   -0.71021  -0.70869  -0.70462  -0.69987  -0.69481
 Alpha  occ. eigenvalues --   -0.69413  -0.67200  -0.67159  -0.66081  -0.65944
 Alpha  occ. eigenvalues --   -0.63870  -0.63719  -0.63269  -0.63044  -0.62652
 Alpha  occ. eigenvalues --   -0.62075  -0.61683  -0.60968  -0.60188  -0.59933
 Alpha  occ. eigenvalues --   -0.59796  -0.59423  -0.59030  -0.59013  -0.58773
 Alpha  occ. eigenvalues --   -0.58143  -0.57144  -0.56308  -0.55086  -0.54903
 Alpha  occ. eigenvalues --   -0.54633  -0.53877  -0.53726  -0.53516  -0.53168
 Alpha  occ. eigenvalues --   -0.52861  -0.52387  -0.52278  -0.52034  -0.52007
 Alpha  occ. eigenvalues --   -0.50904  -0.50629  -0.50017  -0.49891  -0.49728
 Alpha  occ. eigenvalues --   -0.49687  -0.49049  -0.49047  -0.48417  -0.48385
 Alpha  occ. eigenvalues --   -0.48096  -0.48076  -0.47936  -0.47705  -0.47494
 Alpha  occ. eigenvalues --   -0.47449  -0.47159  -0.47142  -0.46702  -0.46698
 Alpha  occ. eigenvalues --   -0.46438  -0.46212  -0.45966  -0.45831  -0.45805
 Alpha  occ. eigenvalues --   -0.45655  -0.45128  -0.45127  -0.44899  -0.44640
 Alpha  occ. eigenvalues --   -0.44636  -0.44582  -0.44410  -0.44160  -0.44004
 Alpha  occ. eigenvalues --   -0.43696  -0.43513  -0.43469  -0.43330  -0.43242
 Alpha  occ. eigenvalues --   -0.43180  -0.43152  -0.42799  -0.42767  -0.42717
 Alpha  occ. eigenvalues --   -0.42540  -0.42200  -0.42110  -0.42106  -0.41959
 Alpha  occ. eigenvalues --   -0.41628  -0.41503  -0.41384  -0.41319  -0.41239
 Alpha  occ. eigenvalues --   -0.40984  -0.40680  -0.40633  -0.40459  -0.40252
 Alpha  occ. eigenvalues --   -0.40161  -0.39737  -0.39722  -0.39414  -0.39312
 Alpha  occ. eigenvalues --   -0.39304  -0.39191  -0.39035  -0.39022  -0.38868
 Alpha  occ. eigenvalues --   -0.38701  -0.38543  -0.38401  -0.38316  -0.38314
 Alpha  occ. eigenvalues --   -0.37964  -0.37955  -0.37933  -0.37895  -0.37721
 Alpha  occ. eigenvalues --   -0.37479  -0.37465  -0.37277  -0.37159  -0.37040
 Alpha  occ. eigenvalues --   -0.36924  -0.36766  -0.36569  -0.36417  -0.36152
 Alpha  occ. eigenvalues --   -0.36086  -0.36057  -0.35902  -0.35462  -0.35253
 Alpha  occ. eigenvalues --   -0.35192  -0.34673  -0.34537  -0.34095  -0.33711
 Alpha  occ. eigenvalues --   -0.33482  -0.33333  -0.33066  -0.32948  -0.32865
 Alpha  occ. eigenvalues --   -0.32336  -0.32232  -0.31865  -0.31674  -0.31559
 Alpha  occ. eigenvalues --   -0.30699  -0.30592  -0.30358  -0.29851  -0.29306
 Alpha  occ. eigenvalues --   -0.28530  -0.28443  -0.27852  -0.26851  -0.26707
 Alpha  occ. eigenvalues --   -0.26485  -0.26320  -0.26072  -0.26051  -0.25781
 Alpha  occ. eigenvalues --   -0.25539  -0.25405  -0.25174  -0.20865  -0.20232
 Alpha  occ. eigenvalues --   -0.18770  -0.18705
 Alpha virt. eigenvalues --   -0.11066  -0.10658  -0.05254  -0.04533  -0.04232
 Alpha virt. eigenvalues --   -0.03513  -0.02637  -0.01714  -0.00329   0.00243
 Alpha virt. eigenvalues --    0.00312   0.00505   0.01246   0.01318   0.01630

 Mulliken charges:
               1
     1  Mg  11.999800
     2  C    5.999504
     3  C    5.999761
     4  C    6.000584
     5  C    6.000359
     6  N    6.999666
     7  C    6.000054
     8  C    5.999949
     9  C    6.000101
    10  C    5.999762
    11  C    6.000369
    12  C    5.999903
    13  C    5.999956
    14  H    0.999473
    15  N    7.000087
    16  C    5.999523
    17  C    5.999774
    18  C    5.999990
    19  C    5.999565
    20  C    6.000014
    21  C    5.999739
    22  O    8.000147
    23  C    6.000102
    24  N    7.000174
    25  C    5.999577
    26  C    6.000136
    27  C    5.999931
    28  C    5.999883
    29  C    5.999927
    30  C    5.999857
    31  C    5.999997
    32  N    6.999962
    33  C    6.000025
    34  C    6.000294
    35  C    5.999927
    36  C    6.000143
    37  C    5.999963
    38  C    6.000230
    39  O    8.000385
    40  C    6.000086
    41  C    6.000101
    42  O    7.999256
    43  O    8.000275
    44  C    6.000172
    45  H    0.999416
    46  H    1.000257
    47  H    1.000451
    48  H    0.999598
    49  H    1.000303
    50  H    0.999889
    51  H    0.999154
    52  H    0.998934
    53  H    1.000367
    54  H    1.000244
    55  H    1.000361
    56  H    1.000373
    57  H    1.000040
    58  H    0.999071
    59  H    1.000323
    60  H    1.000326
    61  H    0.999543
    62  H    1.000279
    63  H    1.000365
    64  H    1.000169
    65  H    1.000424
    66  H    0.999603
    67  H    0.999925
    68  H    1.000224
    69  H    1.000050
    70  H    1.000166
    71  H    1.000136
    72  H    1.000433
    73  H    1.000417
    74  H    1.000131
    75  H    1.000425
    76  H    1.000369
    77  H    1.000457
    78  H    0.999723
    79  H    0.999572
    80  Mg  11.999512
    81  C    5.982939
    82  C    6.010321
    83  C    6.017306
    84  C    5.990786
    85  N    6.993704
    86  C    6.031674
    87  C    5.990617
    88  C    6.010380
    89  C    5.968222
    90  C    6.003015
    91  C    5.996879
    92  C    5.998738
    93  H    1.009282
    94  N    7.003793
    95  C    5.965342
    96  C    5.975599
    97  C    5.986919
    98  C    5.971337
    99  C    6.002081
   100  C    5.988958
   101  O    7.973511
   102  C    6.003243
   103  N    7.005812
   104  C    5.967743
   105  C    6.008814
   106  C    5.988833
   107  C    6.030511
   108  C    6.001918
   109  C    5.996297
   110  C    5.999946
   111  N    7.000409
   112  C    6.034135
   113  C    6.032218
   114  C    5.999006
   115  C    6.029233
   116  C    6.000682
   117  C    6.016410
   118  O    8.029067
   119  C    6.000065
   120  C    6.006233
   121  O    8.002292
   122  O    8.002259
   123  C    5.997684
   124  H    0.990363
   125  H    0.993853
   126  H    1.009354
   127  H    1.000435
   128  H    0.999168
   129  H    0.986914
   130  H    1.000975
   131  H    0.997796
   132  H    1.011464
   133  H    0.993542
   134  H    1.000466
   135  H    0.996130
   136  H    0.984585
   137  H    0.985044
   138  H    0.979331
   139  H    0.993432
   140  H    0.987414
   141  H    0.992538
   142  H    0.999042
   143  H    1.001300
   144  H    1.004842
   145  H    0.989748
   146  H    0.998631
   147  H    0.994398
   148  H    1.009879
   149  H    1.005896
   150  H    0.998350
   151  H    1.004137
   152  H    1.017898
   153  H    1.017692
   154  H    1.011491
   155  H    1.007909
   156  H    1.006989
   157  H    1.003550
   158  H    1.001720
 Sum of Mulliken charges = 624.00000

 Dipole moment (field-independent basis, Debye):
    X=             -9.7601    Y=              2.0458    Z=             -2.8747  Tot=             10.3783
 Quadrupole moment (field-independent basis, Debye-Ang):
   XX=           -189.5773   YY=              1.3026   ZZ=              2.5248
   XY=             25.0439   XZ=            -24.1564   YZ=              1.3905

 Normal termination of Gaussian 16 at Thu Oct 14 21:00:04 2021.
