 Gaussian 16, Revision A.03,
 Gaussian 16:  ES64L-G16RevA.03 25-Dec-2016

 --------------------------------------------------------
 #p PBE1PBE/Def2SVP td=(nstates=5) density=(transition=1)
 --------------------------------------------------------

 --------------------------------
 TDDFT excited states in gaussian
 --------------------------------
 Symbolic Z-matrix:
 Charge =  0 Multiplicity = 1

                         Standard orientation:
 ---------------------------------------------------------------------
 Center     Atomic      Atomic             Coordinates (Angstroms)
 Number     Number       Type             X           Y           Z
 ---------------------------------------------------------------------
      1         12           0       17.605069    0.710335    0.252277
      2          6           0       17.315261   -2.438415   -1.246400
      3          6           0       16.838826   -0.669709    3.283607
      4          6           0       17.560379    3.761122    1.529733
      5          6           0       18.205445    2.048723   -3.007276
      6          7           0       17.084242   -1.342234    0.906097
      7          6           0       17.084080   -2.507485    0.172009
      8          6           0       17.000305   -3.713649    1.089127
      9          6           0       16.568614   -3.079862    2.470370
     10          6           0       16.952177   -1.585353    2.198205
     11          6           0       15.087635   -3.249881    2.784242
     12          6           0       18.327294   -4.551769    0.996751
     13          6           0       18.417725   -5.684165    2.057044
     14          1           0       17.108958   -6.295979    2.511750
     15          7           0       17.277105    1.415359    2.085274
     16          6           0       16.865654    0.714669    3.212025
     17          6           0       16.639106    1.611034    4.359367
     18          6           0       16.897476    2.911541    3.826817
     19          6           0       17.253096    2.725204    2.422550
     20          6           0       16.283804    1.123576    5.713941
     21          6           0       16.800197    4.213990    4.578569
     22          8           0       17.091212    5.318644    4.041583
     23          6           0       16.426525    4.249052    6.035695
     24          7           0       17.908661    2.644401   -0.625689
     25          6           0       17.830247    3.716188    0.163394
     26          6           0       17.937127    5.048851   -0.700730
     27          6           0       18.110568    4.483397   -2.218994
     28          6           0       18.058774    2.978780   -1.950353
     29          6           0       16.629232    5.909163   -0.461627
     30          6           0       19.493514    4.856442   -2.905615
     31          6           0       19.542565    6.234985   -3.624961
     32          7           0       17.677830    0.041388   -1.714382
     33          6           0       18.044640    0.653714   -2.941876
     34          6           0       18.088341   -0.401876   -4.045997
     35          6           0       17.740292   -1.610796   -3.451961
     36          6           0       17.579667   -1.294088   -2.009822
     37          6           0       18.474623   -0.214059   -5.479670
     38          6           0       17.561088   -3.031439   -3.639955
     39          8           0       17.634496   -3.750728   -4.641268
     40          6           0       17.453584   -3.673816   -2.168922
     41          6           0       16.307802   -4.651207   -2.039630
     42          8           0       15.182767   -4.335883   -1.760085
     43          8           0       16.772423   -5.985806   -2.052811
     44          6           0       15.880702   -7.015030   -1.497604
     45          1           0       16.538142   -1.248122    4.160082
     46          1           0       17.528873    4.766873    1.954276
     47          1           0       18.279138    2.399862   -4.038742
     48          1           0       16.208950   -4.358200    0.708607
     49          1           0       17.146925   -3.401249    3.337211
     50          1           0       15.049040   -3.758490    3.747414
     51          1           0       14.614868   -3.763317    1.947315
     52          1           0       14.599729   -2.309684    3.040193
     53          1           0       19.072432   -3.760717    0.918416
     54          1           0       18.312511   -5.000671    0.004158
     55          1           0       18.939236   -5.202981    2.884492
     56          1           0       19.026160   -6.486698    1.640338
     57          1           0       15.287110    1.540710    5.856785
     58          1           0       17.001468    1.417613    6.479376
     59          1           0       16.156251    0.053556    5.882846
     60          1           0       17.195577    3.733958    6.609678
     61          1           0       15.460237    3.748453    5.962612
     62          1           0       16.233419    5.232311    6.463766
     63          1           0       18.865050    5.457621   -0.298878
     64          1           0       17.254557    4.569659   -2.889599
     65          1           0       15.900064    5.448455    0.204609
     66          1           0       16.121472    6.081455   -1.411003
     67          1           0       16.965264    6.808890    0.052964
     68          1           0       19.900229    4.032845   -3.491752
     69          1           0       20.210233    4.942367   -2.089540
     70          1           0       20.378249    6.783020   -3.191210
     71          1           0       18.569169    6.714222   -3.519595
     72          1           0       19.741366    6.132920   -4.692073
     73          1           0       19.459304   -0.669052   -5.589026
     74          1           0       18.485906    0.847014   -5.731787
     75          1           0       17.864232   -0.701943   -6.239314
     76          1           0       18.412305   -4.157111   -1.983073
     77          1           0       15.148710   -7.200056   -2.283318
     78          1           0       15.502046   -6.712958   -0.520935
     79          1           0       16.507455   -7.885512   -1.305705
     80         12           0      -17.670156    0.621792    0.011029
     81          6           0      -15.305212   -1.955807    0.441420
     82          6           0      -20.110298   -1.816158    0.227208
     83          6           0      -20.067748    2.994055   -0.516711
     84          6           0      -15.195440    2.827062   -0.519853
     85          7           0      -17.701312   -1.654042    0.340372
     86          6           0      -16.629978   -2.490477    0.629886
     87          6           0      -17.126561   -3.842652    1.100837
     88          6           0      -18.636940   -3.852829    0.665178
     89          6           0      -18.820519   -2.372289    0.418124
     90          6           0      -18.994522   -4.799827   -0.546674
     91          6           0      -17.022534   -4.029760    2.621800
     92          6           0      -16.652299   -5.442150    3.087039
     93          1           0      -17.693628   -6.580593    2.900887
     94          7           0      -19.783738    0.620302   -0.038055
     95          6           0      -20.531171   -0.505119    0.034508
     96          6           0      -21.898550   -0.156997   -0.177585
     97          6           0      -22.002408    1.274414   -0.263094
     98          6           0      -20.606320    1.668998   -0.328816
     99          6           0      -22.989214   -1.190802   -0.225393
    100          6           0      -23.206501    2.202235   -0.425967
    101          8           0      -23.100589    3.443360   -0.312205
    102          6           0      -24.589853    1.691698   -0.812948
    103          7           0      -17.633143    2.615865   -0.356828
    104          6           0      -18.741081    3.416517   -0.617657
    105          6           0      -18.275002    4.791004   -0.973154
    106          6           0      -16.705280    4.837538   -0.927693
    107          6           0      -16.453850    3.371492   -0.539514
    108          6           0      -18.924005    5.386666   -2.258647
    109          6           0      -16.096959    5.823655    0.092930
    110          6           0      -15.704221    7.180810   -0.522165
    111          7           0      -15.697501    0.521451   -0.086516
    112          6           0      -14.735098    1.516777   -0.250298
    113          6           0      -13.326012    0.990712   -0.117955
    114          6           0      -13.571457   -0.371802    0.117522
    115          6           0      -14.983550   -0.600176    0.182951
    116          6           0      -12.040539    1.790161   -0.228568
    117          6           0      -12.869329   -1.624961    0.349850
    118          8           0      -11.665618   -1.885285    0.368847
    119          6           0      -14.010872   -2.674257    0.690825
    120          6           0      -13.748331   -3.874259   -0.240224
    121          8           0      -13.403997   -3.823541   -1.402998
    122          8           0      -13.806377   -5.043189    0.516259
    123          6           0      -13.563196   -6.248836   -0.276031
    124          1           0      -20.857000   -2.598007    0.379590
    125          1           0      -20.746732    3.831657   -0.688192
    126          1           0      -14.460695    3.574829   -0.824410
    127          1           0      -16.641052   -4.695135    0.626443
    128          1           0      -19.330609   -4.188908    1.435923
    129          1           0      -18.184533   -5.439285   -0.898724
    130          1           0      -19.317934   -4.313606   -1.466740
    131          1           0      -19.770961   -5.510632   -0.263784
    132          1           0      -17.953189   -3.757751    3.119258
    133          1           0      -16.229992   -3.404654    3.033649
    134          1           0      -16.314311   -5.453573    4.123158
    135          1           0      -15.753068   -5.799906    2.585975
    136          1           0      -22.573023   -1.918447   -0.922274
    137          1           0      -23.953411   -0.892794   -0.636984
    138          1           0      -23.181334   -1.697428    0.720122
    139          1           0      -24.532997    1.037799   -1.683325
    140          1           0      -25.123540    2.620612   -1.013411
    141          1           0      -25.033541    1.108838   -0.005791
    142          1           0      -18.735896    5.469295   -0.254458
    143          1           0      -16.217929    4.992042   -1.891219
    144          1           0      -19.566955    4.619350   -2.690406
    145          1           0      -18.135681    5.619231   -2.974080
    146          1           0      -19.496348    6.239497   -1.892145
    147          1           0      -15.297924    5.296844    0.614105
    148          1           0      -16.842090    6.130226    0.827349
    149          1           0      -16.288624    7.359360   -1.424982
    150          1           0      -14.679568    7.275973   -0.881993
    151          1           0      -15.967987    7.961031    0.192443
    152          1           0      -11.960571    2.395936    0.674234
    153          1           0      -11.987222    2.483422   -1.067767
    154          1           0      -11.239585    1.052401   -0.273642
    155          1           0      -14.035535   -3.026770    1.721782
    156          1           0      -14.455677   -6.695737   -0.715084
    157          1           0      -13.075062   -6.924326    0.426355
    158          1           0      -12.918015   -6.188198   -1.152466
 ---------------------------------------------------------------------

 SCF Done:  E(RPBE1PBE) =  -4067.42049040     A.U. after   16 cycles

 Excitation energies and oscillator strengths:

 Excited State   1:      Singlet-A      1.8209 eV  680.90 nm  f=0.0000  <S**2>=0.000
     312 -> 313        0.70710
 This state for optimization and/or second-order correction.
 Total Energy, E(TD-HF/TD-DFT) =  -4067.35357372
 Copying the excited state density for this state as the 1-particle RhoCI density.

 Excited State   2:      Singlet-A      1.8492 eV  670.48 nm  f=0.3686  <S**2>=0.000
     309 -> 316       -0.18097
     311 -> 313        0.69129
     311 <- 313       -0.10446

 Excited State   3:      Singlet-A      1.8621 eV  665.83 nm  f=0.3727  <S**2>=0.000
     310 -> 315        0.19119
     312 -> 314        0.68808
     312 <- 314       -0.10015

 Excited State   4:      Singlet-A      2.1423 eV  578.76 nm  f=0.0000  <S**2>=0.000
     311 -> 314        0.70711

 Excited State   5:      Singlet-A      2.2265 eV  556.85 nm  f=0.0972  <S**2>=0.000
     309 -> 313        0.64902
     311 -> 316        0.27346

 The electronic state is 1-A.
 Alpha  occ. eigenvalues --  -46.91458 -46.91067 -19.26399 -19.24591 -19.20608
 Alpha  occ. eigenvalues --  -19.20423 -19.19375 -19.19360 -19.19329 -19.18553
 Alpha  occ. eigenvalues --  -14.42027 -14.41561 -14.41100 -14.40959 -14.39610
 Alpha  occ. eigenvalues --  -14.39589 -14.39481 -14.39062 -10.36699 -10.36369
 Alpha  occ. eigenvalues --  -10.32891 -10.32646 -10.32298 -10.32269 -10.29294
 Alpha  occ. eigenvalues --  -10.28925 -10.28730 -10.28700 -10.28549 -10.28453
 Alpha  occ. eigenvalues --  -10.28415 -10.28362 -10.28219 -10.28188 -10.28155
 Alpha  occ. eigenvalues --  -10.28042 -10.28035 -10.27875 -10.27714 -10.27248
 Alpha  occ. eigenvalues --  -10.27104 -10.27072 -10.27067 -10.26815 -10.26727
 Alpha  occ. eigenvalues --  -10.26620 -10.26599 -10.26454 -10.26393 -10.26173
 Alpha  occ. eigenvalues --  -10.26147 -10.26136 -10.26135 -10.26129 -10.26074
 Alpha  occ. eigenvalues --  -10.25908 -10.25753 -10.25552 -10.25470 -10.25194
 Alpha  occ. eigenvalues --  -10.25109 -10.25033 -10.24975 -10.24920 -10.24742
 Alpha  occ. eigenvalues --  -10.24497 -10.24433 -10.24313 -10.24310 -10.24099
 Alpha  occ. eigenvalues --  -10.24042 -10.24017 -10.23927 -10.23776 -10.23734
 Alpha  occ. eigenvalues --  -10.23727 -10.23638 -10.23610 -10.23604 -10.23499
 Alpha  occ. eigenvalues --  -10.23193 -10.23161 -10.23040 -10.23026 -10.22850
 Alpha  occ. eigenvalues --  -10.22813  -3.13716  -3.13424  -1.86564  -1.86265
 Alpha  occ. eigenvalues --   -1.86077  -1.85971  -1.85775  -1.85692  -1.11041
 Alpha  occ. eigenvalues --   -1.10149  -1.03996  -1.03812  -1.03537  -1.02989
 Alpha  occ. eigenvalues --   -1.02556  -1.02415  -0.99252  -0.98888  -0.98235
 Alpha  occ. eigenvalues --   -0.98062  -0.97805  -0.97412  -0.96091  -0.96037
 Alpha  occ. eigenvalues --   -0.86931  -0.85915  -0.83673  -0.83312  -0.83123
 Alpha  occ. eigenvalues --   -0.82793  -0.82580  -0.82066  -0.81830  -0.81816
 Alpha  occ. eigenvalues --   -0.81214  -0.81010  -0.80625  -0.80493  -0.78637
 Alpha  occ. eigenvalues --   -0.78469  -0.77887  -0.77201  -0.76573  -0.76289
 Alpha  occ. eigenvalues --   -0.76140  -0.75838  -0.75250  -0.75010  -0.74384
 Alpha  occ. eigenvalues --   -0.74296  -0.73174  -0.72693  -0.71786  -0.71728
 Alpha  occ. eigenvalues --   -0.71561  -0.71238  -0.70456  -0.70042  -0.69404
 Alpha  occ. eigenvalues --   -0.68871  -0.67153  -0.66491  -0.66070  -0.65873
 Alpha  occ. eigenvalues --   -0.63705  -0.63677  -0.63255  -0.62947  -0.62739
 Alpha  occ. eigenvalues --   -0.62639  -0.61668  -0.61450  -0.60174  -0.59920
 Alpha  occ. eigenvalues --   -0.59900  -0.59613  -0.59001  -0.58767  -0.58429
 Alpha  occ. eigenvalues --   -0.58251  -0.57142  -0.55811  -0.55154  -0.54892
 Alpha  occ. eigenvalues --   -0.54620  -0.54029  -0.53507  -0.53225  -0.53156
 Alpha  occ. eigenvalues --   -0.52274  -0.52164  -0.52141  -0.52029  -0.51321
 Alpha  occ. eigenvalues --   -0.50714  -0.50618  -0.50273  -0.50007  -0.49723
 Alpha  occ. eigenvalues --   -0.49123  -0.49052  -0.48703  -0.48432  -0.48375
 Alpha  occ. eigenvalues --   -0.48085  -0.47931  -0.47811  -0.47691  -0.47482
 Alpha  occ. eigenvalues --   -0.47148  -0.47107  -0.46746  -0.46688  -0.46468
 Alpha  occ. eigenvalues --   -0.46420  -0.46314  -0.46199  -0.45940  -0.45801
 Alpha  occ. eigenvalues --   -0.45702  -0.45311  -0.45124  -0.45003  -0.44625
 Alpha  occ. eigenvalues --   -0.44569  -0.44555  -0.44395  -0.44058  -0.44001
 Alpha  occ. eigenvalues --   -0.43995  -0.43848  -0.43687  -0.43604  -0.43509
 Alpha  occ. eigenvalues --   -0.43484  -0.43142  -0.43127  -0.42790  -0.42749
 Alpha  occ. eigenvalues --   -0.42707  -0.42662  -0.42188  -0.42100  -0.41984
 Alpha  occ. eigenvalues --   -0.41493  -0.41491  -0.41376  -0.41238  -0.40980
 Alpha  occ. eigenvalues --   -0.40889  -0.40733  -0.40627  -0.40427  -0.40289
 Alpha  occ. eigenvalues --   -0.40246  -0.39943  -0.39823  -0.39727  -0.39622
 Alpha  occ. eigenvalues --   -0.39403  -0.39395  -0.39292  -0.39184  -0.39022
 Alpha  occ. eigenvalues --   -0.38940  -0.38776  -0.38395  -0.38299  -0.38269
 Alpha  occ. eigenvalues --   -0.37955  -0.37943  -0.37923  -0.37794  -0.37690
 Alpha  occ. eigenvalues --   -0.37471  -0.37441  -0.37157  -0.37139  -0.36994
 Alpha  occ. eigenvalues --   -0.36755  -0.36553  -0.36404  -0.36232  -0.36068
 Alpha  occ. eigenvalues --   -0.36033  -0.35884  -0.35721  -0.35446  -0.35245
 Alpha  occ. eigenvalues --   -0.35175  -0.35035  -0.34658  -0.34095  -0.34019
 Alpha  occ. eigenvalues --   -0.33695  -0.33430  -0.33323  -0.33211  -0.32963
 Alpha  occ. eigenvalues --   -0.32932  -0.32222  -0.31855  -0.31718  -0.31666
 Alpha  occ. eigenvalues --   -0.31156  -0.30892  -0.30346  -0.29853  -0.29353
 Alpha  occ. eigenvalues --   -0.29322  -0.28653  -0.28434  -0.26800  -0.26697
 Alpha  occ. eigenvalues --   -0.26352  -0.26314  -0.26057  -0.25786  -0.25724
 Alpha  occ. eigenvalues --   -0.25557  -0.25526  -0.25158  -0.20853  -0.20850
 Alpha  occ. eigenvalues --   -0.18694  -0.18123
 Alpha virt. eigenvalues --   -0.11056  -0.10441  -0.05502  -0.05242  -0.04368
 Alpha virt. eigenvalues --   -0.04223  -0.02628  -0.02155  -0.00152   0.00309
 Alpha virt. eigenvalues --    0.00522   0.00643   0.01131   0.01343   0.01654

 Mulliken charges:
               1
     1  Mg  12.000000
     2  C    6.000000
     3  C    6.000000
     4  C    6.000000
     5  C    6.000000
     6  N    7.000000
     7  C    6.000000
     8  C    6.000000
     9  C    6.000000
    10  C    6.000000
    11  C    6.000000
    12  C    6.000000
    13  C    6.000000
    14  H    1.000000
    15  N    7.000000
    16  C    6.000000
    17  C    6.000000
    18  C    6.000000
    19  C    6.000000
    20  C    6.000000
    21  C    6.000000
    22  O    8.000000
    23  C    6.000000
    24  N    7.000000
    25  C    6.000000
    26  C    6.000000
    27  C    6.000000
    28  C    6.000000
    29  C    6.000000
    30  C    6.000000
    31  C    6.000000
    32  N    7.000000
    33  C    6.000000
    34  C    6.000000
    35  C    6.000000
    36  C    6.000000
    37  C    6.000000
    38  C    6.000000
    39  O    8.000000
    40  C    6.000000
    41  C    6.000000
    42  O    8.000000
    43  O    8.000000
    44  C    6.000000
    45  H    1.000000
    46  H    1.000000
    47  H    1.000000
    48  H    1.000000
    49  H    1.000000
    50  H    1.000000
    51  H    1.000000
    52  H    1.000000
    53  H    1.000000
    54  H    1.000000
    55  H    1.000000
    56  H    1.000000
    57  H    1.000000
    58  H    1.000000
    59  H    1.000000
    60  H    1.000000
    61  H    1.000000
    62  H    1.000000
    63  H    1.000000
    64  H    1.000000
    65  H    1.000000
    66  H    1.000000
    67  H    1.000000
    68  H    1.000000
    69  H    1.000000
    70  H    1.000000
    71  H    1.000000
    72  H    1.000000
    73  H    1.000000
    74  H    1.000000
    75  H    1.000000
    76  H    1.000000
    77  H    1.000000
    78  H    1.000000
    79  H    1.000000
    80  Mg  12.000000
    81  C    6.000000
    82  C    6.000000
    83  C    6.000000
    84  C    6.000000
    85  N    7.000000
    86  C    6.000000
    87  C    6.000000
    88  C    6.000000
    89  C    6.000000
    90  C    6.000000
    91  C    6.000000
    92  C    6.000000
    93  H    1.000000
    94  N    7.000000
    95  C    6.000000
    96  C    6.000000
    97  C    6.000000
    98  C    6.000000
    99  C    6.000000
   100  C    6.000000
   101  O    8.000000
   102  C    6.000000
   103  N    7.000000
   104  C    6.000000
   105  C    6.000000
   106  C    6.000000
   107  C    6.000000
   108  C    6.000000
   109  C    6.000000
   110  C    6.000000
   111  N    7.000000
   112  C    6.000000
   113  C    6.000000
   114  C    6.000000
   115  C    6.000000
   116  C    6.000000
   117  C    6.000000
   118  O    8.000000
   119  C    6.000000
   120  C    6.000000
   121  O    8.000000
   122  O    8.000000
   123  C    6.000000
   124  H    1.000000
   125  H    1.000000
   126  H    1.000000
   127  H    1.000000
   128  H    1.000000
   129  H    1.000000
   130  H    1.000000
   131  H    1.000000
   132  H    1.000000
   133  H    1.000000
   134  H    1.000000
   135  H    1.000000
   136  H    1.000000
   137  H    1.000000
   138  H    1.000000
   139  H    1.000000
   140  H    1.000000
   141  H    1.000000
   142  H    1.000000
   143  H    1.000000
   144  H    1.000000
   145  H    1.000000
   146  H    1.000000
   147  H    1.000000
   148  H    1.000000
   149  H    1.000000
   150  H    1.000000
   151  H    1.000000
   152  H    1.000000
   153  H    1.000000
   154  H    1.000000
   155  H    1.000000
   156  H    1.000000
   157  H    1.000000
   158  H    1.000000
 Sum of Mulliken charges = 624.00000

 Dipole moment (field-independent basis, Debye):
    X=             -0.0000    Y=             -0.0000    Z=              0.0000  Tot=              0.0000
 Quadrupole moment (field-independent basis, Debye-Ang):
   XX=              0.0000   YY=             -0.0000   ZZ=              0.0000
   XY=              0.0000   XZ=             -0.0000   YZ=              0.0000

 Normal termination of Gaussian 16 at Thu Oct 14 19:12:00 2021.
