 Gaussian 16, Revision A.03,
 Gaussian 16:  ES64L-G16RevA.03 25-Dec-2016

 --------------------------------------------------------
 #p PBE1PBE/Def2SVP td=(nstates=5) density=(transition=1)
 --------------------------------------------------------

 --------------------------------
 TDDFT excited states in gaussian
 --------------------------------
 Symbolic Z-matrix:
 Charge =  0 Multiplicity = 1

                         Standard orientation:
 ---------------------------------------------------------------------
 Center     Atomic      Atomic             Coordinates (Angstroms)
 Number     Number       Type             X           Y           Z
 ---------------------------------------------------------------------
      1         12           0      -11.881595   -0.012396   -0.027870
      2          6           0       -9.111476   -1.003980    1.957492
      3          6           0      -11.257066    3.261066    1.002436
      4          6           0      -13.576086    0.945808   -2.682430
      5          6           0      -12.037018   -3.496779   -1.140924
      6          7           0      -10.141247    1.039748    1.176287
      7          6           0       -9.346278    0.390131    2.062367
      8          6           0       -8.720781    1.398527    3.009334
      9          6           0       -9.759941    2.516148    3.100392
     10          6           0      -10.409980    2.307827    1.638525
     11          6           0      -10.852051    2.413069    4.166700
     12          6           0       -7.272878    1.796784    2.484162
     13          6           0       -6.267212    1.816028    3.567304
     14          1           0       -5.243921    2.968346    3.570550
     15          7           0      -12.348284    1.883888   -0.820772
     16          6           0      -12.060398    3.119022   -0.188666
     17          6           0      -12.661823    4.143096   -1.005201
     18          6           0      -13.427314    3.547563   -2.042599
     19          6           0      -13.142018    2.073094   -1.926775
     20          6           0      -12.479819    5.618236   -0.662022
     21          6           0      -14.193759    4.262605   -3.084151
     22          8           0      -14.203120    5.487321   -3.073527
     23          6           0      -14.914206    3.659945   -4.245316
     24          7           0      -12.623494   -1.194443   -1.776075
     25          6           0      -13.455509   -0.501724   -2.578981
     26          6           0      -14.186530   -1.446705   -3.549785
     27          6           0      -13.824274   -2.928565   -2.972688
     28          6           0      -12.801096   -2.556218   -1.868610
     29          6           0      -15.733191   -1.117360   -3.757005
     30          6           0      -13.302119   -3.952582   -4.028544
     31          6           0      -11.753322   -4.163597   -4.136029
     32          7           0      -10.869277   -1.820775    0.295899
     33          6           0      -11.101485   -3.142599   -0.180255
     34          6           0      -10.240152   -4.108553    0.631416
     35          6           0       -9.456665   -3.265599    1.403302
     36          6           0       -9.889774   -1.910419    1.175178
     37          6           0      -10.118565   -5.644593    0.636304
     38          6           0       -8.438301   -3.233612    2.404557
     39          8           0       -7.872932   -4.153795    2.997611
     40          6           0       -8.136603   -1.793835    2.621954
     41          6           0       -6.748368   -1.627107    1.962710
     42          8           0       -6.501924   -1.519397    0.763280
     43          8           0       -5.779641   -1.696559    3.002143
     44          6           0       -4.419004   -1.691259    2.645802
     45          1           0      -11.177605    4.291721    1.354792
     46          1           0      -14.264513    1.353055   -3.425561
     47          1           0      -12.111845   -4.574476   -1.295989
     48          1           0       -8.631847    1.032316    4.032006
     49          1           0       -9.448129    3.550411    3.241312
     50          1           0      -10.609796    1.729535    4.979943
     51          1           0      -11.840869    2.305849    3.720109
     52          1           0      -10.828840    3.407654    4.613590
     53          1           0       -7.317918    2.806459    2.075817
     54          1           0       -6.946678    1.240375    1.605403
     55          1           0       -5.791536    0.844299    3.439658
     56          1           0       -6.793954    1.853594    4.520722
     57          1           0      -13.370991    6.064776   -0.221415
     58          1           0      -12.133689    6.142600   -1.551517
     59          1           0      -11.689802    5.738908    0.079343
     60          1           0      -15.771635    3.105919   -3.862464
     61          1           0      -14.322877    3.001777   -4.883084
     62          1           0      -15.444110    4.415440   -4.824157
     63          1           0      -13.633353   -1.313315   -4.479220
     64          1           0      -14.692013   -3.311737   -2.436807
     65          1           0      -15.944587   -0.071232   -3.536015
     66          1           0      -16.479932   -1.767093   -3.299037
     67          1           0      -15.899483   -1.425078   -4.790548
     68          1           0      -13.673696   -3.741500   -5.030950
     69          1           0      -13.731693   -4.886983   -3.668161
     70          1           0      -11.749626   -4.380402   -5.204501
     71          1           0      -11.309843   -5.000329   -3.595858
     72          1           0      -11.276200   -3.205998   -3.926548
     73          1           0      -10.331045   -6.050326    1.624796
     74          1           0       -9.034322   -5.684518    0.536222
     75          1           0      -10.646361   -6.018232   -0.240879
     76          1           0       -8.046089   -1.599154    3.690662
     77          1           0       -3.728175   -1.759340    3.487093
     78          1           0       -4.222597   -0.752498    2.129408
     79          1           0       -4.296824   -2.558270    1.995980
     80         12           0       11.151564    0.159453   -0.722673
     81          6           0        8.587626    0.524673    1.625726
     82          6           0       11.155513   -3.220619   -0.028537
     83          6           0       14.081128   -0.155034   -2.445988
     84          6           0       11.460232    3.607638   -0.810565
     85          7           0        9.938984   -1.129417    0.563908
     86          6           0        8.837218   -0.790549    1.245519
     87          6           0        7.996532   -1.977838    1.737434
     88          6           0        8.928524   -3.193775    1.364212
     89          6           0       10.096032   -2.501622    0.462560
     90          6           0        9.510966   -4.021758    2.529931
     91          6           0        6.592195   -2.056496    1.138288
     92          6           0        5.584053   -2.785807    2.044838
     93          1           0        6.059724   -3.361490    3.386190
     94          7           0       12.388602   -1.452579   -1.278728
     95          6           0       12.183783   -2.810917   -0.943559
     96          6           0       13.220513   -3.597891   -1.580651
     97          6           0       14.137814   -2.703443   -2.248363
     98          6           0       13.546311   -1.381695   -2.046504
     99          6           0       13.177778   -5.101030   -1.555776
    100          6           0       15.403016   -3.014916   -3.167384
    101          8           0       16.006814   -2.172842   -3.786603
    102          6           0       15.849479   -4.459671   -3.225776
    103          7           0       12.603613    1.514375   -1.425528
    104          6           0       13.710809    1.167421   -2.143044
    105          6           0       14.517507    2.423322   -2.639677
    106          6           0       13.618719    3.562063   -2.160491
    107          6           0       12.504092    2.847117   -1.420172
    108          6           0       16.055630    2.599481   -2.315093
    109          6           0       13.091553    4.398311   -3.350070
    110          6           0       11.861125    3.889312   -4.133251
    111          7           0       10.155515    1.822369    0.071324
    112          6           0       10.385807    3.168503   -0.047241
    113          6           0        9.431843    3.923117    0.694271
    114          6           0        8.663784    2.899384    1.411389
    115          6           0        9.155953    1.716504    1.017120
    116          6           0        9.214979    5.366239    0.817613
    117          6           0        7.664766    2.659076    2.443474
    118          8           0        6.917255    3.452482    3.025323
    119          6           0        7.546923    1.119048    2.641042
    120          6           0        7.807592    0.735004    4.024583
    121          8           0        8.910470    0.645194    4.553579
    122          8           0        6.621728    0.708339    4.714751
    123          6           0        6.632317    0.761596    6.189584
    124          1           0       11.099693   -4.269237    0.271721
    125          1           0       14.910873   -0.253799   -3.148955
    126          1           0       11.492775    4.694417   -0.911710
    127          1           0        7.949565   -2.012486    2.825636
    128          1           0        8.488394   -3.866485    0.628975
    129          1           0        9.205742   -5.023141    2.226855
    130          1           0        9.044500   -3.739953    3.473609
    131          1           0       10.589415   -3.878789    2.598897
    132          1           0        6.592316   -2.523981    0.154367
    133          1           0        6.201238   -1.053473    0.965329
    134          1           0        5.250569   -3.577118    1.373165
    135          1           0        4.681098   -2.195389    2.206775
    136          1           0       12.393870   -5.356930   -0.842868
    137          1           0       14.151598   -5.478901   -1.243618
    138          1           0       12.965471   -5.538460   -2.532472
    139          1           0       16.377285   -4.852372   -2.356083
    140          1           0       16.441055   -4.586100   -4.132496
    141          1           0       14.900353   -4.979349   -3.356447
    142          1           0       14.467789    2.279760   -3.718797
    143          1           0       14.228318    4.173833   -1.496470
    144          1           0       16.329220    3.578875   -1.924394
    145          1           0       16.609850    2.499067   -3.247750
    146          1           0       16.350080    1.779348   -1.659601
    147          1           0       13.943817    4.512788   -4.018783
    148          1           0       12.885446    5.380824   -2.924449
    149          1           0       12.105204    4.083987   -5.177271
    150          1           0       10.949328    4.444189   -3.913455
    151          1           0       11.596537    2.852124   -3.930533
    152          1           0        8.139866    5.540670    0.793361
    153          1           0        9.696262    5.982018    0.057760
    154          1           0        9.468730    5.694500    1.825722
    155          1           0        6.528427    0.891785    2.326568
    156          1           0        7.644856    0.758795    6.594634
    157          1           0        6.131326   -0.134781    6.555947
    158          1           0        6.103801    1.698244    6.363428
 ---------------------------------------------------------------------

 SCF Done:  E(RPBE1PBE) =  -4067.34599564     A.U. after   16 cycles

 Excitation energies and oscillator strengths:

 Excited State   1:      Singlet-A      1.8404 eV  673.69 nm  f=0.3329  <S**2>=0.000
     309 -> 315       -0.18895
     312 -> 314        0.68689
 This state for optimization and/or second-order correction.
 Total Energy, E(TD-HF/TD-DFT) =  -4067.27836328
 Copying the excited state density for this state as the 1-particle RhoCI density.

 Excited State   2:      Singlet-A      1.8753 eV  661.13 nm  f=0.4005  <S**2>=0.000
     310 -> 316        0.17460
     311 -> 313        0.69078
     311 <- 313       -0.10930

 Excited State   3:      Singlet-A      1.8910 eV  655.67 nm  f=0.0000  <S**2>=0.000
     312 -> 313        0.70710

 Excited State   4:      Singlet-A      1.9520 eV  635.15 nm  f=0.0000  <S**2>=0.000
     311 -> 314        0.70710

 Excited State   5:      Singlet-A      2.1486 eV  577.05 nm  f=0.1420  <S**2>=0.000
     310 -> 313        0.66643
     311 -> 316       -0.21029

 The electronic state is 1-A.
 Alpha  occ. eigenvalues --  -46.94688 -46.91615 -19.25371 -19.24517 -19.21594
 Alpha  occ. eigenvalues --  -19.20025 -19.19166 -19.19092 -19.18956 -19.17834
 Alpha  occ. eigenvalues --  -14.41883 -14.41651 -14.41509 -14.41420 -14.39869
 Alpha  occ. eigenvalues --  -14.39458 -14.39038 -14.37870 -10.37655 -10.35613
 Alpha  occ. eigenvalues --  -10.33221 -10.32240 -10.31636 -10.31296 -10.29637
 Alpha  occ. eigenvalues --  -10.29232 -10.29214 -10.28995 -10.28707 -10.28609
 Alpha  occ. eigenvalues --  -10.28549 -10.28548 -10.28399 -10.28389 -10.28360
 Alpha  occ. eigenvalues --  -10.28252 -10.27929 -10.27883 -10.27467 -10.27072
 Alpha  occ. eigenvalues --  -10.27011 -10.26654 -10.26549 -10.26379 -10.26318
 Alpha  occ. eigenvalues --  -10.26217 -10.26179 -10.26177 -10.25928 -10.25903
 Alpha  occ. eigenvalues --  -10.25823 -10.25732 -10.25633 -10.25537 -10.25465
 Alpha  occ. eigenvalues --  -10.25449 -10.25417 -10.25350 -10.25311 -10.25200
 Alpha  occ. eigenvalues --  -10.25199 -10.25184 -10.25176 -10.24892 -10.24755
 Alpha  occ. eigenvalues --  -10.24754 -10.24674 -10.24562 -10.24524 -10.24308
 Alpha  occ. eigenvalues --  -10.24297 -10.24091 -10.23937 -10.23844 -10.23795
 Alpha  occ. eigenvalues --  -10.23515 -10.23414 -10.23412 -10.23268 -10.23200
 Alpha  occ. eigenvalues --  -10.23129 -10.23103 -10.22826 -10.22766 -10.22653
 Alpha  occ. eigenvalues --  -10.22512  -3.16476  -3.13720  -1.89253  -1.88900
 Alpha  occ. eigenvalues --   -1.88652  -1.86561  -1.86090  -1.85949  -1.10555
 Alpha  occ. eigenvalues --   -1.09808  -1.06214  -1.04279  -1.04132  -1.03609
 Alpha  occ. eigenvalues --   -1.03454  -1.01419  -0.98993  -0.98803  -0.98062
 Alpha  occ. eigenvalues --   -0.97925  -0.97478  -0.97096  -0.95979  -0.95581
 Alpha  occ. eigenvalues --   -0.88754  -0.86422  -0.83420  -0.83405  -0.83019
 Alpha  occ. eigenvalues --   -0.82989  -0.82398  -0.82095  -0.81554  -0.81348
 Alpha  occ. eigenvalues --   -0.81176  -0.80666  -0.80363  -0.79903  -0.79055
 Alpha  occ. eigenvalues --   -0.78432  -0.77948  -0.77642  -0.76973  -0.76537
 Alpha  occ. eigenvalues --   -0.76043  -0.75873  -0.75278  -0.75146  -0.74624
 Alpha  occ. eigenvalues --   -0.74492  -0.72398  -0.72362  -0.71583  -0.71373
 Alpha  occ. eigenvalues --   -0.71186  -0.71084  -0.70339  -0.70166  -0.69579
 Alpha  occ. eigenvalues --   -0.69336  -0.67181  -0.66849  -0.66319  -0.65490
 Alpha  occ. eigenvalues --   -0.64280  -0.64114  -0.63167  -0.62799  -0.62065
 Alpha  occ. eigenvalues --   -0.61686  -0.61230  -0.60405  -0.59833  -0.59446
 Alpha  occ. eigenvalues --   -0.59210  -0.59206  -0.59101  -0.59071  -0.58894
 Alpha  occ. eigenvalues --   -0.58240  -0.56770  -0.55943  -0.54477  -0.54326
 Alpha  occ. eigenvalues --   -0.54240  -0.53909  -0.53618  -0.53553  -0.53296
 Alpha  occ. eigenvalues --   -0.52916  -0.52800  -0.52257  -0.51931  -0.51589
 Alpha  occ. eigenvalues --   -0.50655  -0.50575  -0.50359  -0.50236  -0.49942
 Alpha  occ. eigenvalues --   -0.49645  -0.49435  -0.49153  -0.49145  -0.48285
 Alpha  occ. eigenvalues --   -0.48208  -0.47961  -0.47767  -0.47643  -0.47404
 Alpha  occ. eigenvalues --   -0.47313  -0.47213  -0.46732  -0.46731  -0.46643
 Alpha  occ. eigenvalues --   -0.46478  -0.46356  -0.46208  -0.46204  -0.45975
 Alpha  occ. eigenvalues --   -0.45817  -0.45463  -0.45162  -0.45098  -0.44791
 Alpha  occ. eigenvalues --   -0.44716  -0.44513  -0.44159  -0.44049  -0.44024
 Alpha  occ. eigenvalues --   -0.43893  -0.43801  -0.43616  -0.43608  -0.43560
 Alpha  occ. eigenvalues --   -0.43155  -0.43118  -0.42931  -0.42849  -0.42717
 Alpha  occ. eigenvalues --   -0.42513  -0.42273  -0.42209  -0.41850  -0.41733
 Alpha  occ. eigenvalues --   -0.41625  -0.41378  -0.40946  -0.40820  -0.40805
 Alpha  occ. eigenvalues --   -0.40637  -0.40601  -0.40531  -0.40474  -0.40338
 Alpha  occ. eigenvalues --   -0.40181  -0.40068  -0.39951  -0.39902  -0.39734
 Alpha  occ. eigenvalues --   -0.39354  -0.39301  -0.39233  -0.39009  -0.38914
 Alpha  occ. eigenvalues --   -0.38592  -0.38554  -0.38400  -0.38326  -0.38186
 Alpha  occ. eigenvalues --   -0.38132  -0.37952  -0.37834  -0.37829  -0.37590
 Alpha  occ. eigenvalues --   -0.37414  -0.37259  -0.37199  -0.37004  -0.36798
 Alpha  occ. eigenvalues --   -0.36409  -0.36285  -0.36153  -0.35887  -0.35847
 Alpha  occ. eigenvalues --   -0.35776  -0.35687  -0.35495  -0.35369  -0.35047
 Alpha  occ. eigenvalues --   -0.34947  -0.34773  -0.34083  -0.33496  -0.33428
 Alpha  occ. eigenvalues --   -0.33291  -0.33274  -0.32893  -0.32745  -0.32636
 Alpha  occ. eigenvalues --   -0.32619  -0.31680  -0.31587  -0.31314  -0.31147
 Alpha  occ. eigenvalues --   -0.30787  -0.30564  -0.30042  -0.29498  -0.29441
 Alpha  occ. eigenvalues --   -0.28968  -0.28918  -0.28440  -0.26757  -0.26555
 Alpha  occ. eigenvalues --   -0.26290  -0.26258  -0.25876  -0.25684  -0.25238
 Alpha  occ. eigenvalues --   -0.25136  -0.24850  -0.24335  -0.20999  -0.20452
 Alpha  occ. eigenvalues --   -0.18836  -0.18755
 Alpha virt. eigenvalues --   -0.11230  -0.11086  -0.06005  -0.04822  -0.04381
 Alpha virt. eigenvalues --   -0.03577  -0.03143  -0.02192  -0.01874  -0.00113
 Alpha virt. eigenvalues --    0.00097   0.00744   0.00796   0.01151   0.01716

 Mulliken charges:
               1
     1  Mg  11.998099
     2  C    5.982310
     3  C    6.012427
     4  C    6.013698
     5  C    5.984994
     6  N    6.996436
     7  C    6.024673
     8  C    5.996623
     9  C    6.001806
    10  C    5.972260
    11  C    6.001172
    12  C    5.995350
    13  C    5.999132
    14  H    1.006295
    15  N    7.009498
    16  C    5.958265
    17  C    5.982087
    18  C    5.987834
    19  C    5.968740
    20  C    6.004339
    21  C    5.990544
    22  O    7.978102
    23  C    6.002626
    24  N    6.996486
    25  C    5.970367
    26  C    6.010873
    27  C    5.987877
    28  C    6.035029
    29  C    6.003031
    30  C    6.000980
    31  C    5.992255
    32  N    6.997114
    33  C    6.042600
    34  C    6.027737
    35  C    6.000699
    36  C    6.026315
    37  C    6.001721
    38  C    6.019452
    39  O    8.030695
    40  C    5.997277
    41  C    6.002713
    42  O    8.005635
    43  O    8.001576
    44  C    5.997901
    45  H    0.991061
    46  H    0.996471
    47  H    1.009259
    48  H    0.998426
    49  H    0.999610
    50  H    0.986669
    51  H    1.002194
    52  H    0.998342
    53  H    1.011801
    54  H    0.997324
    55  H    0.994347
    56  H    1.002765
    57  H    0.981784
    58  H    0.985353
    59  H    0.983526
    60  H    0.989296
    61  H    0.989034
    62  H    0.988776
    63  H    0.999361
    64  H    1.004323
    65  H    1.008217
    66  H    0.994165
    67  H    0.995515
    68  H    1.009402
    69  H    1.000100
    70  H    1.008184
    71  H    0.996141
    72  H    1.001724
    73  H    1.015851
    74  H    1.011845
    75  H    1.014712
    76  H    1.009184
    77  H    1.004360
    78  H    1.005799
    79  H    0.999435
    80  Mg  12.000080
    81  C    5.999400
    82  C    5.999766
    83  C    6.000570
    84  C    6.000594
    85  N    6.999593
    86  C    6.000450
    87  C    5.999823
    88  C    5.999894
    89  C    5.999784
    90  C    6.000187
    91  C    6.000030
    92  C    6.000184
    93  H    0.999956
    94  N    7.000185
    95  C    5.999520
    96  C    5.999451
    97  C    5.999888
    98  C    5.999422
    99  C    6.000089
   100  C    5.999846
   101  O    7.999758
   102  C    6.000053
   103  N    7.000477
   104  C    5.999340
   105  C    6.000108
   106  C    5.999748
   107  C    6.000250
   108  C    5.999948
   109  C    5.999821
   110  C    5.999812
   111  N    6.999973
   112  C    6.000242
   113  C    6.000844
   114  C    5.999914
   115  C    6.000491
   116  C    5.999851
   117  C    6.000191
   118  O    8.000463
   119  C    6.000017
   120  C    6.000053
   121  O    8.000205
   122  O    7.999843
   123  C    6.000013
   124  H    0.999541
   125  H    1.000163
   126  H    1.000589
   127  H    0.999914
   128  H    0.999699
   129  H    0.999680
   130  H    0.999600
   131  H    1.000223
   132  H    1.000016
   133  H    0.999940
   134  H    0.999543
   135  H    0.999406
   136  H    0.999611
   137  H    0.999765
   138  H    0.999623
   139  H    0.999884
   140  H    0.999886
   141  H    0.999902
   142  H    1.000153
   143  H    1.000269
   144  H    1.000066
   145  H    1.000151
   146  H    1.000056
   147  H    1.000385
   148  H    1.000170
   149  H    1.000347
   150  H    1.000056
   151  H    0.999945
   152  H    1.000527
   153  H    1.000539
   154  H    1.000577
   155  H    0.999704
   156  H    1.000204
   157  H    0.999635
   158  H    1.000101
 Sum of Mulliken charges = 624.00000

 Dipole moment (field-independent basis, Debye):
    X=              3.7961    Y=             -8.6679    Z=              2.4222  Tot=              9.7678
 Quadrupole moment (field-independent basis, Debye-Ang):
   XX=            -83.6904   YY=             -1.2310   ZZ=             -1.9438
   XY=            105.7356   XZ=            -27.3861   YZ=              3.1707

 Normal termination of Gaussian 16 at Thu Oct 14 18:12:49 2021.
