 Gaussian 16, Revision A.03,
 Gaussian 16:  ES64L-G16RevA.03 25-Dec-2016

 --------------------------------------------------------
 #p PBE1PBE/Def2SVP td=(nstates=5) density=(transition=1)
 --------------------------------------------------------

 --------------------------------
 TDDFT excited states in gaussian
 --------------------------------
 Symbolic Z-matrix:
 Charge =  0 Multiplicity = 1

                         Standard orientation:
 ---------------------------------------------------------------------
 Center     Atomic      Atomic             Coordinates (Angstroms)
 Number     Number       Type             X           Y           Z
 ---------------------------------------------------------------------
      1         12           0       -9.373803   -0.309058    0.907909
      2          6           0       -8.510701   -1.615110   -2.277643
      3          6           0       -6.407687   -1.693655    2.112969
      4          6           0       -9.601391    1.839300    3.391637
      5          6           0      -12.221881    1.268672   -0.766363
      6          7           0       -7.499295   -1.338029   -0.098695
      7          6           0       -7.546376   -1.966213   -1.299646
      8          6           0       -6.379083   -2.930848   -1.408106
      9          6           0       -6.122198   -3.366115    0.034729
     10          6           0       -6.660908   -2.024062    0.750052
     11          6           0       -6.881931   -4.577473    0.578567
     12          6           0       -5.176737   -2.228983   -2.177903
     13          6           0       -4.567168   -3.112623   -3.194040
     14          1           0       -3.030553   -3.111295   -3.311427
     15          7           0       -8.137929    0.098730    2.565832
     16          6           0       -6.990599   -0.651596    2.924492
     17          6           0       -6.529463   -0.113669    4.179545
     18          6           0       -7.452149    0.853092    4.660020
     19          6           0       -8.452923    1.010071    3.545265
     20          6           0       -5.251378   -0.636883    4.827370
     21          6           0       -7.333510    1.627783    5.912751
     22          8           0       -6.365752    1.432710    6.637679
     23          6           0       -8.232751    2.723884    6.382297
     24          7           0      -10.738148    1.441477    1.187299
     25          6           0      -10.680475    1.975843    2.423378
     26          6           0      -11.861012    2.935973    2.656456
     27          6           0      -12.827656    2.658280    1.372453
     28          6           0      -11.927070    1.704488    0.545562
     29          6           0      -12.534253    2.821282    4.097692
     30          6           0      -13.309739    3.929519    0.605879
     31          6           0      -12.536583    4.333269   -0.695686
     32          7           0      -10.202087   -0.179006   -1.014819
     33          6           0      -11.386819    0.442072   -1.503217
     34          6           0      -11.644047   -0.054911   -2.924701
     35          6           0      -10.509918   -0.797065   -3.213130
     36          6           0       -9.691998   -0.852415   -2.028191
     37          6           0      -12.791450    0.190995   -3.923310
     38          6           0       -9.881335   -1.600696   -4.212959
     39          8           0      -10.278516   -1.942816   -5.327990
     40          6           0       -8.556946   -1.975492   -3.650140
     41          6           0       -7.572904   -1.118792   -4.479188
     42          8           0       -7.320462    0.075385   -4.333638
     43          8           0       -7.055616   -1.952999   -5.508842
     44          6           0       -6.221020   -1.371822   -6.480451
     45          1           0       -5.545270   -2.177062    2.576944
     46          1           0       -9.684434    2.382959    4.334804
     47          1           0      -13.121737    1.567840   -1.306579
     48          1           0       -6.631057   -3.856354   -1.925625
     49          1           0       -5.112934   -3.604079    0.368710
     50          1           0       -7.290142   -5.225159   -0.196763
     51          1           0       -7.560425   -4.297483    1.384763
     52          1           0       -6.083671   -5.157239    1.043435
     53          1           0       -4.395505   -1.990179   -1.456191
     54          1           0       -5.408503   -1.233923   -2.557844
     55          1           0       -5.049300   -2.760892   -4.105442
     56          1           0       -4.870566   -4.137437   -2.980544
     57          1           0       -5.443271   -1.286553    5.681084
     58          1           0       -4.611740    0.210480    5.069862
     59          1           0       -4.687027   -1.240206    4.116160
     60          1           0       -9.198744    2.285870    6.634698
     61          1           0       -8.388095    3.545342    5.681814
     62          1           0       -7.945184    3.082915    7.369733
     63          1           0      -11.406026    3.916445    2.517491
     64          1           0      -13.666296    2.043958    1.698419
     65          1           0      -11.834041    2.413206    4.826449
     66          1           0      -13.510282    2.343569    4.190790
     67          1           0      -12.864780    3.844770    4.281481
     68          1           0      -13.352802    4.809662    1.246922
     69          1           0      -14.318292    3.644163    0.307703
     70          1           0      -12.691236    5.406534   -0.582405
     71          1           0      -12.940587    4.009099   -1.654995
     72          1           0      -11.488995    4.068577   -0.550707
     73          1           0      -13.257156   -0.747396   -4.222348
     74          1           0      -12.164147    0.481705   -4.765433
     75          1           0      -13.395897    1.009664   -3.533372
     76          1           0       -8.362746   -3.029405   -3.849597
     77          1           0       -5.868322   -2.061340   -7.248447
     78          1           0       -5.348161   -0.975515   -5.963181
     79          1           0       -6.826749   -0.588450   -6.936876
     80         12           0        9.046295    0.727232   -0.030915
     81          6           0        8.173024   -2.454570    0.796510
     82          6           0        5.764165    1.527125   -0.682592
     83          6           0       10.084781    3.800928   -0.997719
     84          6           0       12.431265   -0.266407    0.184537
     85          7           0        7.198038   -0.422109   -0.161842
     86          6           0        7.063907   -1.584163    0.531474
     87          6           0        5.644899   -1.952176    0.804423
     88          6           0        4.902707   -0.725397    0.059313
     89          6           0        6.012327    0.208729   -0.296628
     90          6           0        4.084688   -1.190704   -1.229238
     91          6           0        5.401582   -1.933241    2.385334
     92          6           0        4.232395   -2.759823    2.925124
     93          1           0        3.099747   -3.349726    2.048411
     94          7           0        8.097892    2.485269   -0.650783
     95          6           0        6.716459    2.593175   -0.879881
     96          6           0        6.469273    3.939306   -1.341975
     97          6           0        7.704286    4.615828   -1.408467
     98          6           0        8.674028    3.626783   -0.958345
     99          6           0        5.031574    4.439605   -1.614988
    100          6           0        7.982902    6.110888   -1.959638
    101          8           0        9.080921    6.670532   -1.847308
    102          6           0        6.934434    6.984938   -2.627834
    103          7           0       11.040850    1.651255   -0.291529
    104          6           0       11.150047    2.925093   -0.738743
    105          6           0       12.590157    3.260108   -1.123428
    106          6           0       13.411099    2.034249   -0.416459
    107          6           0       12.260062    1.089341   -0.037142
    108          6           0       12.861075    3.523505   -2.675151
    109          6           0       14.164866    2.377946    0.966752
    110          6           0       15.615748    1.975078    1.155936
    111          7           0       10.168862   -0.968621    0.445286
    112          6           0       11.484780   -1.242050    0.482890
    113          6           0       11.698594   -2.635622    0.984741
    114          6           0       10.373964   -3.100200    1.163601
    115          6           0        9.515498   -2.075550    0.695537
    116          6           0       12.948209   -3.383548    1.289078
    117          6           0        9.677973   -4.255277    1.591665
    118          8           0       10.110112   -5.350977    2.004790
    119          6           0        8.211303   -3.894368    1.369996
    120          6           0        7.638211   -4.829289    0.428897
    121          8           0        7.974605   -5.129138   -0.673850
    122          8           0        6.462250   -5.292609    1.011392
    123          6           0        5.533684   -6.253428    0.301485
    124          1           0        4.744238    1.916174   -0.690136
    125          1           0       10.414975    4.760430   -1.402036
    126          1           0       13.429663   -0.695995    0.085012
    127          1           0        5.222934   -2.896046    0.459802
    128          1           0        4.203506   -0.221346    0.726484
    129          1           0        3.150866   -0.661222   -1.416831
    130          1           0        3.972544   -2.274592   -1.207435
    131          1           0        4.718979   -0.969884   -2.088351
    132          1           0        5.266083   -0.917276    2.756731
    133          1           0        6.327696   -2.312773    2.817785
    134          1           0        3.773541   -2.143478    3.699254
    135          1           0        4.635323   -3.605526    3.481082
    136          1           0        4.251992    3.715773   -1.377824
    137          1           0        4.997598    4.725710   -2.665699
    138          1           0        4.895069    5.349703   -1.030419
    139          1           0        6.241601    7.237251   -1.825928
    140          1           0        6.261250    6.414622   -3.268196
    141          1           0        7.410614    7.751239   -3.239160
    142          1           0       12.868861    4.171281   -0.592754
    143          1           0       14.146693    1.611690   -1.101170
    144          1           0       13.608889    2.834905   -3.069184
    145          1           0       13.176275    4.554755   -2.829985
    146          1           0       11.964241    3.321405   -3.261252
    147          1           0       13.600221    2.032589    1.832657
    148          1           0       14.112041    3.460868    1.074834
    149          1           0       15.648726    1.354964    2.051067
    150          1           0       16.288702    2.828804    1.230873
    151          1           0       15.925119    1.324179    0.336985
    152          1           0       13.865951   -2.804276    1.188963
    153          1           0       13.058650   -4.242047    0.626087
    154          1           0       12.887815   -3.746749    2.314816
    155          1           0        7.634394   -3.927775    2.294664
    156          1           0        5.897568   -6.458758   -0.705489
    157          1           0        4.551823   -5.792910    0.184173
    158          1           0        5.521520   -7.151793    0.918593
 ---------------------------------------------------------------------

 SCF Done:  E(RPBE1PBE) =  -4067.33096534     A.U. after   16 cycles

 Excitation energies and oscillator strengths:

 Excited State   1:      Singlet-A      1.8266 eV  678.77 nm  f=0.0000  <S**2>=0.000
     312 -> 313        0.70706
 This state for optimization and/or second-order correction.
 Total Energy, E(TD-HF/TD-DFT) =  -4067.26383923
 Copying the excited state density for this state as the 1-particle RhoCI density.

 Excited State   2:      Singlet-A      1.8405 eV  673.64 nm  f=0.3461  <S**2>=0.000
     309 -> 315        0.18909
     311 -> 313        0.68700

 Excited State   3:      Singlet-A      1.8922 eV  655.22 nm  f=0.3823  <S**2>=0.000
     310 -> 316        0.18630
     312 -> 314        0.68965
     312 <- 314       -0.10200

 Excited State   4:      Singlet-A      1.9836 eV  625.05 nm  f=0.0000  <S**2>=0.000
     311 -> 314        0.70708

 Excited State   5:      Singlet-A      2.1948 eV  564.89 nm  f=0.0655  <S**2>=0.000
     309 -> 313        0.63407
     311 -> 315       -0.29980

 The electronic state is 1-A.
 Alpha  occ. eigenvalues --  -46.94858 -46.92699 -19.25544 -19.24291 -19.21769
 Alpha  occ. eigenvalues --  -19.19678 -19.19407 -19.19247 -19.18880 -19.18006
 Alpha  occ. eigenvalues --  -14.42046 -14.41925 -14.41689 -14.41068 -14.40035
 Alpha  occ. eigenvalues --  -14.39631 -14.39148 -14.38880 -10.37828 -10.35534
 Alpha  occ. eigenvalues --  -10.33405 -10.31792 -10.31467 -10.31455 -10.29797
 Alpha  occ. eigenvalues --  -10.29414 -10.29377 -10.29324 -10.29179 -10.29081
 Alpha  occ. eigenvalues --  -10.28873 -10.28777 -10.28418 -10.28368 -10.28265
 Alpha  occ. eigenvalues --  -10.28057 -10.27922 -10.27638 -10.27531 -10.27416
 Alpha  occ. eigenvalues --  -10.27241 -10.27172 -10.26796 -10.26519 -10.26454
 Alpha  occ. eigenvalues --  -10.26427 -10.26396 -10.26312 -10.26251 -10.26079
 Alpha  occ. eigenvalues --  -10.26064 -10.26053 -10.25976 -10.25913 -10.25912
 Alpha  occ. eigenvalues --  -10.25763 -10.25634 -10.25598 -10.25515 -10.25495
 Alpha  occ. eigenvalues --  -10.25481 -10.25374 -10.25336 -10.25259 -10.25066
 Alpha  occ. eigenvalues --  -10.25004 -10.25000 -10.24880 -10.24783 -10.24691
 Alpha  occ. eigenvalues --  -10.24438 -10.24052 -10.24037 -10.23909 -10.23898
 Alpha  occ. eigenvalues --  -10.23694 -10.23626 -10.23520 -10.23486 -10.23475
 Alpha  occ. eigenvalues --  -10.23261 -10.23254 -10.22975 -10.22814 -10.22717
 Alpha  occ. eigenvalues --  -10.22302  -3.16646  -3.14691  -1.89424  -1.89071
 Alpha  occ. eigenvalues --   -1.88822  -1.87552  -1.87047  -1.86924  -1.10728
 Alpha  occ. eigenvalues --   -1.10275  -1.04433  -1.04304  -1.04232  -1.03627
 Alpha  occ. eigenvalues --   -1.02900  -1.01949  -1.00123  -0.99025  -0.98974
 Alpha  occ. eigenvalues --   -0.98234  -0.98216  -0.97647  -0.97205  -0.96152
 Alpha  occ. eigenvalues --   -0.88922  -0.87745  -0.83641  -0.83175  -0.82871
 Alpha  occ. eigenvalues --   -0.82434  -0.82245  -0.81765  -0.81719  -0.81346
 Alpha  occ. eigenvalues --   -0.81259  -0.81114  -0.80443  -0.80089  -0.79252
 Alpha  occ. eigenvalues --   -0.78579  -0.78105  -0.77669  -0.77151  -0.76559
 Alpha  occ. eigenvalues --   -0.76033  -0.75736  -0.75373  -0.75311  -0.74793
 Alpha  occ. eigenvalues --   -0.74593  -0.72671  -0.72522  -0.71753  -0.71722
 Alpha  occ. eigenvalues --   -0.71382  -0.71321  -0.70508  -0.70419  -0.69739
 Alpha  occ. eigenvalues --   -0.69479  -0.67345  -0.66953  -0.66491  -0.66372
 Alpha  occ. eigenvalues --   -0.64420  -0.63651  -0.63341  -0.62934  -0.62548
 Alpha  occ. eigenvalues --   -0.61883  -0.61448  -0.60356  -0.60018  -0.59643
 Alpha  occ. eigenvalues --   -0.59612  -0.59593  -0.59380  -0.59269  -0.58995
 Alpha  occ. eigenvalues --   -0.58726  -0.56936  -0.56277  -0.54989  -0.54660
 Alpha  occ. eigenvalues --   -0.54494  -0.54379  -0.54091  -0.53719  -0.53467
 Alpha  occ. eigenvalues --   -0.53307  -0.53088  -0.52832  -0.52240  -0.51753
 Alpha  occ. eigenvalues --   -0.50820  -0.50740  -0.50579  -0.50402  -0.50065
 Alpha  occ. eigenvalues --   -0.49739  -0.49594  -0.49321  -0.48608  -0.48468
 Alpha  occ. eigenvalues --   -0.48255  -0.48111  -0.47822  -0.47610  -0.47492
 Alpha  occ. eigenvalues --   -0.47432  -0.47277  -0.46922  -0.46664  -0.46645
 Alpha  occ. eigenvalues --   -0.46537  -0.46374  -0.46167  -0.46167  -0.46070
 Alpha  occ. eigenvalues --   -0.45983  -0.45919  -0.45342  -0.45316  -0.45019
 Alpha  occ. eigenvalues --   -0.44932  -0.44662  -0.44385  -0.44189  -0.44145
 Alpha  occ. eigenvalues --   -0.43982  -0.43973  -0.43782  -0.43643  -0.43471
 Alpha  occ. eigenvalues --   -0.43321  -0.43072  -0.42859  -0.42708  -0.42692
 Alpha  occ. eigenvalues --   -0.42518  -0.42375  -0.42227  -0.42002  -0.41865
 Alpha  occ. eigenvalues --   -0.41798  -0.41543  -0.41215  -0.41095  -0.40964
 Alpha  occ. eigenvalues --   -0.40879  -0.40803  -0.40802  -0.40772  -0.40727
 Alpha  occ. eigenvalues --   -0.40365  -0.40277  -0.40267  -0.40082  -0.39820
 Alpha  occ. eigenvalues --   -0.39468  -0.39390  -0.39367  -0.39104  -0.39073
 Alpha  occ. eigenvalues --   -0.38955  -0.38723  -0.38709  -0.38667  -0.38486
 Alpha  occ. eigenvalues --   -0.38464  -0.38320  -0.37989  -0.37985  -0.37443
 Alpha  occ. eigenvalues --   -0.37433  -0.37178  -0.37070  -0.36601  -0.36577
 Alpha  occ. eigenvalues --   -0.36407  -0.36322  -0.36068  -0.36057  -0.35943
 Alpha  occ. eigenvalues --   -0.35917  -0.35827  -0.35615  -0.35507  -0.35131
 Alpha  occ. eigenvalues --   -0.35014  -0.34614  -0.34270  -0.34218  -0.33714
 Alpha  occ. eigenvalues --   -0.33439  -0.33334  -0.33091  -0.32815  -0.32722
 Alpha  occ. eigenvalues --   -0.32492  -0.31778  -0.31760  -0.31526  -0.31489
 Alpha  occ. eigenvalues --   -0.30990  -0.30989  -0.30215  -0.29618  -0.29346
 Alpha  occ. eigenvalues --   -0.29283  -0.29139  -0.28604  -0.26929  -0.26729
 Alpha  occ. eigenvalues --   -0.26415  -0.26036  -0.26034  -0.25912  -0.25596
 Alpha  occ. eigenvalues --   -0.25412  -0.25410  -0.25023  -0.21171  -0.20714
 Alpha  occ. eigenvalues --   -0.18926  -0.18698
 Alpha virt. eigenvalues --   -0.11256  -0.10922  -0.06173  -0.05112  -0.04550
 Alpha virt. eigenvalues --   -0.04125  -0.03303  -0.02361  -0.02041  -0.00078
 Alpha virt. eigenvalues --   -0.00021   0.00597   0.00831   0.01419   0.01434

 Mulliken charges:
               1
     1  Mg  12.000000
     2  C    6.000000
     3  C    6.000000
     4  C    6.000000
     5  C    6.000001
     6  N    7.000000
     7  C    5.999999
     8  C    6.000000
     9  C    6.000000
    10  C    6.000001
    11  C    6.000000
    12  C    6.000000
    13  C    6.000000
    14  H    1.000000
    15  N    7.000000
    16  C    6.000001
    17  C    6.000001
    18  C    6.000000
    19  C    6.000001
    20  C    6.000000
    21  C    6.000000
    22  O    8.000001
    23  C    6.000000
    24  N    7.000000
    25  C    6.000001
    26  C    6.000000
    27  C    6.000000
    28  C    5.999999
    29  C    6.000000
    30  C    6.000000
    31  C    6.000000
    32  N    7.000000
    33  C    5.999999
    34  C    5.999999
    35  C    6.000000
    36  C    5.999999
    37  C    6.000000
    38  C    5.999999
    39  O    7.999999
    40  C    6.000000
    41  C    6.000000
    42  O    8.000000
    43  O    8.000000
    44  C    6.000000
    45  H    1.000000
    46  H    1.000000
    47  H    1.000000
    48  H    1.000000
    49  H    1.000000
    50  H    1.000000
    51  H    1.000000
    52  H    1.000000
    53  H    1.000000
    54  H    1.000000
    55  H    1.000000
    56  H    1.000000
    57  H    1.000001
    58  H    1.000000
    59  H    1.000001
    60  H    1.000000
    61  H    1.000000
    62  H    1.000000
    63  H    1.000000
    64  H    1.000000
    65  H    1.000000
    66  H    1.000000
    67  H    1.000000
    68  H    1.000000
    69  H    1.000000
    70  H    1.000000
    71  H    1.000000
    72  H    1.000000
    73  H    1.000000
    74  H    1.000000
    75  H    1.000000
    76  H    1.000000
    77  H    1.000000
    78  H    1.000000
    79  H    1.000000
    80  Mg  12.000000
    81  C    6.000000
    82  C    6.000000
    83  C    6.000000
    84  C    6.000000
    85  N    7.000000
    86  C    6.000000
    87  C    6.000000
    88  C    6.000000
    89  C    6.000000
    90  C    6.000000
    91  C    6.000000
    92  C    6.000000
    93  H    1.000000
    94  N    7.000000
    95  C    6.000000
    96  C    6.000000
    97  C    6.000000
    98  C    6.000000
    99  C    6.000000
   100  C    6.000000
   101  O    8.000000
   102  C    6.000000
   103  N    7.000000
   104  C    6.000000
   105  C    6.000000
   106  C    6.000000
   107  C    6.000000
   108  C    6.000000
   109  C    6.000000
   110  C    6.000000
   111  N    7.000000
   112  C    6.000000
   113  C    6.000000
   114  C    6.000000
   115  C    6.000000
   116  C    6.000000
   117  C    6.000000
   118  O    8.000000
   119  C    6.000000
   120  C    6.000000
   121  O    8.000000
   122  O    8.000000
   123  C    6.000000
   124  H    1.000000
   125  H    1.000000
   126  H    1.000000
   127  H    1.000000
   128  H    1.000000
   129  H    1.000000
   130  H    1.000000
   131  H    1.000000
   132  H    1.000000
   133  H    1.000000
   134  H    1.000000
   135  H    1.000000
   136  H    1.000000
   137  H    1.000000
   138  H    1.000000
   139  H    1.000000
   140  H    1.000000
   141  H    1.000000
   142  H    1.000000
   143  H    1.000000
   144  H    1.000000
   145  H    1.000000
   146  H    1.000000
   147  H    1.000000
   148  H    1.000000
   149  H    1.000000
   150  H    1.000000
   151  H    1.000000
   152  H    1.000000
   153  H    1.000000
   154  H    1.000000
   155  H    1.000000
   156  H    1.000000
   157  H    1.000000
   158  H    1.000000
 Sum of Mulliken charges = 624.00000

 Dipole moment (field-independent basis, Debye):
    X=              0.0001    Y=              0.0000    Z=              0.0003  Tot=              0.0003
 Quadrupole moment (field-independent basis, Debye-Ang):
   XX=             -0.0029   YY=              0.0001   ZZ=              0.0003
   XY=              0.0001   XZ=             -0.0023   YZ=             -0.0000

 Normal termination of Gaussian 16 at Thu Oct 14 17:36:24 2021.
