 Gaussian 16, Revision A.03,
 Gaussian 16:  ES64L-G16RevA.03 25-Dec-2016

 --------------------------------------------------------
 #p PBE1PBE/Def2SVP td=(nstates=5) density=(transition=1)
 --------------------------------------------------------

 --------------------------------
 TDDFT excited states in gaussian
 --------------------------------
 Symbolic Z-matrix:
 Charge =  0 Multiplicity = 1

                         Standard orientation:
 ---------------------------------------------------------------------
 Center     Atomic      Atomic             Coordinates (Angstroms)
 Number     Number       Type             X           Y           Z
 ---------------------------------------------------------------------
      1         12           0       23.933890    0.551707    0.052676
      2          6           0       22.994862   -2.566056   -1.292938
      3          6           0       23.959278   -0.842662    3.148768
      4          6           0       24.719803    3.594244    1.303776
      5          6           0       23.445034    1.976268   -3.076252
      6          7           0       23.437297   -1.411170    0.843140
      7          6           0       23.189007   -2.567515    0.098570
      8          6           0       23.182780   -3.755686    1.012783
      9          6           0       23.002536   -3.104340    2.404555
     10          6           0       23.507739   -1.667433    2.114629
     11          6           0       21.556746   -3.043689    2.990899
     12          6           0       24.445786   -4.693238    0.930515
     13          6           0       24.129033   -6.152204    0.841694
     14          1           0       24.953049   -7.091156    1.742446
     15          7           0       24.379106    1.213668    1.907492
     16          6           0       24.430806    0.457920    3.090589
     17          6           0       24.852213    1.268106    4.162955
     18          6           0       25.102818    2.627230    3.650797
     19          6           0       24.755740    2.522534    2.262228
     20          6           0       24.893612    0.861078    5.606886
     21          6           0       25.533884    3.982936    4.361524
     22          8           0       25.702427    4.993080    3.720508
     23          6           0       25.845820    4.022277    5.850724
     24          7           0       23.954910    2.528792   -0.757357
     25          6           0       24.299906    3.608974   -0.009906
     26          6           0       24.214332    4.943244   -0.894644
     27          6           0       24.098778    4.378391   -2.377784
     28          6           0       23.806674    2.847866   -2.071566
     29          6           0       23.055219    5.921050   -0.556307
     30          6           0       25.388350    4.585294   -3.249475
     31          6           0       25.073563    5.248293   -4.524244
     32          7           0       23.297935   -0.115257   -1.800242
     33          6           0       23.253107    0.563852   -3.016869
     34          6           0       22.875668   -0.341582   -4.067768
     35          6           0       22.739026   -1.560259   -3.434895
     36          6           0       23.019067   -1.404549   -2.113948
     37          6           0       22.785770    0.095374   -5.553211
     38          6           0       22.387417   -2.955237   -3.627073
     39          8           0       21.953795   -3.484222   -4.626784
     40          6           0       22.521367   -3.679882   -2.196896
     41          6           0       21.214034   -4.252339   -1.826711
     42          8           0       20.150530   -3.587888   -1.714615
     43          8           0       21.362479   -5.599785   -1.674490
     44          6           0       20.085187   -6.361053   -1.678667
     45          1           0       23.905084   -1.348155    4.115163
     46          1           0       24.948282    4.612045    1.626267
     47          1           0       23.227134    2.450782   -4.034793
     48          1           0       22.298748   -4.386831    0.914244
     49          1           0       23.588336   -3.584163    3.188779
     50          1           0       20.933221   -3.896527    2.719427
     51          1           0       21.114557   -2.109143    2.644687
     52          1           0       21.488494   -2.913722    4.070668
     53          1           0       25.036527   -4.445958    1.812341
     54          1           0       25.098064   -4.415623    0.102013
     55          1           0       24.293941   -6.335232   -0.220217
     56          1           0       23.103265   -6.323531    1.167852
     57          1           0       25.887850    0.700221    6.024261
     58          1           0       24.424790   -0.116164    5.714967
     59          1           0       24.399646    1.499293    6.339047
     60          1           0       26.247507    5.017258    6.038503
     61          1           0       26.469819    3.180870    6.153404
     62          1           0       24.957080    3.747655    6.419654
     63          1           0       25.092970    5.563226   -0.715804
     64          1           0       23.232485    4.841150   -2.852875
     65          1           0       22.345711    5.589682    0.202623
     66          1           0       22.439796    6.170328   -1.421082
     67          1           0       23.519029    6.845114   -0.210194
     68          1           0       25.794879    3.605754   -3.503884
     69          1           0       26.157585    5.200878   -2.783630
     70          1           0       25.318669    6.306823   -4.433526
     71          1           0       24.078867    5.130234   -4.952604
     72          1           0       25.662978    4.794642   -5.321121
     73          1           0       23.317611    1.039142   -5.676159
     74          1           0       21.756893    0.074099   -5.915370
     75          1           0       23.367569   -0.656694   -6.084830
     76          1           0       23.278277   -4.464462   -2.213211
     77          1           0       20.284005   -7.432579   -1.690093
     78          1           0       19.640184   -6.154617   -2.652284
     79          1           0       19.495843   -5.988864   -0.840197
     80         12           0      -23.972611    0.508069    0.099198
     81          6           0      -21.730464   -1.881330    1.012787
     82          6           0      -26.227154   -1.894791   -0.890850
     83          6           0      -26.026816    2.993498   -0.932140
     84          6           0      -21.459678    2.925738    0.675216
     85          7           0      -23.881207   -1.657480   -0.137920
     86          6           0      -23.006880   -2.390850    0.601518
     87          6           0      -23.415612   -3.815730    0.763296
     88          6           0      -24.774480   -3.804752   -0.110994
     89          6           0      -25.000410   -2.359832   -0.413820
     90          6           0      -24.658448   -4.677144   -1.441970
     91          6           0      -23.697559   -4.099260    2.312154
     92          6           0      -23.610927   -5.551499    2.786609
     93          1           0      -23.580638   -6.779701    1.843155
     94          7           0      -25.904126    0.599947   -0.697802
     95          6           0      -26.659484   -0.528179   -1.057320
     96          6           0      -27.902720   -0.044442   -1.611450
     97          6           0      -27.870590    1.364892   -1.601223
     98          6           0      -26.577564    1.684926   -1.012258
     99          6           0      -29.021011   -1.022662   -2.040781
    100          6           0      -28.974344    2.382260   -2.203977
    101          8           0      -28.925372    3.605375   -2.022159
    102          6           0      -30.186874    1.948072   -3.010812
    103          7           0      -23.760952    2.707865   -0.027628
    104          6           0      -24.766835    3.462716   -0.530604
    105          6           0      -24.308882    4.895178   -0.799801
    106          6           0      -22.908362    4.954723    0.043692
    107          6           0      -22.695742    3.467389    0.366565
    108          6           0      -24.259987    5.342239   -2.332238
    109          6           0      -22.959757    5.705808    1.469454
    110          6           0      -21.911455    6.748534    1.811409
    111          7           0      -21.995514    0.605346    0.765881
    112          6           0      -21.111900    1.604076    0.937871
    113          6           0      -19.847816    1.065687    1.531034
    114          6           0      -20.117770   -0.320988    1.613025
    115          6           0      -21.384893   -0.526093    1.014454
    116          6           0      -18.611390    1.755851    1.987630
    117          6           0      -19.502952   -1.522653    2.037108
    118          8           0      -18.380200   -1.718714    2.545991
    119          6           0      -20.519813   -2.598312    1.663658
    120          6           0      -19.908699   -3.512032    0.725663
    121          8           0      -19.381866   -3.313549   -0.324181
    122          8           0      -20.143307   -4.790684    1.222512
    123          6           0      -19.706840   -6.036711    0.483397
    124          1           0      -27.067087   -2.581422   -1.012160
    125          1           0      -26.655675    3.779923   -1.355478
    126          1           0      -20.585516    3.579086    0.690265
    127          1           0      -22.776834   -4.634493    0.432693
    128          1           0      -25.617198   -4.191929    0.461707
    129          1           0      -25.560634   -5.209698   -1.741991
    130          1           0      -23.779107   -5.317296   -1.372463
    131          1           0      -24.456697   -3.973510   -2.250275
    132          1           0      -24.676786   -3.727700    2.614706
    133          1           0      -22.951284   -3.511182    2.846928
    134          1           0      -24.441672   -5.680361    3.481565
    135          1           0      -22.731816   -5.655251    3.421472
    136          1           0      -28.802714   -2.070921   -1.837244
    137          1           0      -29.188552   -0.853989   -3.104024
    138          1           0      -29.928822   -0.716066   -1.520673
    139          1           0      -30.821247    1.433452   -2.290069
    140          1           0      -29.968016    1.114453   -3.678406
    141          1           0      -30.557536    2.774886   -3.616346
    142          1           0      -25.007340    5.564025   -0.295494
    143          1           0      -22.116468    5.415032   -0.547498
    144          1           0      -23.258819    5.664854   -2.619016
    145          1           0      -24.981195    6.138540   -2.512701
    146          1           0      -24.474961    4.496619   -2.985982
    147          1           0      -23.020054    4.999735    2.297531
    148          1           0      -23.931777    6.196087    1.514117
    149          1           0      -21.441430    6.420090    2.737740
    150          1           0      -22.323424    7.753266    1.901547
    151          1           0      -21.120648    6.733249    1.060108
    152          1           0      -18.649015    2.844066    1.940710
    153          1           0      -17.753861    1.456633    1.384400
    154          1           0      -18.421589    1.468356    3.021566
    155          1           0      -20.861191   -3.162045    2.532344
    156          1           0      -19.256905   -5.772203   -0.473767
    157          1           0      -20.579635   -6.648954    0.252577
    158          1           0      -18.993102   -6.528793    1.144051
 ---------------------------------------------------------------------

 SCF Done:  E(RPBE1PBE) =  -4067.39696720     A.U. after   16 cycles

 Excitation energies and oscillator strengths:

 Excited State   1:      Singlet-A      1.8923 eV  655.19 nm  f=0.3855  <S**2>=0.000
     310 -> 315       -0.18626
     312 -> 314        0.68966
     312 <- 314       -0.10199
 This state for optimization and/or second-order correction.
 Total Energy, E(TD-HF/TD-DFT) =  -4067.32742535
 Copying the excited state density for this state as the 1-particle RhoCI density.

 Excited State   2:      Singlet-A      1.8995 eV  652.73 nm  f=0.3766  <S**2>=0.000
     309 -> 316        0.17470
     311 -> 313        0.69185
     311 <- 313       -0.10895

 Excited State   3:      Singlet-A      1.9312 eV  641.99 nm  f=0.0000  <S**2>=0.000
     312 -> 313        0.70711

 Excited State   4:      Singlet-A      2.1307 eV  581.90 nm  f=0.0000  <S**2>=0.000
     311 -> 314        0.70711

 Excited State   5:      Singlet-A      2.2138 eV  560.05 nm  f=0.1472  <S**2>=0.000
     309 -> 313        0.66237
     311 -> 316       -0.22947

 The electronic state is 1-A.
 Alpha  occ. eigenvalues --  -46.92767 -46.90596 -19.26295 -19.24316 -19.19966
 Alpha  occ. eigenvalues --  -19.19762 -19.19711 -19.19489 -19.19354 -19.18935
 Alpha  occ. eigenvalues --  -14.41992 -14.41478 -14.41135 -14.41048 -14.39221
 Alpha  occ. eigenvalues --  -14.38945 -14.38936 -14.38303 -10.36433 -10.35568
 Alpha  occ. eigenvalues --  -10.33488 -10.33370 -10.32281 -10.31509 -10.29391
 Alpha  occ. eigenvalues --  -10.29369 -10.29086 -10.28861 -10.28436 -10.28332
 Alpha  occ. eigenvalues --  -10.28284 -10.28255 -10.28172 -10.28150 -10.27987
 Alpha  occ. eigenvalues --  -10.27710 -10.27598 -10.27486 -10.27402 -10.27000
 Alpha  occ. eigenvalues --  -10.26503 -10.26404 -10.26377 -10.26316 -10.26128
 Alpha  occ. eigenvalues --  -10.26125 -10.26113 -10.26039 -10.25991 -10.25830
 Alpha  occ. eigenvalues --  -10.25823 -10.25759 -10.25709 -10.25668 -10.25565
 Alpha  occ. eigenvalues --  -10.25531 -10.25505 -10.25505 -10.25458 -10.25428
 Alpha  occ. eigenvalues --  -10.25337 -10.25310 -10.25075 -10.25069 -10.24894
 Alpha  occ. eigenvalues --  -10.24502 -10.24431 -10.24078 -10.24069 -10.24003
 Alpha  occ. eigenvalues --  -10.23963 -10.23912 -10.23753 -10.23689 -10.23672
 Alpha  occ. eigenvalues --  -10.23577 -10.23554 -10.23528 -10.23501 -10.23433
 Alpha  occ. eigenvalues --  -10.23341 -10.22790 -10.22769 -10.22364 -10.22177
 Alpha  occ. eigenvalues --  -10.22084  -3.14759  -3.12898  -1.87620  -1.87115
 Alpha  occ. eigenvalues --   -1.86993  -1.85745  -1.85260  -1.85147  -1.10514
 Alpha  occ. eigenvalues --   -1.10305  -1.06332  -1.05165  -1.04314  -1.02953
 Alpha  occ. eigenvalues --   -1.01978  -1.01115  -1.00188  -0.99502  -0.99092
 Alpha  occ. eigenvalues --   -0.98287  -0.98099  -0.97272  -0.97187  -0.95967
 Alpha  occ. eigenvalues --   -0.87803  -0.86976  -0.83441  -0.82940  -0.82922
 Alpha  occ. eigenvalues --   -0.82498  -0.82286  -0.81831  -0.81357  -0.81327
 Alpha  occ. eigenvalues --   -0.81179  -0.80638  -0.80516  -0.80208  -0.78639
 Alpha  occ. eigenvalues --   -0.78538  -0.78105  -0.77730  -0.77171  -0.76615
 Alpha  occ. eigenvalues --   -0.76206  -0.75810  -0.75488  -0.75441  -0.74990
 Alpha  occ. eigenvalues --   -0.74659  -0.72745  -0.72464  -0.71795  -0.71627
 Alpha  occ. eigenvalues --   -0.71372  -0.71088  -0.70467  -0.70032  -0.69544
 Alpha  occ. eigenvalues --   -0.69194  -0.67344  -0.67017  -0.66437  -0.65379
 Alpha  occ. eigenvalues --   -0.63710  -0.63036  -0.62996  -0.62609  -0.62470
 Alpha  occ. eigenvalues --   -0.61951  -0.60882  -0.60428  -0.59933  -0.59705
 Alpha  occ. eigenvalues --   -0.59655  -0.59586  -0.59072  -0.59060  -0.58796
 Alpha  occ. eigenvalues --   -0.58584  -0.56527  -0.56313  -0.55062  -0.54818
 Alpha  occ. eigenvalues --   -0.54591  -0.54446  -0.53834  -0.53785  -0.53370
 Alpha  occ. eigenvalues --   -0.52878  -0.52709  -0.52396  -0.52302  -0.52082
 Alpha  occ. eigenvalues --   -0.50669  -0.50651  -0.50256  -0.50141  -0.50023
 Alpha  occ. eigenvalues --   -0.49790  -0.49469  -0.48644  -0.48396  -0.48323
 Alpha  occ. eigenvalues --   -0.48038  -0.47968  -0.47682  -0.47488  -0.47333
 Alpha  occ. eigenvalues --   -0.47290  -0.47163  -0.46709  -0.46622  -0.46428
 Alpha  occ. eigenvalues --   -0.46427  -0.46226  -0.46141  -0.45974  -0.45844
 Alpha  occ. eigenvalues --   -0.45751  -0.45450  -0.45367  -0.45110  -0.44984
 Alpha  occ. eigenvalues --   -0.44652  -0.44449  -0.44337  -0.44186  -0.44040
 Alpha  occ. eigenvalues --   -0.44028  -0.43983  -0.43707  -0.43542  -0.43532
 Alpha  occ. eigenvalues --   -0.43344  -0.42929  -0.42778  -0.42643  -0.42591
 Alpha  occ. eigenvalues --   -0.42390  -0.42296  -0.41939  -0.41925  -0.41606
 Alpha  occ. eigenvalues --   -0.41415  -0.41313  -0.41278  -0.41156  -0.41153
 Alpha  occ. eigenvalues --   -0.40940  -0.40857  -0.40784  -0.40554  -0.40491
 Alpha  occ. eigenvalues --   -0.40345  -0.40083  -0.39879  -0.39831  -0.39482
 Alpha  occ. eigenvalues --   -0.39436  -0.39424  -0.39204  -0.39141  -0.39125
 Alpha  occ. eigenvalues --   -0.39017  -0.38767  -0.38739  -0.38524  -0.38253
 Alpha  occ. eigenvalues --   -0.38150  -0.38063  -0.37841  -0.37626  -0.37504
 Alpha  occ. eigenvalues --   -0.37438  -0.37128  -0.37011  -0.36748  -0.36706
 Alpha  occ. eigenvalues --   -0.36639  -0.36462  -0.36148  -0.36095  -0.35972
 Alpha  occ. eigenvalues --   -0.35891  -0.35840  -0.35659  -0.35325  -0.35076
 Alpha  occ. eigenvalues --   -0.34876  -0.34675  -0.34330  -0.34065  -0.33763
 Alpha  occ. eigenvalues --   -0.33395  -0.33330  -0.32824  -0.32820  -0.32789
 Alpha  occ. eigenvalues --   -0.32549  -0.31824  -0.31723  -0.31581  -0.31380
 Alpha  occ. eigenvalues --   -0.31040  -0.31022  -0.29468  -0.29411  -0.29328
 Alpha  occ. eigenvalues --   -0.29111  -0.28663  -0.28565  -0.26921  -0.26799
 Alpha  occ. eigenvalues --   -0.26455  -0.26098  -0.25987  -0.25876  -0.25671
 Alpha  occ. eigenvalues --   -0.25613  -0.25468  -0.25124  -0.20905  -0.20781
 Alpha  occ. eigenvalues --   -0.19100  -0.18766
 Alpha virt. eigenvalues --   -0.11392  -0.10990  -0.05179  -0.04817  -0.04190
 Alpha virt. eigenvalues --   -0.03530  -0.02115  -0.01667  -0.00167  -0.00084
 Alpha virt. eigenvalues --    0.00689   0.00784   0.01360   0.01463   0.01618

 Mulliken charges:
               1
     1  Mg  12.000004
     2  C    6.000045
     3  C    5.999983
     4  C    6.000005
     5  C    6.000039
     6  N    7.000039
     7  C    5.999937
     8  C    5.999994
     9  C    6.000013
    10  C    6.000006
    11  C    6.000014
    12  C    6.000000
    13  C    5.999988
    14  H    1.000034
    15  N    6.999968
    16  C    6.000024
    17  C    6.000026
    18  C    6.000007
    19  C    6.000049
    20  C    6.000028
    21  C    6.000033
    22  O    8.000018
    23  C    6.000025
    24  N    6.999929
    25  C    6.000063
    26  C    5.999991
    27  C    6.000018
    28  C    5.999969
    29  C    6.000008
    30  C    5.999991
    31  C    5.999993
    32  N    6.999975
    33  C    5.999987
    34  C    5.999978
    35  C    6.000019
    36  C    5.999947
    37  C    5.999964
    38  C    5.999971
    39  O    7.999971
    40  C    5.999970
    41  C    5.999978
    42  O    7.999969
    43  O    8.000007
    44  C    5.999999
    45  H    1.000003
    46  H    1.000023
    47  H    0.999992
    48  H    0.999979
    49  H    1.000022
    50  H    0.999968
    51  H    0.999966
    52  H    0.999978
    53  H    1.000015
    54  H    1.000025
    55  H    1.000015
    56  H    0.999966
    57  H    1.000052
    58  H    0.999993
    59  H    0.999992
    60  H    1.000021
    61  H    1.000025
    62  H    0.999974
    63  H    1.000028
    64  H    0.999971
    65  H    0.999958
    66  H    0.999988
    67  H    1.000018
    68  H    1.000020
    69  H    1.000025
    70  H    1.000014
    71  H    0.999979
    72  H    1.000032
    73  H    1.000021
    74  H    0.999956
    75  H    1.000021
    76  H    1.000024
    77  H    1.000017
    78  H    0.999991
    79  H    0.999956
    80  Mg  11.998684
    81  C    5.981640
    82  C    6.018037
    83  C    6.015717
    84  C    5.991091
    85  N    7.000373
    86  C    6.035513
    87  C    5.982980
    88  C    6.013771
    89  C    5.962331
    90  C    6.002158
    91  C    5.996186
    92  C    5.999682
    93  H    1.005915
    94  N    7.005237
    95  C    5.952485
    96  C    5.989460
    97  C    5.978425
    98  C    5.974830
    99  C    6.000328
   100  C    5.987747
   101  O    7.973016
   102  C    6.001448
   103  N    7.001901
   104  C    5.970046
   105  C    6.009856
   106  C    5.990528
   107  C    6.027347
   108  C    6.001749
   109  C    5.992367
   110  C    6.000965
   111  N    6.997001
   112  C    6.035285
   113  C    6.033101
   114  C    6.001117
   115  C    6.026630
   116  C    5.995573
   117  C    6.016960
   118  O    8.029441
   119  C    5.998580
   120  C    6.004086
   121  O    8.003320
   122  O    8.001310
   123  C    5.998726
   124  H    0.990730
   125  H    0.994228
   126  H    1.008116
   127  H    1.003194
   128  H    0.997727
   129  H    0.999632
   130  H    0.985316
   131  H    0.999685
   132  H    1.011261
   133  H    0.992069
   134  H    1.004079
   135  H    0.996836
   136  H    0.983733
   137  H    0.984933
   138  H    0.984690
   139  H    0.993087
   140  H    0.993817
   141  H    0.986989
   142  H    1.000761
   143  H    1.002946
   144  H    0.989605
   145  H    1.000128
   146  H    1.004266
   147  H    0.999222
   148  H    1.012274
   149  H    0.997483
   150  H    1.005340
   151  H    0.999276
   152  H    1.018212
   153  H    1.019292
   154  H    1.017025
   155  H    1.008962
   156  H    1.003139
   157  H    1.006658
   158  H    1.002343
 Sum of Mulliken charges = 624.00000

 Dipole moment (field-independent basis, Debye):
    X=              9.5255    Y=             -0.2398    Z=              4.0788  Tot=             10.3648
 Quadrupole moment (field-independent basis, Debye-Ang):
   XX=           -454.7830   YY=              2.5930   ZZ=             -0.2608
   XY=             10.8364   XZ=            -97.8467   YZ=              1.9850

 Normal termination of Gaussian 16 at Thu Oct 14 01:49:55 2021.
