 Gaussian 16, Revision A.03,
 Gaussian 16:  ES64L-G16RevA.03 25-Dec-2016

 --------------------------------------------------------
 #p PBE1PBE/Def2SVP td=(nstates=5) density=(transition=1)
 --------------------------------------------------------

 --------------------------------
 TDDFT excited states in gaussian
 --------------------------------
 Symbolic Z-matrix:
 Charge =  0 Multiplicity = 1

                         Standard orientation:
 ---------------------------------------------------------------------
 Center     Atomic      Atomic             Coordinates (Angstroms)
 Number     Number       Type             X           Y           Z
 ---------------------------------------------------------------------
      1         12           0      -24.082632    0.538339    0.226358
      2          6           0      -23.067141   -2.537211   -1.214648
      3          6           0      -20.975182    1.735584   -0.435443
      4          6           0      -25.310670    3.650451    0.831388
      5          6           0      -27.318415   -0.699009    0.333217
      6          7           0      -22.334960   -0.369567   -0.881755
      7          6           0      -22.066080   -1.646167   -1.298980
      8          6           0      -20.663574   -1.798367   -1.758068
      9          6           0      -19.946152   -0.492710   -1.172193
     10          6           0      -21.125861    0.348806   -0.822982
     11          6           0      -19.045576   -0.821773    0.007496
     12          6           0      -20.698458   -1.960262   -3.285875
     13          6           0      -19.976259   -3.229500   -3.906663
     14          1           0      -18.883147   -3.081834   -5.007573
     15          7           0      -23.305318    2.447549    0.261734
     16          6           0      -21.946214    2.707495    0.037501
     17          6           0      -21.704846    4.078430    0.373997
     18          6           0      -22.951522    4.699575    0.722705
     19          6           0      -23.914284    3.566312    0.686027
     20          6           0      -20.294852    4.653849    0.339302
     21          6           0      -23.226502    6.141338    1.087346
     22          8           0      -22.178905    6.842786    1.192174
     23          6           0      -24.595583    6.863440    1.235670
     24          7           0      -26.061381    1.395265    0.555381
     25          6           0      -26.293373    2.700985    0.814583
     26          6           0      -27.798849    3.029881    0.996477
     27          6           0      -28.429745    1.595666    0.944790
     28          6           0      -27.172598    0.697013    0.526582
     29          6           0      -28.007420    3.756279    2.313210
     30          6           0      -29.554190    1.422988   -0.030184
     31          6           0      -30.891679    1.189876    0.618434
     32          7           0      -25.020669   -1.224323   -0.127195
     33          6           0      -26.346360   -1.659594   -0.005344
     34          6           0      -26.457516   -3.020736   -0.150283
     35          6           0      -25.180938   -3.423856   -0.592397
     36          6           0      -24.375225   -2.288327   -0.635171
     37          6           0      -27.686122   -3.810440    0.248771
     38          6           0      -24.364342   -4.617427   -0.938950
     39          8           0      -24.676348   -5.767633   -0.951533
     40          6           0      -23.004107   -3.987072   -1.423400
     41          6           0      -21.895180   -4.864860   -0.885433
     42          8           0      -21.253649   -5.672594   -1.557333
     43          8           0      -21.667574   -4.586137    0.484151
     44          6           0      -20.520729   -5.319313    1.019345
     45          1           0      -19.933774    2.064872   -0.435304
     46          1           0      -25.732710    4.613640    1.127694
     47          1           0      -28.318342   -1.086736    0.130757
     48          1           0      -20.234938   -2.700114   -1.320593
     49          1           0      -19.327264   -0.064205   -1.960069
     50          1           0      -19.450840   -1.598824    0.654157
     51          1           0      -18.984496    0.059783    0.646512
     52          1           0      -18.019815   -1.058707   -0.274862
     53          1           0      -20.248721   -1.063246   -3.711304
     54          1           0      -21.700413   -1.907866   -3.711839
     55          1           0      -20.836711   -3.736419   -4.344189
     56          1           0      -19.681229   -3.926494   -3.123164
     57          1           0      -19.804868    4.434178   -0.609269
     58          1           0      -19.742407    4.144251    1.128650
     59          1           0      -20.191595    5.738469    0.393397
     60          1           0      -25.009535    6.423609    2.142464
     61          1           0      -25.209227    6.624416    0.367024
     62          1           0      -24.493524    7.947492    1.292456
     63          1           0      -28.210000    3.675228    0.220626
     64          1           0      -28.669435    1.259501    1.953246
     65          1           0      -27.304169    4.588599    2.345901
     66          1           0      -27.793313    3.057825    3.122809
     67          1           0      -29.007526    4.089186    2.588221
     68          1           0      -29.432200    0.564716   -0.690937
     69          1           0      -29.714664    2.232135   -0.742394
     70          1           0      -31.586164    1.932455    0.227475
     71          1           0      -30.876576    1.367517    1.693757
     72          1           0      -31.274407    0.175304    0.502669
     73          1           0      -27.360257   -4.847468    0.335511
     74          1           0      -28.482277   -3.739730   -0.491952
     75          1           0      -27.999436   -3.372276    1.196109
     76          1           0      -23.015731   -4.225187   -2.487639
     77          1           0      -20.078640   -4.778668    1.856329
     78          1           0      -19.696705   -5.342872    0.307642
     79          1           0      -20.760195   -6.347133    1.293388
     80         12           0       24.519662    0.404180   -0.179737
     81          6           0       23.041560   -2.039013    1.837232
     82          6           0       23.055450    2.793961    1.833163
     83          6           0       25.332484    2.790040   -2.481488
     84          6           0       25.353631   -2.078193   -2.445856
     85          7           0       23.304447    0.323352    1.637829
     86          6           0       23.020312   -0.756517    2.377061
     87          6           0       22.482646   -0.448758    3.782261
     88          6           0       22.308964    1.116908    3.712046
     89          6           0       23.030871    1.506218    2.304063
     90          6           0       20.871398    1.673211    3.799365
     91          6           0       23.375232   -0.930487    4.926181
     92          6           0       22.600166   -1.207940    6.227092
     93          1           0       21.084961   -0.963821    6.265263
     94          7           0       24.346519    2.501434   -0.278003
     95          6           0       23.756688    3.333042    0.701740
     96          6           0       23.907588    4.711026    0.279348
     97          6           0       24.520809    4.730949   -1.028658
     98          6           0       24.796013    3.322265   -1.307074
     99          6           0       23.533815    5.846499    1.191964
    100          6           0       24.993640    5.957008   -1.931743
    101          8           0       25.626755    5.834532   -2.952163
    102          6           0       24.590346    7.335379   -1.454771
    103          7           0       25.143464    0.362792   -2.191558
    104          6           0       25.457995    1.464014   -2.932821
    105          6           0       26.025022    1.086546   -4.350809
    106          6           0       26.072475   -0.437541   -4.255544
    107          6           0       25.483322   -0.726284   -2.887648
    108          6           0       25.380206    1.656913   -5.677875
    109          6           0       27.520667   -0.962787   -4.394005
    110          6           0       28.439311   -0.955621   -3.152052
    111          7           0       24.421823   -1.685303   -0.290729
    112          6           0       24.799144   -2.567450   -1.269818
    113          6           0       24.521907   -3.911793   -0.888754
    114          6           0       23.794151   -3.768848    0.377003
    115          6           0       23.757553   -2.455397    0.642311
    116          6           0       24.806757   -5.188951   -1.546457
    117          6           0       23.016485   -4.463605    1.393630
    118          8           0       22.847030   -5.674144    1.574447
    119          6           0       22.490492   -3.398046    2.399872
    120          6           0       21.035208   -3.431231    2.503182
    121          8           0       20.242958   -2.955115    1.697021
    122          8           0       20.676159   -4.274991    3.524194
    123          6           0       19.302458   -4.811456    3.581032
    124          1           0       22.535713    3.476213    2.509385
    125          1           0       25.761989    3.546269   -3.141819
    126          1           0       25.701492   -2.870037   -3.112455
    127          1           0       21.464928   -0.816306    3.911671
    128          1           0       22.946731    1.654787    4.412591
    129          1           0       20.991158    2.391133    4.610556
    130          1           0       20.169641    0.886222    4.074534
    131          1           0       20.572791    2.111877    2.847180
    132          1           0       24.186139   -0.233519    5.134289
    133          1           0       23.875695   -1.857973    4.646673
    134          1           0       23.123276   -0.542926    6.914581
    135          1           0       22.814625   -2.200957    6.624673
    136          1           0       22.998389    5.386515    2.022607
    137          1           0       22.907933    6.551235    0.644082
    138          1           0       24.397998    6.404811    1.555046
    139          1           0       23.548692    7.625329   -1.596353
    140          1           0       25.263629    8.055708   -1.919428
    141          1           0       24.824198    7.278756   -0.391716
    142          1           0       27.015461    1.537949   -4.297427
    143          1           0       25.444742   -0.813895   -5.062456
    144          1           0       25.180814    0.909498   -6.444897
    145          1           0       26.093366    2.346007   -6.129144
    146          1           0       24.494911    2.227336   -5.395285
    147          1           0       27.963651   -0.371726   -5.194660
    148          1           0       27.408567   -1.979372   -4.772097
    149          1           0       29.404986   -0.622539   -3.531498
    150          1           0       28.593142   -1.945397   -2.722806
    151          1           0       28.065769   -0.360053   -2.319812
    152          1           0       25.138818   -5.887368   -0.779104
    153          1           0       25.547946   -5.153143   -2.344925
    154          1           0       23.876568   -5.651178   -1.877398
    155          1           0       22.984302   -3.656074    3.336595
    156          1           0       18.669878   -4.408789    2.789192
    157          1           0       18.867987   -4.506354    4.533320
    158          1           0       19.495780   -5.878273    3.474303
 ---------------------------------------------------------------------

 SCF Done:  E(RPBE1PBE) =  -4067.38997818     A.U. after   16 cycles

 Excitation energies and oscillator strengths:

 Excited State   1:      Singlet-A      1.8485 eV  670.73 nm  f=0.3370  <S**2>=0.000
     309 -> 315       -0.16640
     311 -> 313        0.69421
     311 <- 313       -0.11257
 This state for optimization and/or second-order correction.
 Total Energy, E(TD-HF/TD-DFT) =  -4067.32204684
 Copying the excited state density for this state as the 1-particle RhoCI density.

 Excited State   2:      Singlet-A      1.8678 eV  663.80 nm  f=0.0000  <S**2>=0.000
     312 -> 313        0.70711

 Excited State   3:      Singlet-A      1.8755 eV  661.08 nm  f=0.3964  <S**2>=0.000
     310 -> 316       -0.17473
     312 -> 314        0.69085
     312 <- 314       -0.10931

 Excited State   4:      Singlet-A      2.1030 eV  589.55 nm  f=0.0000  <S**2>=0.000
     311 -> 314        0.70711

 Excited State   5:      Singlet-A      2.1488 eV  577.00 nm  f=0.1398  <S**2>=0.000
     310 -> 314        0.66655
     312 -> 316        0.21033

 The electronic state is 1-A.
 Alpha  occ. eigenvalues --  -46.92418 -46.91665 -19.26291 -19.24557 -19.21266
 Alpha  occ. eigenvalues --  -19.20103 -19.20070 -19.19209 -19.19003 -19.18526
 Alpha  occ. eigenvalues --  -14.41931 -14.41700 -14.41689 -14.41472 -14.39711
 Alpha  occ. eigenvalues --  -14.39088 -14.38733 -14.37920 -10.37421 -10.35656
 Alpha  occ. eigenvalues --  -10.33267 -10.32840 -10.32681 -10.32288 -10.29688
 Alpha  occ. eigenvalues --  -10.28915 -10.28903 -10.28600 -10.28597 -10.28540
 Alpha  occ. eigenvalues --  -10.28448 -10.28440 -10.28395 -10.28306 -10.28287
 Alpha  occ. eigenvalues --  -10.28286 -10.27980 -10.27516 -10.26796 -10.26655
 Alpha  occ. eigenvalues --  -10.26599 -10.26381 -10.26332 -10.26226 -10.26192
 Alpha  occ. eigenvalues --  -10.26188 -10.26128 -10.26032 -10.26021 -10.25978
 Alpha  occ. eigenvalues --  -10.25970 -10.25873 -10.25824 -10.25780 -10.25593
 Alpha  occ. eigenvalues --  -10.25499 -10.25473 -10.25439 -10.25305 -10.25247
 Alpha  occ. eigenvalues --  -10.25230 -10.25044 -10.24805 -10.24721 -10.24676
 Alpha  occ. eigenvalues --  -10.24650 -10.24626 -10.24587 -10.24354 -10.24346
 Alpha  occ. eigenvalues --  -10.24140 -10.24061 -10.23986 -10.23965 -10.23773
 Alpha  occ. eigenvalues --  -10.23572 -10.23559 -10.23463 -10.23455 -10.23323
 Alpha  occ. eigenvalues --  -10.23249 -10.22906 -10.22879 -10.22809 -10.22625
 Alpha  occ. eigenvalues --  -10.22561  -3.14560  -3.13770  -1.87381  -1.86940
 Alpha  occ. eigenvalues --   -1.86789  -1.86612  -1.86141  -1.86000  -1.10347
 Alpha  occ. eigenvalues --   -1.09849  -1.06860  -1.06260  -1.03655  -1.02805
 Alpha  occ. eigenvalues --   -1.02319  -1.01460  -0.99886  -0.99042  -0.98956
 Alpha  occ. eigenvalues --   -0.98000  -0.97976  -0.97411  -0.97147  -0.95630
 Alpha  occ. eigenvalues --   -0.87700  -0.86471  -0.84206  -0.83642  -0.83453
 Alpha  occ. eigenvalues --   -0.83369  -0.83046  -0.82447  -0.82198  -0.81422
 Alpha  occ. eigenvalues --   -0.81398  -0.80715  -0.80412  -0.80245  -0.79108
 Alpha  occ. eigenvalues --   -0.78623  -0.78483  -0.77691  -0.76942  -0.76589
 Alpha  occ. eigenvalues --   -0.76107  -0.76089  -0.75325  -0.75024  -0.74837
 Alpha  occ. eigenvalues --   -0.74540  -0.72447  -0.72151  -0.71757  -0.71420
 Alpha  occ. eigenvalues --   -0.71192  -0.71137  -0.70807  -0.70213  -0.69876
 Alpha  occ. eigenvalues --   -0.69385  -0.67996  -0.66898  -0.66680  -0.65539
 Alpha  occ. eigenvalues --   -0.64163  -0.63788  -0.63385  -0.62851  -0.62128
 Alpha  occ. eigenvalues --   -0.62121  -0.61689  -0.60703  -0.60455  -0.60161
 Alpha  occ. eigenvalues --   -0.59950  -0.59509  -0.59256  -0.59121  -0.58945
 Alpha  occ. eigenvalues --   -0.58288  -0.57691  -0.55987  -0.55086  -0.54635
 Alpha  occ. eigenvalues --   -0.54288  -0.54219  -0.53667  -0.53652  -0.53603
 Alpha  occ. eigenvalues --   -0.52848  -0.52725  -0.52306  -0.51979  -0.51389
 Alpha  occ. eigenvalues --   -0.50841  -0.50408  -0.50347  -0.50219  -0.49990
 Alpha  occ. eigenvalues --   -0.49691  -0.49439  -0.49193  -0.48988  -0.48458
 Alpha  occ. eigenvalues --   -0.48253  -0.48236  -0.47819  -0.47817  -0.47457
 Alpha  occ. eigenvalues --   -0.47399  -0.47260  -0.46844  -0.46781  -0.46693
 Alpha  occ. eigenvalues --   -0.46524  -0.46404  -0.46256  -0.46210  -0.45740
 Alpha  occ. eigenvalues --   -0.45529  -0.45512  -0.45158  -0.45146  -0.44843
 Alpha  occ. eigenvalues --   -0.44765  -0.44681  -0.44505  -0.44283  -0.44207
 Alpha  occ. eigenvalues --   -0.44097  -0.43941  -0.43663  -0.43608  -0.43595
 Alpha  occ. eigenvalues --   -0.43306  -0.43167  -0.43009  -0.42899  -0.42763
 Alpha  occ. eigenvalues --   -0.42656  -0.42429  -0.42319  -0.41895  -0.41784
 Alpha  occ. eigenvalues --   -0.41638  -0.41428  -0.41334  -0.41177  -0.40996
 Alpha  occ. eigenvalues --   -0.40871  -0.40828  -0.40659  -0.40523  -0.40485
 Alpha  occ. eigenvalues --   -0.40387  -0.40215  -0.40088  -0.40000  -0.39952
 Alpha  occ. eigenvalues --   -0.39782  -0.39685  -0.39402  -0.39060  -0.38952
 Alpha  occ. eigenvalues --   -0.38684  -0.38639  -0.38493  -0.38449  -0.38237
 Alpha  occ. eigenvalues --   -0.38146  -0.38001  -0.37883  -0.37640  -0.37575
 Alpha  occ. eigenvalues --   -0.37462  -0.37327  -0.37272  -0.37247  -0.37219
 Alpha  occ. eigenvalues --   -0.36910  -0.36846  -0.36571  -0.36411  -0.36339
 Alpha  occ. eigenvalues --   -0.36218  -0.36017  -0.35937  -0.35732  -0.35544
 Alpha  occ. eigenvalues --   -0.35100  -0.35060  -0.34823  -0.34055  -0.33767
 Alpha  occ. eigenvalues --   -0.33483  -0.33325  -0.33205  -0.32802  -0.32774
 Alpha  occ. eigenvalues --   -0.32687  -0.32395  -0.32203  -0.31730  -0.31459
 Alpha  occ. eigenvalues --   -0.31197  -0.30605  -0.30305  -0.29861  -0.29549
 Alpha  occ. eigenvalues --   -0.28967  -0.28859  -0.28482  -0.27427  -0.26604
 Alpha  occ. eigenvalues --   -0.26336  -0.26166  -0.25731  -0.25676  -0.25492
 Alpha  occ. eigenvalues --   -0.25185  -0.25106  -0.24385  -0.21383  -0.20502
 Alpha  occ. eigenvalues --   -0.19281  -0.18886
 Alpha virt. eigenvalues --   -0.11749  -0.11280  -0.05373  -0.04871  -0.03987
 Alpha virt. eigenvalues --   -0.03626  -0.02119  -0.01922  -0.00959  -0.00473
 Alpha virt. eigenvalues --   -0.00171   0.00699   0.00716   0.01092   0.01391

 Mulliken charges:
               1
     1  Mg  11.998732
     2  C    6.022830
     3  C    6.006952
     4  C    5.966704
     5  C    5.980989
     6  N    7.026704
     7  C    5.973737
     8  C    6.009385
     9  C    5.984860
    10  C    6.023336
    11  C    5.995856
    12  C    6.004182
    13  C    5.999668
    14  H    0.995155
    15  N    6.993898
    16  C    6.033043
    17  C    6.020398
    18  C    6.007502
    19  C    6.040046
    20  C    5.997493
    21  C    6.011685
    22  O    8.018622
    23  C    6.002350
    24  N    6.982617
    25  C    6.036475
    26  C    5.990185
    27  C    6.005943
    28  C    5.981294
    29  C    5.997020
    30  C    6.005127
    31  C    6.001786
    32  N    6.999676
    33  C    5.977675
    34  C    5.972224
    35  C    5.996758
    36  C    5.966975
    37  C    5.999244
    38  C    5.980992
    39  O    7.975320
    40  C    5.997660
    41  C    5.996509
    42  O    7.993938
    43  O    8.001661
    44  C    6.002725
    45  H    1.014329
    46  H    1.001493
    47  H    0.985462
    48  H    1.002015
    49  H    1.004854
    50  H    1.013941
    51  H    0.995587
    52  H    1.009962
    53  H    0.990359
    54  H    1.003589
    55  H    1.004552
    56  H    1.001571
    57  H    1.015760
    58  H    1.016608
    59  H    1.013528
    60  H    1.009367
    61  H    1.009408
    62  H    1.009716
    63  H    0.999958
    64  H    0.998222
    65  H    0.991820
    66  H    1.004275
    67  H    1.005548
    68  H    1.004532
    69  H    0.989962
    70  H    0.993286
    71  H    0.995090
    72  H    1.001837
    73  H    0.986674
    74  H    0.981499
    75  H    0.985623
    76  H    0.995301
    77  H    0.993673
    78  H    0.994763
    79  H    0.999908
    80  Mg  12.000024
    81  C    5.999870
    82  C    6.000111
    83  C    6.000084
    84  C    5.999874
    85  N    6.999897
    86  C    6.000303
    87  C    5.999896
    88  C    6.000016
    89  C    5.999808
    90  C    6.000031
    91  C    5.999989
    92  C    5.999997
    93  H    0.999990
    94  N    7.000039
    95  C    5.999694
    96  C    5.999744
    97  C    5.999857
    98  C    5.999796
    99  C    6.000051
   100  C    5.999889
   101  O    7.999773
   102  C    6.000022
   103  N    7.000078
   104  C    5.999723
   105  C    6.000066
   106  C    5.999880
   107  C    6.000312
   108  C    5.999987
   109  C    5.999959
   110  C    5.999934
   111  N    6.999967
   112  C    6.000264
   113  C    6.000399
   114  C    5.999991
   115  C    6.000173
   116  C    5.999912
   117  C    6.000077
   118  O    8.000268
   119  C    6.000041
   120  C    6.000014
   121  O    8.000040
   122  O    8.000031
   123  C    5.999992
   124  H    0.999862
   125  H    0.999962
   126  H    1.000145
   127  H    0.999995
   128  H    1.000013
   129  H    0.999970
   130  H    0.999875
   131  H    0.999999
   132  H    1.000074
   133  H    0.999953
   134  H    1.000037
   135  H    1.000003
   136  H    0.999849
   137  H    0.999808
   138  H    0.999831
   139  H    0.999880
   140  H    0.999882
   141  H    0.999989
   142  H    1.000028
   143  H    1.000035
   144  H    0.999933
   145  H    1.000015
   146  H    1.000012
   147  H    1.000112
   148  H    0.999995
   149  H    1.000098
   150  H    0.999973
   151  H    1.000050
   152  H    1.000201
   153  H    1.000190
   154  H    1.000222
   155  H    1.000071
   156  H    1.000010
   157  H    1.000033
   158  H    1.000028
 Sum of Mulliken charges = 624.00000

 Dipole moment (field-independent basis, Debye):
    X=              5.6313    Y=              8.0002    Z=              0.6502  Tot=              9.8049
 Quadrupole moment (field-independent basis, Debye-Ang):
   XX=           -272.0605   YY=              8.9746   ZZ=             -0.1104
   XY=           -193.5074   XZ=            -15.0410   YZ=              1.7674

 Normal termination of Gaussian 16 at Thu Oct 14 23:19:10 2021.
