 Gaussian 16, Revision A.03,
 Gaussian 16:  ES64L-G16RevA.03 25-Dec-2016

 --------------------------------------------------------
 #p PBE1PBE/Def2SVP td=(nstates=5) density=(transition=1)
 --------------------------------------------------------

 --------------------------------
 TDDFT excited states in gaussian
 --------------------------------
 Symbolic Z-matrix:
 Charge =  0 Multiplicity = 1

                         Standard orientation:
 ---------------------------------------------------------------------
 Center     Atomic      Atomic             Coordinates (Angstroms)
 Number     Number       Type             X           Y           Z
 ---------------------------------------------------------------------
      1         12           0       13.768561   -0.868824   -0.247489
      2          6           0       14.235916    2.448196    0.391737
      3          6           0       10.433846   -0.134605   -1.171890
      4          6           0       13.197084   -4.141841   -0.664630
      5          6           0       17.043281   -1.451840    0.609878
      6          7           0       12.390913    0.867326   -0.081812
      7          6           0       12.872510    2.169248    0.105601
      8          6           0       11.746387    3.231972   -0.037296
      9          6           0       10.584483    2.296936   -0.466111
     10          6           0       11.138279    0.884744   -0.524030
     11          6           0        9.186413    2.308595    0.287070
     12          6           0       12.000830    4.410817   -1.076592
     13          6           0       10.794574    5.384475   -1.156704
     14          1           0       11.072033    6.744003   -0.513630
     15          7           0       12.018694   -1.995203   -0.898962
     16          6           0       10.868851   -1.460258   -1.438799
     17          6           0       10.013341   -2.598698   -1.752583
     18          6           0       10.830773   -3.763517   -1.592129
     19          6           0       12.088676   -3.348801   -1.055517
     20          6           0        8.625164   -2.399899   -2.225933
     21          6           0       10.299067   -5.221059   -1.823308
     22          8           0       10.925127   -6.246741   -1.487220
     23          6           0        8.929823   -5.437217   -2.413170
     24          7           0       14.875689   -2.467088   -0.039137
     25          6           0       14.429435   -3.800246   -0.261238
     26          6           0       15.431677   -4.801337    0.267172
     27          6           0       16.705839   -3.962580    0.188513
     28          6           0       16.214899   -2.521925    0.202854
     29          6           0       15.107116   -5.282758    1.721182
     30          6           0       17.488730   -4.185465   -1.124761
     31          6           0       18.461916   -5.331604   -1.193745
     32          7           0       15.399338    0.195987    0.428725
     33          6           0       16.695256   -0.115747    0.591559
     34          6           0       17.415436    1.050135    1.010969
     35          6           0       16.516952    2.093044    0.934213
     36          6           0       15.296576    1.530461    0.529087
     37          6           0       18.870021    1.022887    1.327796
     38          6           0       16.394352    3.477348    1.108042
     39          8           0       17.206703    4.330090    1.410194
     40          6           0       14.864363    3.784063    0.752231
     41          6           0       14.248097    4.455617    1.928011
     42          8           0       14.028777    3.972454    3.012092
     43          8           0       13.803821    5.675348    1.610591
     44          6           0       13.106062    6.443911    2.712273
     45          1           0        9.477299    0.188735   -1.587384
     46          1           0       13.027675   -5.211583   -0.802765
     47          1           0       18.119440   -1.536129    0.772736
     48          1           0       11.541694    3.651419    0.947776
     49          1           0       10.318794    2.502009   -1.503585
     50          1           0        8.301798    2.165937   -0.334149
     51          1           0        9.144326    3.154322    0.973650
     52          1           0        9.203334    1.397891    0.885614
     53          1           0       12.234875    3.883489   -2.000574
     54          1           0       12.895187    4.950727   -0.765857
     55          1           0        9.895133    4.893247   -0.785479
     56          1           0       10.635515    5.590474   -2.214770
     57          1           0        7.951955   -2.753142   -1.444604
     58          1           0        8.576549   -2.872962   -3.206735
     59          1           0        8.431530   -1.345875   -2.425552
     60          1           0        8.752796   -6.502962   -2.557938
     61          1           0        9.013646   -5.027335   -3.420621
     62          1           0        8.088522   -4.978180   -1.894603
     63          1           0       15.473862   -5.688334   -0.365540
     64          1           0       17.378915   -4.117142    1.031579
     65          1           0       15.337851   -4.508375    2.451718
     66          1           0       15.655355   -6.197525    1.947986
     67          1           0       14.041638   -5.509970    1.716863
     68          1           0       18.017210   -3.293928   -1.459967
     69          1           0       16.786224   -4.299382   -1.950476
     70          1           0       18.124874   -5.976219   -2.005016
     71          1           0       18.245720   -5.890257   -0.282972
     72          1           0       19.509505   -5.034958   -1.247804
     73          1           0       19.451568    1.346968    0.465611
     74          1           0       19.283861    0.126199    1.790108
     75          1           0       19.008604    1.801246    2.078365
     76          1           0       14.841945    4.450176   -0.110566
     77          1           0       12.344460    5.783039    3.126755
     78          1           0       12.584304    7.331513    2.353504
     79          1           0       13.854893    6.702922    3.461106
     80         12           0      -14.237614    0.093556    0.553237
     81          6           0      -11.724781    1.678564   -1.335377
     82          6           0      -15.549894   -1.010869   -2.471986
     83          6           0      -16.399079   -1.808348    2.227271
     84          6           0      -12.248231    0.533255    3.362581
     85          7           0      -13.543427    0.213790   -1.642896
     86          6           0      -12.572724    1.006051   -2.224232
     87          6           0      -12.716526    1.219700   -3.716448
     88          6           0      -13.960758    0.373445   -4.076963
     89          6           0      -14.395746   -0.201201   -2.689052
     90          6           0      -15.115722    1.183578   -4.794112
     91          6           0      -11.468268    0.808101   -4.617880
     92          6           0      -10.591903   -0.362902   -4.144233
     93          1           0      -10.742801   -1.736439   -4.862706
     94          7           0      -15.733477   -1.189401   -0.033373
     95          6           0      -16.157808   -1.463758   -1.302389
     96          6           0      -17.351567   -2.319846   -1.257315
     97          6           0      -17.622235   -2.564865    0.123777
     98          6           0      -16.534874   -1.834693    0.844927
     99          6           0      -18.103224   -2.786326   -2.498353
    100          6           0      -18.793177   -3.542041    0.513832
    101          8           0      -19.409815   -4.086897   -0.391121
    102          6           0      -19.087263   -3.869249    2.038133
    103          7           0      -14.232607   -0.630683    2.452140
    104          6           0      -15.337688   -1.285442    2.991148
    105          6           0      -15.159047   -1.486443    4.600532
    106          6           0      -13.695489   -0.817819    4.817709
    107          6           0      -13.390035   -0.272046    3.460003
    108          6           0      -16.295267   -0.806809    5.420078
    109          6           0      -12.562149   -1.812848    5.317406
    110          6           0      -11.728589   -1.432472    6.550896
    111          7           0      -12.406754    1.041187    1.010457
    112          6           0      -11.692308    1.146974    2.176231
    113          6           0      -10.438585    1.877200    1.893572
    114          6           0      -10.499273    2.199356    0.511198
    115          6           0      -11.705207    1.612435    0.035921
    116          6           0       -9.323861    2.196095    2.850926
    117          6           0       -9.714558    2.818363   -0.573648
    118          8           0       -8.666114    3.479827   -0.583282
    119          6           0      -10.614806    2.659572   -1.789847
    120          6           0      -11.071348    3.904820   -2.308623
    121          8           0      -12.020200    4.540078   -1.780008
    122          8           0      -10.358147    4.275160   -3.466009
    123          6           0      -10.811575    5.444243   -4.212614
    124          1           0      -16.104018   -1.243578   -3.383358
    125          1           0      -17.179872   -2.290169    2.818731
    126          1           0      -11.712432    0.680714    4.302123
    127          1           0      -12.886321    2.293565   -3.784644
    128          1           0      -13.577057   -0.492567   -4.615100
    129          1           0      -15.197031    0.857599   -5.831006
    130          1           0      -14.826803    2.233113   -4.732287
    131          1           0      -16.079761    1.012448   -4.313956
    132          1           0      -10.861702    1.712744   -4.559507
    133          1           0      -11.802160    0.670368   -5.646555
    134          1           0      -10.734364   -0.542102   -3.078026
    135          1           0       -9.550132   -0.051344   -4.207500
    136          1           0      -17.918180   -3.822352   -2.782183
    137          1           0      -18.022869   -2.055486   -3.303134
    138          1           0      -19.180113   -2.717156   -2.345641
    139          1           0      -19.111034   -2.915251    2.565389
    140          1           0      -18.278619   -4.506572    2.394935
    141          1           0      -19.930227   -4.542832    2.192393
    142          1           0      -15.287754   -2.553068    4.782081
    143          1           0      -13.830445    0.022551    5.499016
    144          1           0      -15.940190    0.181708    5.710633
    145          1           0      -16.636345   -1.416257    6.257020
    146          1           0      -17.230223   -0.688961    4.872540
    147          1           0      -11.919697   -2.006761    4.457880
    148          1           0      -13.149769   -2.697032    5.564400
    149          1           0      -10.788286   -1.982651    6.595519
    150          1           0      -12.389307   -1.714858    7.370228
    151          1           0      -11.565264   -0.360295    6.439979
    152          1           0       -9.395202    1.414728    3.607066
    153          1           0       -9.660150    3.134871    3.291013
    154          1           0       -8.346570    2.352693    2.393380
    155          1           0       -9.944691    2.155933   -2.486200
    156          1           0      -10.745709    6.412647   -3.716606
    157          1           0      -11.845773    5.305106   -4.528903
    158          1           0      -10.297940    5.411174   -5.173579
 ---------------------------------------------------------------------

 SCF Done:  E(RPBE1PBE) =  -4067.39092243     A.U. after   16 cycles

 Excitation energies and oscillator strengths:

 Excited State   1:      Singlet-A      1.7950 eV  690.73 nm  f=0.0000  <S**2>=0.000
     312 -> 313        0.70710
 This state for optimization and/or second-order correction.
 Total Energy, E(TD-HF/TD-DFT) =  -4067.32495848
 Copying the excited state density for this state as the 1-particle RhoCI density.

 Excited State   2:      Singlet-A      1.8105 eV  684.82 nm  f=0.3952  <S**2>=0.000
     309 -> 316       -0.15508
     311 -> 313        0.69932
     311 <- 313       -0.12508

 Excited State   3:      Singlet-A      1.8697 eV  663.14 nm  f=0.3510  <S**2>=0.000
     310 -> 315        0.17520
     312 -> 314        0.69191
     312 <- 314       -0.10389

 Excited State   4:      Singlet-A      2.0265 eV  611.80 nm  f=0.0000  <S**2>=0.000
     311 -> 314        0.70709

 Excited State   5:      Singlet-A      2.2535 eV  550.19 nm  f=0.1049  <S**2>=0.000
     309 -> 313        0.64878
     311 -> 316        0.26388

 The electronic state is 1-A.
 Alpha  occ. eigenvalues --  -46.92411 -46.90860 -19.26488 -19.25447 -19.20504
 Alpha  occ. eigenvalues --  -19.19847 -19.19541 -19.19436 -19.18842 -19.18840
 Alpha  occ. eigenvalues --  -14.42121 -14.42100 -14.41782 -14.41327 -14.39587
 Alpha  occ. eigenvalues --  -14.39080 -14.38553 -14.38418 -10.37045 -10.35407
 Alpha  occ. eigenvalues --  -10.33694 -10.32608 -10.32437 -10.31912 -10.29716
 Alpha  occ. eigenvalues --  -10.29616 -10.29428 -10.29390 -10.29142 -10.28988
 Alpha  occ. eigenvalues --  -10.28516 -10.28501 -10.28498 -10.28325 -10.28027
 Alpha  occ. eigenvalues --  -10.27803 -10.27508 -10.27293 -10.27205 -10.27110
 Alpha  occ. eigenvalues --  -10.26912 -10.26570 -10.26522 -10.26484 -10.26337
 Alpha  occ. eigenvalues --  -10.26308 -10.26267 -10.26186 -10.26161 -10.26148
 Alpha  occ. eigenvalues --  -10.25991 -10.25969 -10.25568 -10.25563 -10.25560
 Alpha  occ. eigenvalues --  -10.25544 -10.25541 -10.25447 -10.25231 -10.25185
 Alpha  occ. eigenvalues --  -10.25092 -10.25028 -10.24908 -10.24905 -10.24717
 Alpha  occ. eigenvalues --  -10.24540 -10.24503 -10.24487 -10.24462 -10.24319
 Alpha  occ. eigenvalues --  -10.24316 -10.24221 -10.24111 -10.23994 -10.23973
 Alpha  occ. eigenvalues --  -10.23583 -10.23482 -10.23460 -10.23243 -10.23214
 Alpha  occ. eigenvalues --  -10.23166 -10.23150 -10.23090 -10.22895 -10.22515
 Alpha  occ. eigenvalues --  -10.22492  -3.14612  -3.13215  -1.87409  -1.87003
 Alpha  occ. eigenvalues --   -1.86839  -1.86060  -1.85607  -1.85436  -1.11573
 Alpha  occ. eigenvalues --   -1.09753  -1.05165  -1.05029  -1.03891  -1.03054
 Alpha  occ. eigenvalues --   -1.01850  -1.01848  -1.00012  -0.98922  -0.98477
 Alpha  occ. eigenvalues --   -0.98240  -0.97694  -0.97281  -0.96680  -0.96552
 Alpha  occ. eigenvalues --   -0.87591  -0.87570  -0.83543  -0.83352  -0.83161
 Alpha  occ. eigenvalues --   -0.83083  -0.82881  -0.82396  -0.82151  -0.81450
 Alpha  occ. eigenvalues --   -0.81192  -0.80851  -0.80514  -0.79870  -0.78893
 Alpha  occ. eigenvalues --   -0.78596  -0.78231  -0.78227  -0.77122  -0.76761
 Alpha  occ. eigenvalues --   -0.75925  -0.75774  -0.75458  -0.75291  -0.74865
 Alpha  occ. eigenvalues --   -0.74486  -0.72699  -0.72586  -0.71822  -0.71570
 Alpha  occ. eigenvalues --   -0.71469  -0.71072  -0.70901  -0.70426  -0.69545
 Alpha  occ. eigenvalues --   -0.69334  -0.67597  -0.66876  -0.66252  -0.66215
 Alpha  occ. eigenvalues --   -0.63826  -0.63715  -0.63405  -0.63268  -0.62895
 Alpha  occ. eigenvalues --   -0.62634  -0.61296  -0.60517  -0.60258  -0.60193
 Alpha  occ. eigenvalues --   -0.59743  -0.59364  -0.59177  -0.59151  -0.58803
 Alpha  occ. eigenvalues --   -0.58650  -0.57103  -0.56581  -0.54849  -0.54771
 Alpha  occ. eigenvalues --   -0.54539  -0.54206  -0.53678  -0.53669  -0.53452
 Alpha  occ. eigenvalues --   -0.53290  -0.52854  -0.52410  -0.52365  -0.51836
 Alpha  occ. eigenvalues --   -0.51102  -0.50727  -0.50411  -0.50140  -0.49618
 Alpha  occ. eigenvalues --   -0.49566  -0.49188  -0.49051  -0.48861  -0.48776
 Alpha  occ. eigenvalues --   -0.48459  -0.47985  -0.47943  -0.47668  -0.47351
 Alpha  occ. eigenvalues --   -0.47236  -0.47235  -0.47014  -0.46769  -0.46733
 Alpha  occ. eigenvalues --   -0.46259  -0.46240  -0.46236  -0.45869  -0.45859
 Alpha  occ. eigenvalues --   -0.45544  -0.45235  -0.45002  -0.44963  -0.44849
 Alpha  occ. eigenvalues --   -0.44616  -0.44540  -0.44403  -0.44228  -0.44015
 Alpha  occ. eigenvalues --   -0.43996  -0.43904  -0.43771  -0.43602  -0.43533
 Alpha  occ. eigenvalues --   -0.43355  -0.43290  -0.42995  -0.42926  -0.42903
 Alpha  occ. eigenvalues --   -0.42694  -0.42328  -0.42162  -0.42100  -0.41847
 Alpha  occ. eigenvalues --   -0.41797  -0.41566  -0.41420  -0.41283  -0.41196
 Alpha  occ. eigenvalues --   -0.41078  -0.41053  -0.41001  -0.40805  -0.40626
 Alpha  occ. eigenvalues --   -0.40509  -0.40144  -0.40131  -0.39905  -0.39819
 Alpha  occ. eigenvalues --   -0.39598  -0.39497  -0.39388  -0.39364  -0.38992
 Alpha  occ. eigenvalues --   -0.38953  -0.38766  -0.38531  -0.38519  -0.38300
 Alpha  occ. eigenvalues --   -0.38175  -0.38108  -0.37884  -0.37832  -0.37662
 Alpha  occ. eigenvalues --   -0.37515  -0.37324  -0.37134  -0.36969  -0.36835
 Alpha  occ. eigenvalues --   -0.36671  -0.36570  -0.36494  -0.36311  -0.36030
 Alpha  occ. eigenvalues --   -0.35944  -0.35741  -0.35592  -0.35540  -0.35300
 Alpha  occ. eigenvalues --   -0.35284  -0.34882  -0.34846  -0.34714  -0.34692
 Alpha  occ. eigenvalues --   -0.33929  -0.33325  -0.32921  -0.32675  -0.32586
 Alpha  occ. eigenvalues --   -0.32431  -0.32151  -0.32127  -0.31936  -0.31679
 Alpha  occ. eigenvalues --   -0.31636  -0.31452  -0.30049  -0.29451  -0.29146
 Alpha  occ. eigenvalues --   -0.29068  -0.28924  -0.28427  -0.27021  -0.26962
 Alpha  occ. eigenvalues --   -0.26264  -0.26159  -0.26055  -0.25947  -0.25675
 Alpha  occ. eigenvalues --   -0.25394  -0.25370  -0.24768  -0.21423  -0.21102
 Alpha  occ. eigenvalues --   -0.18742  -0.18550
 Alpha virt. eigenvalues --   -0.11472  -0.10809  -0.05339  -0.05065  -0.04045
 Alpha virt. eigenvalues --   -0.03794  -0.02456  -0.02025  -0.01242  -0.01096
 Alpha virt. eigenvalues --    0.00240   0.00751   0.01028   0.01047   0.01413

 Mulliken charges:
               1
     1  Mg  12.000000
     2  C    6.000000
     3  C    6.000000
     4  C    6.000000
     5  C    6.000000
     6  N    7.000000
     7  C    6.000000
     8  C    6.000000
     9  C    6.000000
    10  C    6.000000
    11  C    6.000000
    12  C    6.000000
    13  C    6.000000
    14  H    1.000000
    15  N    7.000000
    16  C    6.000000
    17  C    6.000000
    18  C    6.000000
    19  C    6.000000
    20  C    6.000000
    21  C    6.000000
    22  O    8.000000
    23  C    6.000000
    24  N    7.000000
    25  C    6.000000
    26  C    6.000000
    27  C    6.000000
    28  C    6.000000
    29  C    6.000000
    30  C    6.000000
    31  C    6.000000
    32  N    7.000000
    33  C    6.000000
    34  C    6.000000
    35  C    6.000000
    36  C    6.000000
    37  C    6.000000
    38  C    6.000000
    39  O    8.000000
    40  C    6.000000
    41  C    6.000000
    42  O    8.000000
    43  O    8.000000
    44  C    6.000000
    45  H    1.000000
    46  H    1.000000
    47  H    1.000000
    48  H    1.000000
    49  H    1.000000
    50  H    1.000000
    51  H    1.000000
    52  H    1.000000
    53  H    1.000000
    54  H    1.000000
    55  H    1.000000
    56  H    1.000000
    57  H    1.000000
    58  H    1.000000
    59  H    1.000000
    60  H    1.000000
    61  H    1.000000
    62  H    1.000000
    63  H    1.000000
    64  H    1.000000
    65  H    1.000000
    66  H    1.000000
    67  H    1.000000
    68  H    1.000000
    69  H    1.000000
    70  H    1.000000
    71  H    1.000000
    72  H    1.000000
    73  H    1.000000
    74  H    1.000000
    75  H    1.000000
    76  H    1.000000
    77  H    1.000000
    78  H    1.000000
    79  H    1.000000
    80  Mg  12.000000
    81  C    6.000000
    82  C    6.000000
    83  C    6.000000
    84  C    6.000000
    85  N    7.000000
    86  C    6.000000
    87  C    6.000000
    88  C    6.000000
    89  C    6.000000
    90  C    6.000000
    91  C    6.000000
    92  C    6.000000
    93  H    1.000000
    94  N    7.000000
    95  C    6.000000
    96  C    6.000000
    97  C    6.000000
    98  C    6.000000
    99  C    6.000000
   100  C    6.000000
   101  O    8.000000
   102  C    6.000000
   103  N    7.000000
   104  C    6.000000
   105  C    6.000000
   106  C    6.000000
   107  C    6.000000
   108  C    6.000000
   109  C    6.000000
   110  C    6.000000
   111  N    7.000000
   112  C    6.000000
   113  C    6.000000
   114  C    6.000000
   115  C    6.000000
   116  C    6.000000
   117  C    6.000000
   118  O    8.000000
   119  C    6.000000
   120  C    6.000000
   121  O    8.000000
   122  O    8.000000
   123  C    6.000000
   124  H    1.000000
   125  H    1.000000
   126  H    1.000000
   127  H    1.000000
   128  H    1.000000
   129  H    1.000000
   130  H    1.000000
   131  H    1.000000
   132  H    1.000000
   133  H    1.000000
   134  H    1.000000
   135  H    1.000000
   136  H    1.000000
   137  H    1.000000
   138  H    1.000000
   139  H    1.000000
   140  H    1.000000
   141  H    1.000000
   142  H    1.000000
   143  H    1.000000
   144  H    1.000000
   145  H    1.000000
   146  H    1.000000
   147  H    1.000000
   148  H    1.000000
   149  H    1.000000
   150  H    1.000000
   151  H    1.000000
   152  H    1.000000
   153  H    1.000000
   154  H    1.000000
   155  H    1.000000
   156  H    1.000000
   157  H    1.000000
   158  H    1.000000
 Sum of Mulliken charges = 624.00000

 Dipole moment (field-independent basis, Debye):
    X=              0.0000    Y=              0.0000    Z=              0.0000  Tot=              0.0000
 Quadrupole moment (field-independent basis, Debye-Ang):
   XX=              0.0000   YY=             -0.0000   ZZ=             -0.0000
   XY=              0.0000   XZ=              0.0000   YZ=             -0.0000

 Normal termination of Gaussian 16 at Fri Oct 15 05:39:37 2021.
