 Gaussian 16, Revision A.03,
 Gaussian 16:  ES64L-G16RevA.03 25-Dec-2016

 --------------------------------------------------------
 #p PBE1PBE/Def2SVP td=(nstates=5) density=(transition=1)
 --------------------------------------------------------

 --------------------------------
 TDDFT excited states in gaussian
 --------------------------------
 Symbolic Z-matrix:
 Charge =  0 Multiplicity = 1

                         Standard orientation:
 ---------------------------------------------------------------------
 Center     Atomic      Atomic             Coordinates (Angstroms)
 Number     Number       Type             X           Y           Z
 ---------------------------------------------------------------------
      1         12           0      -28.876222    0.490883   -0.682347
      2          6           0      -28.269374   -2.116765    1.724748
      3          6           0      -27.841791    2.704611    1.701601
      4          6           0      -29.731185    2.929249   -2.821243
      5          6           0      -30.308896   -1.838930   -2.699913
      6          7           0      -28.062204    0.268945    1.541562
      7          6           0      -27.892043   -0.906177    2.214292
      8          6           0      -27.174822   -0.589860    3.471621
      9          6           0      -27.150829    0.961751    3.550959
     10          6           0      -27.764382    1.425930    2.201676
     11          6           0      -27.991057    1.496245    4.754201
     12          6           0      -25.809086   -1.211104    3.625160
     13          6           0      -25.106807   -1.135573    4.971281
     14          1           0      -24.558102   -2.391565    5.505451
     15          7           0      -28.694425    2.498097   -0.616227
     16          6           0      -28.325075    3.262476    0.524865
     17          6           0      -28.253556    4.667596    0.081990
     18          6           0      -28.876099    4.707407   -1.162902
     19          6           0      -29.191717    3.324922   -1.565739
     20          6           0      -27.757034    5.758256    1.007962
     21          6           0      -29.148746    5.911919   -2.089583
     22          8           0      -29.908502    5.876214   -3.075593
     23          6           0      -28.430802    7.162769   -1.784169
     24          7           0      -29.950157    0.574357   -2.506905
     25          6           0      -30.183108    1.647886   -3.233801
     26          6           0      -30.983631    1.353158   -4.532017
     27          6           0      -30.917445   -0.175340   -4.563884
     28          6           0      -30.324024   -0.501200   -3.212445
     29          6           0      -32.448827    1.898481   -4.441489
     30          6           0      -30.139003   -0.802555   -5.698349
     31          6           0      -30.772135   -2.032607   -6.372684
     32          7           0      -29.130857   -1.547711   -0.560018
     33          6           0      -29.736092   -2.360494   -1.493474
     34          6           0      -29.681389   -3.795619   -1.081545
     35          6           0      -29.128484   -3.651767    0.174990
     36          6           0      -28.859403   -2.312504    0.482014
     37          6           0      -29.992805   -5.012258   -1.892598
     38          6           0      -28.717994   -4.434996    1.331072
     39          8           0      -28.744292   -5.654184    1.455948
     40          6           0      -28.135426   -3.482615    2.400388
     41          6           0      -28.803006   -3.798736    3.637291
     42          8           0      -29.970549   -3.479356    3.967387
     43          8           0      -27.928732   -4.367845    4.512634
     44          6           0      -28.324827   -4.509376    5.896751
     45          1           0      -27.433580    3.416817    2.421370
     46          1           0      -30.157394    3.720481   -3.441278
     47          1           0      -30.986001   -2.452800   -3.297213
     48          1           0      -27.845329   -0.983792    4.234264
     49          1           0      -26.141349    1.356740    3.666445
     50          1           0      -27.609225    2.209987    5.484869
     51          1           0      -28.248966    0.597868    5.314783
     52          1           0      -28.986131    1.860522    4.497389
     53          1           0      -25.079969   -0.725733    2.976170
     54          1           0      -25.755129   -2.196024    3.162174
     55          1           0      -25.786048   -0.769006    5.739472
     56          1           0      -24.179359   -0.597209    4.777809
     57          1           0      -28.386342    6.647715    1.030362
     58          1           0      -26.740392    6.089884    0.797828
     59          1           0      -27.742240    5.491254    2.064938
     60          1           0      -27.369966    6.933988   -1.681267
     61          1           0      -28.858060    7.443940   -0.822253
     62          1           0      -28.531570    7.795921   -2.664913
     63          1           0      -30.419417    1.812176   -5.344565
     64          1           0      -31.874261   -0.696614   -4.571813
     65          1           0      -33.176828    1.088591   -4.405165
     66          1           0      -32.710120    2.479968   -5.325643
     67          1           0      -32.485149    2.469807   -3.513805
     68          1           0      -29.126675   -1.068831   -5.396060
     69          1           0      -29.872532    0.043846   -6.330527
     70          1           0      -30.406538   -2.048230   -7.398963
     71          1           0      -31.855217   -2.075733   -6.253828
     72          1           0      -30.359789   -2.837095   -5.764057
     73          1           0      -29.116133   -5.514900   -2.301554
     74          1           0      -30.756111   -4.694009   -2.602084
     75          1           0      -30.608156   -5.688875   -1.298311
     76          1           0      -27.117953   -3.842094    2.553834
     77          1           0      -29.273590   -4.035087    6.149157
     78          1           0      -27.519583   -4.196328    6.560782
     79          1           0      -28.458871   -5.554139    6.178330
     80         12           0       29.419070   -0.369411   -0.007399
     81          6           0       26.697937    1.417176    1.028653
     82          6           0       27.175594   -2.994676   -0.866133
     83          6           0       32.019399   -2.005456   -1.402950
     84          6           0       31.309593    2.556800    0.011130
     85          7           0       27.048612   -0.585103   -0.262814
     86          6           0       26.210443    0.204855    0.465305
     87          6           0       24.798457   -0.295936    0.337036
     88          6           0       24.948405   -1.737928   -0.316965
     89          6           0       26.494206   -1.846371   -0.509136
     90          6           0       24.081033   -2.808961    0.236277
     91          6           0       23.680384    0.634345   -0.333689
     92          6           0       24.104221    1.585857   -1.413021
     93          1           0       23.273705    1.599205   -2.688700
     94          7           0       29.601056   -2.319952   -0.770109
     95          6           0       28.616932   -3.227094   -1.013730
     96          6           0       29.127983   -4.436099   -1.588844
     97          6           0       30.598239   -4.202936   -1.646180
     98          6           0       30.800800   -2.790596   -1.255659
     99          6           0       28.402678   -5.633972   -1.980009
    100          6           0       31.704521   -5.176063   -2.027648
    101          8           0       31.443278   -6.234072   -2.479391
    102          6           0       33.183548   -4.908178   -1.988452
    103          7           0       31.301935    0.222586   -0.716102
    104          6           0       32.225653   -0.684217   -1.069377
    105          6           0       33.574508    0.044925   -1.585064
    106          6           0       33.428409    1.416454   -0.762252
    107          6           0       31.935828    1.409385   -0.532615
    108          6           0       34.883513   -0.698773   -1.305586
    109          6           0       34.046066    2.621055   -1.495105
    110          6           0       34.974994    3.594416   -0.759920
    111          7           0       29.062719    1.625940    0.324104
    112          6           0       29.912831    2.724631    0.345642
    113          6           0       29.267527    3.870840    0.856891
    114          6           0       28.000293    3.434131    1.206123
    115          6           0       27.904912    2.038911    0.863228
    116          6           0       29.846503    5.236453    1.062736
    117          6           0       26.756189    3.715971    1.791489
    118          8           0       26.374088    4.794012    2.242159
    119          6           0       25.801016    2.511137    1.557224
    120          6           0       25.230164    2.249513    2.943221
    121          8           0       24.009249    2.164533    3.194056
    122          8           0       26.287962    1.991494    3.782908
    123          6           0       26.094065    1.455461    5.152416
    124          1           0       26.426836   -3.705902   -1.220885
    125          1           0       32.785210   -2.465026   -2.031077
    126          1           0       31.929969    3.452381    0.080446
    127          1           0       24.371803   -0.378760    1.337310
    128          1           0       24.621660   -1.630259   -1.350847
    129          1           0       24.620035   -3.727606    0.467641
    130          1           0       23.193459   -2.977416   -0.373608
    131          1           0       23.701662   -2.496447    1.209212
    132          1           0       23.169592    1.298038    0.364050
    133          1           0       22.966227    0.009690   -0.871149
    134          1           0       25.174702    1.599926   -1.615171
    135          1           0       23.866920    2.589003   -1.057248
    136          1           0       27.535496   -5.745151   -1.329808
    137          1           0       28.995086   -6.547165   -1.937440
    138          1           0       28.072431   -5.476674   -3.007431
    139          1           0       33.135062   -4.232774   -1.133965
    140          1           0       33.545276   -4.390477   -2.876295
    141          1           0       33.840176   -5.761152   -1.816270
    142          1           0       33.405038    0.262979   -2.639936
    143          1           0       33.833967    1.465319    0.248008
    144          1           0       35.378140   -0.170736   -0.489885
    145          1           0       35.427975   -0.870186   -2.233719
    146          1           0       34.730047   -1.714599   -0.942597
    147          1           0       33.212977    3.200021   -1.894572
    148          1           0       34.530682    2.247859   -2.397434
    149          1           0       35.929835    3.852093   -1.218407
    150          1           0       35.129068    3.327463    0.286414
    151          1           0       34.328693    4.462109   -0.631526
    152          1           0       29.459039    5.770049    1.930969
    153          1           0       29.648201    5.831921    0.171258
    154          1           0       30.922570    5.226002    1.241009
    155          1           0       25.075563    2.915349    0.852278
    156          1           0       26.849986    0.719228    5.425069
    157          1           0       25.109424    0.989750    5.196665
    158          1           0       26.088934    2.120909    6.014790
 ---------------------------------------------------------------------

 SCF Done:  E(RPBE1PBE) =  -4067.33678300     A.U. after   16 cycles

 Excitation energies and oscillator strengths:

 Excited State   1:      Singlet-A      1.7174 eV  721.93 nm  f=0.0000  <S**2>=0.000
     312 -> 313        0.70711
 This state for optimization and/or second-order correction.
 Total Energy, E(TD-HF/TD-DFT) =  -4067.27366977
 Copying the excited state density for this state as the 1-particle RhoCI density.

 Excited State   2:      Singlet-A      1.7944 eV  690.96 nm  f=0.3688  <S**2>=0.000
     309 -> 315        0.16555
     311 -> 313        0.69591
     311 <- 313       -0.11768

 Excited State   3:      Singlet-A      2.1559 eV  575.10 nm  f=0.1301  <S**2>=0.000
     308 -> 313       -0.10082
     309 -> 313        0.65386
     311 -> 315       -0.23167

 Excited State   4:      Singlet-A      2.2989 eV  539.33 nm  f=0.0000  <S**2>=0.000
     311 -> 314        0.70711

 Excited State   5:      Singlet-A      2.3712 eV  522.88 nm  f=0.0000  <S**2>=0.000
     310 -> 313        0.70711

 The electronic state is 1-A.
 Alpha  occ. eigenvalues --  -46.93366 -46.91899 -19.26783 -19.25818 -19.20519
 Alpha  occ. eigenvalues --  -19.19213 -19.19086 -19.18855 -19.18530 -19.17631
 Alpha  occ. eigenvalues --  -14.42129 -14.41521 -14.41407 -14.40617 -14.39845
 Alpha  occ. eigenvalues --  -14.39422 -14.39260 -14.39237 -10.37452 -10.36120
 Alpha  occ. eigenvalues --  -10.32330 -10.31644 -10.31268 -10.30927 -10.29955
 Alpha  occ. eigenvalues --  -10.29671 -10.29215 -10.28907 -10.28795 -10.28668
 Alpha  occ. eigenvalues --  -10.28455 -10.28436 -10.28403 -10.28259 -10.28250
 Alpha  occ. eigenvalues --  -10.28215 -10.28193 -10.28147 -10.28039 -10.27817
 Alpha  occ. eigenvalues --  -10.26876 -10.26784 -10.26635 -10.26253 -10.26250
 Alpha  occ. eigenvalues --  -10.26133 -10.26124 -10.26078 -10.25973 -10.25911
 Alpha  occ. eigenvalues --  -10.25907 -10.25825 -10.25825 -10.25792 -10.25773
 Alpha  occ. eigenvalues --  -10.25584 -10.25413 -10.25382 -10.25265 -10.25156
 Alpha  occ. eigenvalues --  -10.25023 -10.25012 -10.24962 -10.24945 -10.24920
 Alpha  occ. eigenvalues --  -10.24763 -10.24693 -10.24497 -10.24411 -10.24324
 Alpha  occ. eigenvalues --  -10.24061 -10.23871 -10.23847 -10.23677 -10.23658
 Alpha  occ. eigenvalues --  -10.23592 -10.23573 -10.23486 -10.23480 -10.23410
 Alpha  occ. eigenvalues --  -10.23322 -10.23174 -10.22993 -10.22720 -10.22635
 Alpha  occ. eigenvalues --  -10.22349  -3.15418  -3.14083  -1.88214  -1.87828
 Alpha  occ. eigenvalues --   -1.87615  -1.86933  -1.86448  -1.86319  -1.10889
 Alpha  occ. eigenvalues --   -1.10341  -1.06397  -1.04228  -1.03924  -1.03719
 Alpha  occ. eigenvalues --   -1.01997  -1.00741  -1.00433  -0.99767  -0.99314
 Alpha  occ. eigenvalues --   -0.98954  -0.97679  -0.97646  -0.96927  -0.96810
 Alpha  occ. eigenvalues --   -0.87951  -0.87553  -0.84427  -0.84125  -0.83583
 Alpha  occ. eigenvalues --   -0.83021  -0.82779  -0.82756  -0.82195  -0.81864
 Alpha  occ. eigenvalues --   -0.81594  -0.81393  -0.80976  -0.80374  -0.78982
 Alpha  occ. eigenvalues --   -0.78885  -0.78340  -0.78242  -0.77397  -0.77215
 Alpha  occ. eigenvalues --   -0.76748  -0.76441  -0.75592  -0.75329  -0.75275
 Alpha  occ. eigenvalues --   -0.74890  -0.72939  -0.72811  -0.72134  -0.72036
 Alpha  occ. eigenvalues --   -0.71763  -0.71403  -0.70972  -0.70875  -0.69889
 Alpha  occ. eigenvalues --   -0.69605  -0.68083  -0.67468  -0.66412  -0.66231
 Alpha  occ. eigenvalues --   -0.64387  -0.63930  -0.63845  -0.63654  -0.62737
 Alpha  occ. eigenvalues --   -0.62498  -0.61187  -0.60937  -0.60855  -0.60677
 Alpha  occ. eigenvalues --   -0.60110  -0.59852  -0.59658  -0.59254  -0.59121
 Alpha  occ. eigenvalues --   -0.58854  -0.58127  -0.57144  -0.54926  -0.54859
 Alpha  occ. eigenvalues --   -0.54504  -0.54065  -0.54023  -0.53537  -0.53406
 Alpha  occ. eigenvalues --   -0.52857  -0.52640  -0.52233  -0.52002  -0.51858
 Alpha  occ. eigenvalues --   -0.51158  -0.51063  -0.50384  -0.50256  -0.50094
 Alpha  occ. eigenvalues --   -0.49889  -0.49669  -0.48993  -0.48970  -0.48574
 Alpha  occ. eigenvalues --   -0.48520  -0.48444  -0.47973  -0.47943  -0.47747
 Alpha  occ. eigenvalues --   -0.47744  -0.47469  -0.47086  -0.46650  -0.46504
 Alpha  occ. eigenvalues --   -0.46493  -0.46409  -0.46394  -0.46234  -0.46018
 Alpha  occ. eigenvalues --   -0.45795  -0.45676  -0.45424  -0.45389  -0.45193
 Alpha  occ. eigenvalues --   -0.45037  -0.44871  -0.44648  -0.44593  -0.44334
 Alpha  occ. eigenvalues --   -0.44242  -0.44156  -0.43857  -0.43653  -0.43638
 Alpha  occ. eigenvalues --   -0.43283  -0.43031  -0.42994  -0.42968  -0.42574
 Alpha  occ. eigenvalues --   -0.42501  -0.42396  -0.42334  -0.42022  -0.42020
 Alpha  occ. eigenvalues --   -0.41947  -0.41903  -0.41851  -0.41708  -0.41690
 Alpha  occ. eigenvalues --   -0.41283  -0.41200  -0.40965  -0.40944  -0.40850
 Alpha  occ. eigenvalues --   -0.40391  -0.40306  -0.40162  -0.40155  -0.39955
 Alpha  occ. eigenvalues --   -0.39879  -0.39774  -0.39579  -0.39332  -0.38992
 Alpha  occ. eigenvalues --   -0.38813  -0.38768  -0.38564  -0.38513  -0.38344
 Alpha  occ. eigenvalues --   -0.38125  -0.38030  -0.37969  -0.37526  -0.37481
 Alpha  occ. eigenvalues --   -0.37349  -0.37209  -0.37118  -0.36922  -0.36912
 Alpha  occ. eigenvalues --   -0.36782  -0.36592  -0.36559  -0.36467  -0.36427
 Alpha  occ. eigenvalues --   -0.36376  -0.36217  -0.36078  -0.35984  -0.35742
 Alpha  occ. eigenvalues --   -0.35490  -0.35144  -0.35043  -0.34899  -0.33956
 Alpha  occ. eigenvalues --   -0.33741  -0.33694  -0.33066  -0.32915  -0.32343
 Alpha  occ. eigenvalues --   -0.32126  -0.31847  -0.31162  -0.31069  -0.30991
 Alpha  occ. eigenvalues --   -0.30681  -0.30593  -0.29825  -0.29073  -0.28995
 Alpha  occ. eigenvalues --   -0.28600  -0.28580  -0.28187  -0.27172  -0.27170
 Alpha  occ. eigenvalues --   -0.26345  -0.26199  -0.25877  -0.25741  -0.25404
 Alpha  occ. eigenvalues --   -0.25286  -0.24957  -0.23757  -0.21426  -0.21010
 Alpha  occ. eigenvalues --   -0.19371  -0.18607
 Alpha virt. eigenvalues --   -0.12068  -0.10695  -0.05497  -0.05240  -0.03902
 Alpha virt. eigenvalues --   -0.03507  -0.01918  -0.01903  -0.01805  -0.00131
 Alpha virt. eigenvalues --   -0.00063   0.00378   0.00599   0.01446   0.01804

 Mulliken charges:
               1
     1  Mg  12.000000
     2  C    6.000000
     3  C    6.000000
     4  C    6.000000
     5  C    6.000000
     6  N    7.000000
     7  C    6.000000
     8  C    6.000000
     9  C    6.000000
    10  C    6.000000
    11  C    6.000000
    12  C    6.000000
    13  C    6.000000
    14  H    1.000000
    15  N    7.000000
    16  C    6.000000
    17  C    6.000000
    18  C    6.000000
    19  C    6.000000
    20  C    6.000000
    21  C    6.000000
    22  O    8.000000
    23  C    6.000000
    24  N    7.000000
    25  C    6.000000
    26  C    6.000000
    27  C    6.000000
    28  C    6.000000
    29  C    6.000000
    30  C    6.000000
    31  C    6.000000
    32  N    7.000000
    33  C    6.000000
    34  C    6.000000
    35  C    6.000000
    36  C    6.000000
    37  C    6.000000
    38  C    6.000000
    39  O    8.000000
    40  C    6.000000
    41  C    6.000000
    42  O    8.000000
    43  O    8.000000
    44  C    6.000000
    45  H    1.000000
    46  H    1.000000
    47  H    1.000000
    48  H    1.000000
    49  H    1.000000
    50  H    1.000000
    51  H    1.000000
    52  H    1.000000
    53  H    1.000000
    54  H    1.000000
    55  H    1.000000
    56  H    1.000000
    57  H    1.000000
    58  H    1.000000
    59  H    1.000000
    60  H    1.000000
    61  H    1.000000
    62  H    1.000000
    63  H    1.000000
    64  H    1.000000
    65  H    1.000000
    66  H    1.000000
    67  H    1.000000
    68  H    1.000000
    69  H    1.000000
    70  H    1.000000
    71  H    1.000000
    72  H    1.000000
    73  H    1.000000
    74  H    1.000000
    75  H    1.000000
    76  H    1.000000
    77  H    1.000000
    78  H    1.000000
    79  H    1.000000
    80  Mg  12.000000
    81  C    6.000000
    82  C    6.000000
    83  C    6.000000
    84  C    6.000000
    85  N    7.000000
    86  C    6.000000
    87  C    6.000000
    88  C    6.000000
    89  C    6.000000
    90  C    6.000000
    91  C    6.000000
    92  C    6.000000
    93  H    1.000000
    94  N    7.000000
    95  C    6.000000
    96  C    6.000000
    97  C    6.000000
    98  C    6.000000
    99  C    6.000000
   100  C    6.000000
   101  O    8.000000
   102  C    6.000000
   103  N    7.000000
   104  C    6.000000
   105  C    6.000000
   106  C    6.000000
   107  C    6.000000
   108  C    6.000000
   109  C    6.000000
   110  C    6.000000
   111  N    7.000000
   112  C    6.000000
   113  C    6.000000
   114  C    6.000000
   115  C    6.000000
   116  C    6.000000
   117  C    6.000000
   118  O    8.000000
   119  C    6.000000
   120  C    6.000000
   121  O    8.000000
   122  O    8.000000
   123  C    6.000000
   124  H    1.000000
   125  H    1.000000
   126  H    1.000000
   127  H    1.000000
   128  H    1.000000
   129  H    1.000000
   130  H    1.000000
   131  H    1.000000
   132  H    1.000000
   133  H    1.000000
   134  H    1.000000
   135  H    1.000000
   136  H    1.000000
   137  H    1.000000
   138  H    1.000000
   139  H    1.000000
   140  H    1.000000
   141  H    1.000000
   142  H    1.000000
   143  H    1.000000
   144  H    1.000000
   145  H    1.000000
   146  H    1.000000
   147  H    1.000000
   148  H    1.000000
   149  H    1.000000
   150  H    1.000000
   151  H    1.000000
   152  H    1.000000
   153  H    1.000000
   154  H    1.000000
   155  H    1.000000
   156  H    1.000000
   157  H    1.000000
   158  H    1.000000
 Sum of Mulliken charges = 624.00000

 Dipole moment (field-independent basis, Debye):
    X=              0.0000    Y=             -0.0000    Z=             -0.0000  Tot=              0.0000
 Quadrupole moment (field-independent basis, Debye-Ang):
   XX=              0.0000   YY=              0.0000   ZZ=              0.0000
   XY=             -0.0000   XZ=             -0.0000   YZ=              0.0000

 Normal termination of Gaussian 16 at Fri Oct 15 04:10:16 2021.
