 Gaussian 16, Revision A.03,
 Gaussian 16:  ES64L-G16RevA.03 25-Dec-2016

 --------------------------------------------------------
 #p PBE1PBE/Def2SVP td=(nstates=5) density=(transition=1)
 --------------------------------------------------------

 --------------------------------
 TDDFT excited states in gaussian
 --------------------------------
 Symbolic Z-matrix:
 Charge =  0 Multiplicity = 1

                         Standard orientation:
 ---------------------------------------------------------------------
 Center     Atomic      Atomic             Coordinates (Angstroms)
 Number     Number       Type             X           Y           Z
 ---------------------------------------------------------------------
      1         12           0       30.788415    0.416477   -0.672272
      2          6           0       28.105093   -1.717794    0.556392
      3          6           0       28.997697    3.096138    0.511925
      4          6           0       33.657296    2.111640   -0.392346
      5          6           0       32.353513   -2.336470   -1.904381
      6          7           0       28.840595    0.608947    0.598932
      7          6           0       27.872263   -0.412207    0.911192
      8          6           0       26.600749    0.243538    1.457112
      9          6           0       26.752958    1.749195    1.090134
     10          6           0       28.285607    1.892017    0.684569
     11          6           0       25.809736    2.214201   -0.118084
     12          6           0       26.214925   -0.077454    2.871491
     13          6           0       27.301921   -0.687883    3.787409
     14          1           0       27.162106   -1.031905    5.281583
     15          7           0       31.252304    2.415151   -0.151222
     16          6           0       30.363793    3.350672    0.330993
     17          6           0       31.090975    4.650386    0.474751
     18          6           0       32.430944    4.303764    0.321437
     19          6           0       32.543507    2.892099   -0.037879
     20          6           0       30.365961    5.895462    0.845296
     21          6           0       33.622392    5.284935    0.522508
     22          8           0       33.372626    6.408288    0.922231
     23          6           0       35.061772    4.906918    0.405397
     24          7           0       32.737020   -0.162437   -0.960053
     25          6           0       33.729287    0.815783   -0.906281
     26          6           0       35.063296    0.271751   -1.417492
     27          6           0       34.631152   -1.030952   -2.183315
     28          6           0       33.182605   -1.171314   -1.710090
     29          6           0       35.949491    1.191498   -2.296362
     30          6           0       35.505979   -2.300392   -1.929806
     31          6           0       36.462414   -2.740938   -3.130419
     32          7           0       30.329635   -1.624648   -0.772854
     33          6           0       31.059041   -2.625534   -1.397965
     34          6           0       30.272179   -3.833938   -1.425750
     35          6           0       29.181666   -3.504859   -0.609259
     36          6           0       29.272511   -2.132919   -0.267492
     37          6           0       30.747005   -5.147854   -2.070098
     38          6           0       27.950778   -3.978407   -0.054393
     39          8           0       27.476510   -5.119228   -0.227625
     40          6           0       27.092877   -2.818865    0.621345
     41          6           0       26.752626   -3.346857    1.957603
     42          8           0       27.530031   -3.861163    2.768551
     43          8           0       25.449058   -3.042609    2.171186
     44          6           0       24.818144   -3.644530    3.387461
     45          1           0       28.434961    3.945092    0.904497
     46          1           0       34.584476    2.682872   -0.308634
     47          1           0       32.827518   -3.174558   -2.418816
     48          1           0       25.899284   -0.220770    0.763912
     49          1           0       26.679417    2.407830    1.955701
     50          1           0       25.109660    2.895653    0.363629
     51          1           0       25.349851    1.338464   -0.576633
     52          1           0       26.458941    2.766525   -0.798405
     53          1           0       25.314036   -0.687242    2.805703
     54          1           0       25.909584    0.907671    3.225779
     55          1           0       28.147023   -0.003917    3.703202
     56          1           0       27.607970   -1.657080    3.393086
     57          1           0       30.692815    6.140441    1.855445
     58          1           0       29.296535    5.693441    0.793275
     59          1           0       30.580218    6.670709    0.108806
     60          1           0       35.466489    4.192344    1.121108
     61          1           0       35.732760    5.744325    0.594512
     62          1           0       35.103452    4.615942   -0.644127
     63          1           0       35.516468    0.094729   -0.441408
     64          1           0       34.618203   -0.736460   -3.232934
     65          1           0       36.767623    1.660262   -1.748593
     66          1           0       35.352095    2.021917   -2.671209
     67          1           0       36.291532    0.599069   -3.145673
     68          1           0       34.938343   -3.185523   -1.641337
     69          1           0       36.077022   -2.048533   -1.036087
     70          1           0       37.388957   -2.970113   -2.604617
     71          1           0       36.629284   -1.977428   -3.890376
     72          1           0       35.958301   -3.555965   -3.648525
     73          1           0       29.954813   -5.793046   -2.450556
     74          1           0       31.215696   -5.633466   -1.214858
     75          1           0       31.321692   -4.938476   -2.972050
     76          1           0       26.217731   -2.613355    0.003163
     77          1           0       23.778701   -3.320610    3.450191
     78          1           0       25.320857   -3.314793    4.296865
     79          1           0       24.923378   -4.710424    3.190179
     80         12           0      -31.155545    0.003331   -0.402024
     81          6           0      -27.704244    0.624653   -0.092314
     82          6           0      -30.446139   -3.292200    0.452395
     83          6           0      -34.423155   -0.615715   -0.225750
     84          6           0      -31.668170    3.434469   -0.313139
     85          7           0      -29.253622   -1.110365    0.277475
     86          6           0      -27.929290   -0.722580    0.216981
     87          6           0      -26.919764   -1.850564    0.256266
     88          6           0      -27.803602   -3.111573    0.407658
     89          6           0      -29.249981   -2.516898    0.398975
     90          6           0      -27.582678   -4.202440   -0.717402
     91          6           0      -25.822273   -1.783561    1.410028
     92          6           0      -26.218349   -1.131445    2.744746
     93          1           0      -26.508305   -2.058089    3.962462
     94          7           0      -32.248266   -1.683214    0.032977
     95          6           0      -31.785967   -2.941203    0.296551
     96          6           0      -32.913912   -3.877413    0.402513
     97          6           0      -34.099931   -3.106925    0.201469
     98          6           0      -33.600283   -1.712509   -0.002290
     99          6           0      -32.750140   -5.371248    0.656296
    100          6           0      -35.502604   -3.805193    0.353291
    101          8           0      -35.523129   -4.984917    0.675597
    102          6           0      -36.837045   -2.964489    0.181450
    103          7           0      -32.764468    1.221612   -0.162146
    104          6           0      -34.068862    0.746397   -0.276907
    105          6           0      -35.129795    1.984867   -0.332070
    106          6           0      -34.115117    3.244996   -0.195223
    107          6           0      -32.776195    2.581417   -0.233764
    108          6           0      -35.977370    1.991411   -1.638259
    109          6           0      -34.296099    4.122715    1.116683
    110          6           0      -34.451144    5.645140    0.978161
    111          7           0      -29.953746    1.739147   -0.360492
    112          6           0      -30.267173    3.073457   -0.315435
    113          6           0      -29.010677    3.848254   -0.238901
    114          6           0      -27.973039    2.878329   -0.270144
    115          6           0      -28.631252    1.617063   -0.294776
    116          6           0      -28.854820    5.339753   -0.129496
    117          6           0      -26.507079    2.741093   -0.180891
    118          8           0      -25.580909    3.564830   -0.203861
    119          6           0      -26.291620    1.237365   -0.265633
    120          6           0      -25.591666    0.842509   -1.441370
    121          8           0      -26.163151    0.750148   -2.558589
    122          8           0      -24.241175    0.550456   -1.165272
    123          6           0      -23.426691   -0.024637   -2.230944
    124          1           0      -30.272771   -4.366024    0.545407
    125          1           0      -35.493327   -0.803030   -0.331856
    126          1           0      -31.912641    4.497713   -0.349323
    127          1           0      -26.439888   -1.770290   -0.718384
    128          1           0      -27.659454   -3.445760    1.434466
    129          1           0      -27.105199   -5.080283   -0.282166
    130          1           0      -26.941304   -3.734622   -1.464801
    131          1           0      -28.529387   -4.520275   -1.155498
    132          1           0      -25.070640   -1.143825    0.945812
    133          1           0      -25.399980   -2.777792    1.557669
    134          1           0      -27.091438   -0.491097    2.614840
    135          1           0      -25.433514   -0.429244    3.022788
    136          1           0      -32.970267   -5.688413    1.675659
    137          1           0      -31.812071   -5.739012    0.240323
    138          1           0      -33.425676   -5.946256    0.023200
    139          1           0      -36.727000   -2.384131   -0.734930
    140          1           0      -36.930445   -2.321787    1.056438
    141          1           0      -37.748511   -3.552255    0.290364
    142          1           0      -35.849713    1.794041    0.463239
    143          1           0      -34.225820    3.839247   -1.102541
    144          1           0      -35.479770    2.654531   -2.345600
    145          1           0      -37.024084    2.239888   -1.462522
    146          1           0      -36.086258    1.011897   -2.103580
    147          1           0      -33.461205    3.874339    1.772726
    148          1           0      -35.228521    3.721346    1.513643
    149          1           0      -34.220908    6.166682    1.907592
    150          1           0      -35.505282    5.745893    0.720801
    151          1           0      -33.755540    5.910971    0.181913
    152          1           0      -29.780655    5.666807    0.342985
    153          1           0      -28.871454    5.649990   -1.174265
    154          1           0      -27.922730    5.679361    0.323099
    155          1           0      -25.701928    1.056029    0.632696
    156          1           0      -23.238209    0.594654   -3.107941
    157          1           0      -23.871411   -0.958577   -2.575825
    158          1           0      -22.518147   -0.394465   -1.755397
 ---------------------------------------------------------------------

 SCF Done:  E(RPBE1PBE) =  -4067.33291274     A.U. after   16 cycles

 Excitation energies and oscillator strengths:

 Excited State   1:      Singlet-A      1.8047 eV  686.99 nm  f=0.3447  <S**2>=0.000
     309 -> 315       -0.15270
     312 -> 313        0.69771
     312 <- 313       -0.11786
 This state for optimization and/or second-order correction.
 Total Energy, E(TD-HF/TD-DFT) =  -4067.26658962
 Copying the excited state density for this state as the 1-particle RhoCI density.

 Excited State   2:      Singlet-A      1.8697 eV  663.14 nm  f=0.3681  <S**2>=0.000
     310 -> 316        0.17520
     311 -> 314        0.69211
     311 <- 314       -0.10391

 Excited State   3:      Singlet-A      1.9546 eV  634.33 nm  f=0.0000  <S**2>=0.000
     311 -> 313        0.70711

 Excited State   4:      Singlet-A      2.0377 eV  608.44 nm  f=0.0000  <S**2>=0.000
     312 -> 314        0.70711

 Excited State   5:      Singlet-A      2.2730 eV  545.47 nm  f=0.0805  <S**2>=0.000
     309 -> 313        0.63291
     312 -> 315        0.29879

 The electronic state is 1-A.
 Alpha  occ. eigenvalues --  -46.92679 -46.92354 -19.26416 -19.26063 -19.20436
 Alpha  occ. eigenvalues --  -19.19798 -19.19738 -19.19471 -19.19080 -19.17600
 Alpha  occ. eigenvalues --  -14.42062 -14.41964 -14.41726 -14.41148 -14.39532
 Alpha  occ. eigenvalues --  -14.39258 -14.39020 -14.38496 -10.36976 -10.36223
 Alpha  occ. eigenvalues --  -10.33645 -10.32539 -10.32488 -10.30958 -10.29561
 Alpha  occ. eigenvalues --  -10.29459 -10.29367 -10.29315 -10.29258 -10.29082
 Alpha  occ. eigenvalues --  -10.29011 -10.28461 -10.28442 -10.28442 -10.28389
 Alpha  occ. eigenvalues --  -10.28280 -10.28171 -10.27969 -10.27450 -10.27155
 Alpha  occ. eigenvalues --  -10.27104 -10.26496 -10.26480 -10.26438 -10.26385
 Alpha  occ. eigenvalues --  -10.26246 -10.26217 -10.26214 -10.26209 -10.26122
 Alpha  occ. eigenvalues --  -10.26101 -10.25936 -10.25909 -10.25825 -10.25610
 Alpha  occ. eigenvalues --  -10.25565 -10.25483 -10.25462 -10.25379 -10.25177
 Alpha  occ. eigenvalues --  -10.25102 -10.25071 -10.25022 -10.24947 -10.24893
 Alpha  occ. eigenvalues --  -10.24834 -10.24739 -10.24659 -10.24484 -10.24432
 Alpha  occ. eigenvalues --  -10.24417 -10.24378 -10.24325 -10.24268 -10.24260
 Alpha  occ. eigenvalues --  -10.24066 -10.23981 -10.23901 -10.23641 -10.23537
 Alpha  occ. eigenvalues --  -10.23534 -10.23505 -10.23394 -10.23028 -10.22844
 Alpha  occ. eigenvalues --  -10.22017  -3.14748  -3.14555  -1.87559  -1.87352
 Alpha  occ. eigenvalues --   -1.87145  -1.86951  -1.86946  -1.86781  -1.10893
 Alpha  occ. eigenvalues --   -1.09682  -1.05238  -1.05117  -1.03821  -1.02369
 Alpha  occ. eigenvalues --   -1.01779  -1.01616  -0.99679  -0.98863  -0.98774
 Alpha  occ. eigenvalues --   -0.98184  -0.97266  -0.97225  -0.96493  -0.94864
 Alpha  occ. eigenvalues --   -0.87527  -0.86399  -0.83647  -0.83490  -0.83221
 Alpha  occ. eigenvalues --   -0.83097  -0.82883  -0.82342  -0.81134  -0.81089
 Alpha  occ. eigenvalues --   -0.80900  -0.80507  -0.80455  -0.79815  -0.78830
 Alpha  occ. eigenvalues --   -0.78595  -0.78177  -0.78073  -0.77062  -0.76763
 Alpha  occ. eigenvalues --   -0.76590  -0.75866  -0.75342  -0.75239  -0.74527
 Alpha  occ. eigenvalues --   -0.74427  -0.72527  -0.72281  -0.72078  -0.71509
 Alpha  occ. eigenvalues --   -0.71013  -0.70844  -0.70842  -0.70349  -0.69533
 Alpha  occ. eigenvalues --   -0.69278  -0.67540  -0.66817  -0.66195  -0.66082
 Alpha  occ. eigenvalues --   -0.64025  -0.63652  -0.63343  -0.63327  -0.62841
 Alpha  occ. eigenvalues --   -0.62156  -0.61319  -0.61241  -0.60561  -0.60206
 Alpha  occ. eigenvalues --   -0.59797  -0.59686  -0.59259  -0.59115  -0.58743
 Alpha  occ. eigenvalues --   -0.58129  -0.57038  -0.56756  -0.54791  -0.54144
 Alpha  occ. eigenvalues --   -0.54104  -0.53757  -0.53680  -0.53620  -0.53229
 Alpha  occ. eigenvalues --   -0.52516  -0.52351  -0.52037  -0.51803  -0.51779
 Alpha  occ. eigenvalues --   -0.51357  -0.50723  -0.50670  -0.50078  -0.49735
 Alpha  occ. eigenvalues --   -0.49506  -0.49179  -0.48987  -0.48801  -0.48784
 Alpha  occ. eigenvalues --   -0.48397  -0.48309  -0.47767  -0.47612  -0.47450
 Alpha  occ. eigenvalues --   -0.47185  -0.47135  -0.46970  -0.46955  -0.46681
 Alpha  occ. eigenvalues --   -0.46478  -0.46171  -0.45918  -0.45808  -0.45802
 Alpha  occ. eigenvalues --   -0.45501  -0.45483  -0.45323  -0.45183  -0.44948
 Alpha  occ. eigenvalues --   -0.44592  -0.44560  -0.44333  -0.43984  -0.43952
 Alpha  occ. eigenvalues --   -0.43932  -0.43846  -0.43639  -0.43549  -0.43352
 Alpha  occ. eigenvalues --   -0.43228  -0.42991  -0.42935  -0.42848  -0.42805
 Alpha  occ. eigenvalues --   -0.42463  -0.42273  -0.42104  -0.41865  -0.41794
 Alpha  occ. eigenvalues --   -0.41559  -0.41367  -0.41357  -0.41236  -0.41142
 Alpha  occ. eigenvalues --   -0.40998  -0.40992  -0.40946  -0.40567  -0.40488
 Alpha  occ. eigenvalues --   -0.40220  -0.40087  -0.39935  -0.39762  -0.39704
 Alpha  occ. eigenvalues --   -0.39538  -0.39443  -0.39305  -0.39304  -0.38937
 Alpha  occ. eigenvalues --   -0.38815  -0.38727  -0.38708  -0.38344  -0.38226
 Alpha  occ. eigenvalues --   -0.38044  -0.37820  -0.37772  -0.37661  -0.37566
 Alpha  occ. eigenvalues --   -0.37460  -0.37366  -0.37263  -0.37075  -0.37070
 Alpha  occ. eigenvalues --   -0.37037  -0.36908  -0.36789  -0.36662  -0.36512
 Alpha  occ. eigenvalues --   -0.35974  -0.35957  -0.35747  -0.35536  -0.35245
 Alpha  occ. eigenvalues --   -0.34898  -0.34797  -0.34660  -0.34326  -0.34034
 Alpha  occ. eigenvalues --   -0.33862  -0.33382  -0.32613  -0.32526  -0.32410
 Alpha  occ. eigenvalues --   -0.32153  -0.32093  -0.32064  -0.31610  -0.31587
 Alpha  occ. eigenvalues --   -0.31386  -0.30863  -0.29992  -0.29270  -0.29077
 Alpha  occ. eigenvalues --   -0.29045  -0.28865  -0.28301  -0.27093  -0.26905
 Alpha  occ. eigenvalues --   -0.26212  -0.25986  -0.25832  -0.25623  -0.25399
 Alpha  occ. eigenvalues --   -0.25332  -0.25274  -0.24292  -0.21264  -0.21045
 Alpha  occ. eigenvalues --   -0.18492  -0.18454
 Alpha virt. eigenvalues --   -0.11094  -0.10751  -0.05298  -0.05283  -0.03983
 Alpha virt. eigenvalues --   -0.03123  -0.02400  -0.02009  -0.01399  -0.01177
 Alpha virt. eigenvalues --   -0.01037   0.00163   0.00809   0.01024   0.01100

 Mulliken charges:
               1
     1  Mg  12.000324
     2  C    6.027501
     3  C    6.009172
     4  C    5.969228
     5  C    5.992290
     6  N    7.023278
     7  C    5.973850
     8  C    6.003578
     9  C    5.998047
    10  C    6.012060
    11  C    5.998002
    12  C    6.001393
    13  C    6.005723
    14  H    0.998050
    15  N    6.992196
    16  C    6.031546
    17  C    6.027324
    18  C    6.002046
    19  C    6.044416
    20  C    5.995484
    21  C    6.012274
    22  O    8.015560
    23  C    5.998294
    24  N    6.991516
    25  C    6.039293
    26  C    5.989844
    27  C    6.011218
    28  C    5.968021
    29  C    6.000053
    30  C    6.006506
    31  C    5.998026
    32  N    6.999532
    33  C    5.969750
    34  C    5.975698
    35  C    5.998763
    36  C    5.964561
    37  C    5.998710
    38  C    5.984108
    39  O    7.967095
    40  C    5.993286
    41  C    5.996117
    42  O    7.998751
    43  O    7.997834
    44  C    5.999931
    45  H    1.013220
    46  H    1.005097
    47  H    0.984246
    48  H    1.004899
    49  H    0.999115
    50  H    1.004957
    51  H    1.013885
    52  H    0.997130
    53  H    1.002806
    54  H    0.992207
    55  H    0.990094
    56  H    1.006885
    57  H    1.017370
    58  H    1.014210
    59  H    1.017901
    60  H    1.010270
    61  H    1.010904
    62  H    1.007535
    63  H    1.000442
    64  H    0.993451
    65  H    0.997148
    66  H    0.995064
    67  H    1.008835
    68  H    1.005508
    69  H    0.991100
    70  H    0.995160
    71  H    0.994370
    72  H    1.002524
    73  H    0.985153
    74  H    0.984530
    75  H    0.987051
    76  H    0.994213
    77  H    0.995409
    78  H    0.995926
    79  H    1.001141
    80  Mg  11.999991
    81  C    6.000011
    82  C    6.000052
    83  C    5.999969
    84  C    5.999951
    85  N    6.999996
    86  C    5.999970
    87  C    6.000004
    88  C    5.999998
    89  C    6.000014
    90  C    5.999988
    91  C    6.000005
    92  C    5.999993
    93  H    0.999992
    94  N    7.000010
    95  C    6.000016
    96  C    6.000029
    97  C    6.000004
    98  C    6.000056
    99  C    5.999991
   100  C    6.000010
   101  O    8.000027
   102  C    6.000003
   103  N    7.000008
   104  C    6.000034
   105  C    5.999995
   106  C    5.999997
   107  C    6.000005
   108  C    5.999998
   109  C    6.000014
   110  C    6.000000
   111  N    6.999986
   112  C    5.999994
   113  C    5.999945
   114  C    6.000016
   115  C    5.999958
   116  C    6.000004
   117  C    5.999971
   118  O    7.999952
   119  C    6.000007
   120  C    5.999995
   121  O    7.999994
   122  O    7.999997
   123  C    5.999998
   124  H    1.000026
   125  H    1.000005
   126  H    0.999979
   127  H    1.000007
   128  H    1.000013
   129  H    1.000027
   130  H    1.000026
   131  H    0.999994
   132  H    1.000009
   133  H    1.000002
   134  H    0.999998
   135  H    1.000002
   136  H    1.000034
   137  H    1.000031
   138  H    1.000032
   139  H    1.000010
   140  H    1.000009
   141  H    1.000020
   142  H    0.999995
   143  H    0.999992
   144  H    1.000010
   145  H    0.999999
   146  H    0.999996
   147  H    1.000002
   148  H    0.999977
   149  H    0.999987
   150  H    0.999986
   151  H    1.000004
   152  H    0.999969
   153  H    0.999962
   154  H    0.999965
   155  H    0.999987
   156  H    0.999993
   157  H    1.000003
   158  H    1.000002
 Sum of Mulliken charges = 624.00000

 Dipole moment (field-independent basis, Debye):
    X=              1.0225    Y=              9.7923    Z=              1.9475  Tot=             10.0363
 Quadrupole moment (field-independent basis, Debye-Ang):
   XX=             63.5236   YY=              7.1419   ZZ=             -3.8075
   XY=            301.4509   XZ=             62.8637   YZ=             -2.3296

 Normal termination of Gaussian 16 at Thu Oct 14 00:21:19 2021.
