 Gaussian 16, Revision A.03,
 Gaussian 16:  ES64L-G16RevA.03 25-Dec-2016

 ---------------------------------------------------
 #p PBE1PBE/Def2SVP td=(nstates=5) density=(current)
 ---------------------------------------------------

 --------------------------------
 TDDFT excited states in gaussian
 --------------------------------
 Symbolic Z-matrix:
 Charge =  0 Multiplicity = 1

                         Standard orientation:
 ---------------------------------------------------------------------
 Center     Atomic      Atomic             Coordinates (Angstroms)
 Number     Number       Type             X           Y           Z
 ---------------------------------------------------------------------
      1         12           0       -0.812167    0.074761    0.039063
      2          6           0        2.787936    0.271257    0.141341
      3          6           0       -0.435837   -3.407888   -0.124811
      4          6           0       -4.088730   -0.133401    0.065469
      5          6           0       -0.953181    3.564810   -0.105166
      6          7           0        1.048224   -1.378986   -0.010565
      7          6           0        2.349265   -1.088283    0.254076
      8          6           0        3.163713   -2.337861    0.546780
      9          6           0        2.178868   -3.559849    0.108650
     10          6           0        0.858743   -2.750573   -0.045236
     11          6           0        2.646777   -4.366065   -1.128796
     12          6           0        3.632215   -2.418721    2.038942
     13          6           0        5.167948   -2.547154    2.211288
     14          1           0        5.638032   -3.956788    2.895722
     15          7           0       -2.045798   -1.498347   -0.013195
     16          6           0       -1.763359   -2.902792   -0.112789
     17          6           0       -2.980143   -3.748882   -0.122257
     18          6           0       -4.015241   -2.764050   -0.007388
     19          6           0       -3.404299   -1.424530    0.021270
     20          6           0       -2.988816   -5.273625   -0.248977
     21          6           0       -5.482773   -2.965049   -0.020777
     22          8           0       -6.320756   -2.133285    0.310447
     23          6           0       -6.013876   -4.375319   -0.344473
     24          7           0       -2.261072    1.498101    0.160804
     25          6           0       -3.572854    1.170091    0.126645
     26          6           0       -4.469935    2.358176   -0.083184
     27          6           0       -3.505669    3.569806   -0.095529
     28          6           0       -2.135858    2.869746    0.051476
     29          6           0       -5.400725    2.247750   -1.272541
     30          6           0       -3.802202    4.557924    1.179915
     31          6           0       -4.066280    6.118550    0.815250
     32          7           0        0.608855    1.630024   -0.249091
     33          6           0        0.365502    3.023890   -0.202585
     34          6           0        1.665663    3.703847   -0.222118
     35          6           0        2.586140    2.657647    0.049674
     36          6           0        1.921862    1.439028   -0.097556
     37          6           0        1.995361    5.182213   -0.405330
     38          6           0        4.052666    2.401868    0.117855
     39          8           0        5.093754    3.112208    0.047167
     40          6           0        4.183894    0.840923    0.305261
     41          6           0        5.139959    0.317669   -0.725751
     42          8           0        5.133446    0.641918   -1.879531
     43          8           0        6.073540   -0.477673   -0.121350
     44          6           0        7.238517   -0.754449   -0.999289
     45          1           0       -0.262219   -4.469833   -0.309672
     46          1           0       -5.180971   -0.134687    0.072766
     47          1           0       -0.973067    4.656388   -0.111453
     48          1           0        4.002055   -2.318612   -0.149624
     49          1           0        1.997158   -4.262042    0.922731
     50          1           0        1.955415   -4.235170   -1.961770
     51          1           0        2.734685   -5.425058   -0.882623
     52          1           0        3.654831   -4.151100   -1.483443
     53          1           0        3.195935   -3.275540    2.553038
     54          1           0        3.347744   -1.527111    2.598334
     55          1           0        5.574728   -1.857603    2.951443
     56          1           0        5.754733   -2.341275    1.316631
     57          1           0       -2.055036   -5.794600   -0.035111
     58          1           0       -3.363059   -5.663784   -1.195401
     59          1           0       -3.702497   -5.610257    0.503655
     60          1           0       -5.715386   -4.671630   -1.350023
     61          1           0       -7.093997   -4.451705   -0.215072
     62          1           0       -5.568226   -5.069592    0.367885
     63          1           0       -5.170148    2.400156    0.752203
     64          1           0       -3.544639    4.096839   -1.048394
     65          1           0       -6.442881    2.086253   -0.995625
     66          1           0       -5.210972    1.400372   -1.931262
     67          1           0       -5.291048    3.154603   -1.867619
     68          1           0       -3.009296    4.566573    1.927085
     69          1           0       -4.685906    4.258295    1.742671
     70          1           0       -4.365151    6.124137   -0.233146
     71          1           0       -3.177259    6.729546    0.976876
     72          1           0       -4.945815    6.503489    1.330672
     73          1           0        2.891475    5.474992    0.141462
     74          1           0        1.208239    5.752625    0.089167
     75          1           0        1.944634    5.319371   -1.485572
     76          1           0        4.682585    0.703184    1.264320
     77          1           0        6.850971   -1.162594   -1.932541
     78          1           0        7.749059   -1.571342   -0.489492
     79          1           0        7.898458    0.065263   -1.283149
 ---------------------------------------------------------------------

 SCF Done:  E(RPBE1PBE) =  -2033.67973261     A.U. after   15 cycles

 Excitation energies and oscillator strengths:

 Excited State   1:      Singlet-A      1.8271 eV  678.60 nm  f=0.3550  <S**2>=0.000
     155 ->158        -0.18284
     156 ->157         0.69144
     156 <-157        -0.10668
 This state for optimization and/or second-order correction.
 Total Energy, E(TD-HF/TD-DFT) =  -2033.61258928
 Copying the excited state density for this state as the 1-particle RhoCI density.

 Excited State   2:      Singlet-A      2.1728 eV  570.63 nm  f=0.1318  <S**2>=0.000
     155 ->157         0.65739
     156 ->158         0.25556

 Excited State   3:      Singlet-A      2.8800 eV  430.50 nm  f=0.0013  <S**2>=0.000
     152 ->157         0.21625
     152 ->159        -0.10267
     154 ->157         0.64855

 Excited State   4:      Singlet-A      2.9699 eV  417.47 nm  f=0.0004  <S**2>=0.000
     151 ->157         0.12516
     153 ->157         0.65878
     153 ->159         0.15884

 Excited State   5:      Singlet-A      3.0636 eV  404.70 nm  f=0.0015  <S**2>=0.000
     151 ->157         0.12323
     152 ->157         0.63470
     154 ->157        -0.24061

 The electronic state is 1-A.
 Alpha  occ. eigenvalues --  -46.91975 -19.26301 -19.19966 -19.19066 -19.19044
 Alpha  occ. eigenvalues --  -14.41962 -14.41599 -14.40315 -14.39021 -10.35851
 Alpha  occ. eigenvalues --  -10.32437 -10.32121 -10.29456 -10.29154 -10.29098
 Alpha  occ. eigenvalues --  -10.29091 -10.29049 -10.28699 -10.28490 -10.28095
 Alpha  occ. eigenvalues --  -10.27948 -10.26880 -10.26854 -10.26805 -10.26454
 Alpha  occ. eigenvalues --  -10.26431 -10.26405 -10.25925 -10.25804 -10.25683
 Alpha  occ. eigenvalues --  -10.25619 -10.25471 -10.25011 -10.24976 -10.24945
 Alpha  occ. eigenvalues --  -10.24559 -10.24007 -10.23920 -10.23690 -10.23441
 Alpha  occ. eigenvalues --  -10.23225 -10.23094 -10.23001  -3.14194  -1.87033
 Alpha  occ. eigenvalues --   -1.86568  -1.86439  -1.11734  -1.04572  -1.03517
 Alpha  occ. eigenvalues --   -1.01902  -0.98666  -0.97861  -0.97260  -0.96637
 Alpha  occ. eigenvalues --   -0.85954  -0.82906  -0.82776  -0.82339  -0.81722
 Alpha  occ. eigenvalues --   -0.81248  -0.80090  -0.78251  -0.77491  -0.76086
 Alpha  occ. eigenvalues --   -0.75501  -0.75014  -0.73982  -0.73269  -0.71483
 Alpha  occ. eigenvalues --   -0.71120  -0.70334  -0.69597  -0.67049  -0.65860
 Alpha  occ. eigenvalues --   -0.63498  -0.63168  -0.61974  -0.61528  -0.60386
 Alpha  occ. eigenvalues --   -0.60029  -0.59002  -0.58571  -0.56961  -0.55294
 Alpha  occ. eigenvalues --   -0.53872  -0.53330  -0.52964  -0.52484  -0.51743
 Alpha  occ. eigenvalues --   -0.50702  -0.49885  -0.49487  -0.49077  -0.48404
 Alpha  occ. eigenvalues --   -0.47972  -0.47287  -0.46908  -0.46668  -0.46286
 Alpha  occ. eigenvalues --   -0.46058  -0.46007  -0.45467  -0.45095  -0.44713
 Alpha  occ. eigenvalues --   -0.44546  -0.44369  -0.43911  -0.43733  -0.43284
 Alpha  occ. eigenvalues --   -0.42962  -0.42808  -0.42649  -0.42279  -0.42077
 Alpha  occ. eigenvalues --   -0.41708  -0.41588  -0.41222  -0.40937  -0.40733
 Alpha  occ. eigenvalues --   -0.40340  -0.39750  -0.39654  -0.39524  -0.39254
 Alpha  occ. eigenvalues --   -0.38907  -0.38756  -0.38468  -0.38113  -0.37701
 Alpha  occ. eigenvalues --   -0.37460  -0.37104  -0.36777  -0.36403  -0.36157
 Alpha  occ. eigenvalues --   -0.35690  -0.35604  -0.35374  -0.35145  -0.34473
 Alpha  occ. eigenvalues --   -0.33575  -0.33255  -0.32519  -0.32258  -0.31459
 Alpha  occ. eigenvalues --   -0.30651  -0.29762  -0.29373  -0.28592  -0.27144
 Alpha  occ. eigenvalues --   -0.26005  -0.25702  -0.25573  -0.25021  -0.20853
 Alpha  occ. eigenvalues --   -0.18930
 Alpha virt. eigenvalues --   -0.11407  -0.05325  -0.04079  -0.02385  -0.00012
 Alpha virt. eigenvalues --    0.00689   0.01002   0.01278   0.02292   0.03418
 Alpha virt. eigenvalues --    0.04140   0.05504   0.05819   0.06254   0.06821

 Mulliken charges:
               1
     1  Mg   0.993746
     2  C   -0.028594
     3  C   -0.071482
     4  C   -0.072074
     5  C   -0.064498
     6  N   -0.344072
     7  C    0.024624
     8  C   -0.084317
     9  C   -0.135859
    10  C    0.040639
    11  C    0.008281
    12  C    0.032261
    13  C   -0.159166
    14  H   -0.000884
    15  N   -0.541687
    16  C    0.181113
    17  C   -0.138257
    18  C   -0.077358
    19  C    0.191810
    20  C    0.057557
    21  C    0.028549
    22  O   -0.248922
    23  C   -0.030388
    24  N   -0.460021
    25  C    0.110480
    26  C   -0.103872
    27  C   -0.106149
    28  C    0.124763
    29  C    0.003127
    30  C   -0.042028
    31  C   -0.098155
    32  N   -0.461806
    33  C    0.126673
    34  C   -0.188286
    35  C   -0.112866
    36  C    0.174495
    37  C    0.080388
    38  C    0.204683
    39  O   -0.259945
    40  C   -0.125261
    41  C    0.260458
    42  O   -0.220290
    43  O   -0.375280
    44  C    0.118779
    45  H    0.001799
    46  H    0.025935
    47  H    0.004083
    48  H    0.061783
    49  H    0.055310
    50  H    0.055604
    51  H    0.041156
    52  H    0.046663
    53  H    0.057076
    54  H    0.055704
    55  H    0.060599
    56  H    0.072200
    57  H    0.047245
    58  H    0.064188
    59  H    0.050096
    60  H    0.056380
    61  H    0.052009
    62  H    0.044595
    63  H    0.060580
    64  H    0.062794
    65  H    0.046410
    66  H    0.051419
    67  H    0.035487
    68  H    0.052217
    69  H    0.045357
    70  H    0.036572
    71  H    0.058603
    72  H    0.048018
    73  H    0.068690
    74  H    0.033573
    75  H    0.074730
    76  H    0.073760
    77  H    0.054521
    78  H    0.054438
    79  H    0.079500
 Sum of Mulliken charges =  -0.00000

 Dipole moment (field-independent basis, Debye):
    X=             -1.8572    Y=             -3.1996    Z=              0.4704  Tot=              3.7293
 Quadrupole moment (field-independent basis, Debye-Ang):
   XX=           -274.6064   YY=           -223.8576   ZZ=           -259.8707
   XY=            -30.8193   XZ=              6.2718   YZ=              6.7877

 Normal termination of Gaussian 16 at Wed Oct 13 17:51:13 2021.
