 Gaussian 16, Revision A.03,
 Gaussian 16:  ES64L-G16RevA.03 25-Dec-2016

 ---------------------------------------------------------
 #p PBE1PBE/Def2SVP td=(nstates=5, root=1) density=current
 ---------------------------------------------------------

 --------------------------------
 TDDFT excited states in gaussian
 --------------------------------
 Symbolic Z-matrix:
 Charge =  0 Multiplicity = 1

                         Standard orientation:
 ---------------------------------------------------------------------
 Center     Atomic      Atomic             Coordinates (Angstroms)
 Number     Number       Type             X           Y           Z
 ---------------------------------------------------------------------
      1         12           0        0.675385    0.073582   -0.171528
      2          6           0       -2.762374    0.019087    0.334634
      3          6           0        0.776172   -3.264947    0.268446
      4          6           0        4.041163    0.241458    0.115681
      5          6           0        0.596074    3.595294    0.209260
      6          7           0       -0.865818   -1.356938    0.156676
      7          6           0       -2.239614   -1.255424    0.186790
      8          6           0       -2.883667   -2.651802    0.407730
      9          6           0       -1.658555   -3.474347    0.913392
     10          6           0       -0.490293   -2.704532    0.315149
     11          6           0       -1.522300   -3.557451    2.474522
     12          6           0       -3.635786   -3.032772   -0.880593
     13          6           0       -4.961135   -3.653406   -0.651206
     14          1           0       -5.870998   -3.604935   -1.793972
     15          7           0        2.165562   -1.347987   -0.078163
     16          6           0        1.984472   -2.689147    0.035790
     17          6           0        3.233589   -3.344020   -0.261402
     18          6           0        4.214311   -2.288654   -0.311609
     19          6           0        3.487714   -1.054519    0.000865
     20          6           0        3.394096   -4.820286   -0.334139
     21          6           0        5.769614   -2.333237   -0.465155
     22          8           0        6.467862   -1.317891   -0.496900
     23          6           0        6.490123   -3.625874   -0.728830
     24          7           0        2.077542    1.697669    0.468598
     25          6           0        3.479211    1.486633    0.360068
     26          6           0        4.278818    2.743249    0.461788
     27          6           0        3.116050    3.769443    0.264732
     28          6           0        1.823665    2.957461    0.245799
     29          6           0        5.077501    2.890693    1.801046
     30          6           0        3.239631    4.607675   -1.059897
     31          6           0        3.446244    3.786336   -2.358007
     32          7           0       -0.761255    1.549921    0.088805
     33          6           0       -0.653203    2.946516    0.175766
     34          6           0       -1.970108    3.444661    0.316608
     35          6           0       -2.804747    2.334560    0.352476
     36          6           0       -2.025793    1.232156    0.224172
     37          6           0       -2.351599    4.890157    0.357344
     38          6           0       -4.123721    1.949391    0.544959
     39          8           0       -5.132157    2.651745    0.741436
     40          6           0       -4.239770    0.395260    0.539293
     41          6           0       -5.200698    0.109106   -0.656659
     42          8           0       -4.928637    0.280876   -1.858229
     43          8           0       -6.402457   -0.361862   -0.139023
     44          6           0       -7.578508   -0.471364   -1.059602
     45          1           0        0.690702   -4.323940    0.521106
     46          1           0        5.102145    0.499864    0.077939
     47          1           0        0.491892    4.678753    0.120756
     48          1           0       -3.678475   -2.588404    1.150179
     49          1           0       -1.677362   -4.461330    0.452160
     50          1           0       -2.329409   -3.106260    3.052379
     51          1           0       -0.660366   -2.984469    2.813974
     52          1           0       -1.511269   -4.606954    2.767956
     53          1           0       -3.041077   -3.819681   -1.342375
     54          1           0       -3.706676   -2.137102   -1.498317
     55          1           0       -5.428388   -3.062407    0.136682
     56          1           0       -4.808375   -4.658862   -0.259497
     57          1           0        2.436492   -5.318682   -0.483585
     58          1           0        4.021887   -5.134832    0.500231
     59          1           0        3.961591   -5.074823   -1.229338
     60          1           0        7.500315   -3.451707   -0.357619
     61          1           0        6.556445   -3.821921   -1.799249
     62          1           0        6.056521   -4.457611   -0.172711
     63          1           0        4.992922    2.880032   -0.351485
     64          1           0        3.099235    4.445940    1.119840
     65          1           0        4.628326    2.241506    2.553129
     66          1           0        5.116176    3.886662    2.242519
     67          1           0        6.131371    2.613737    1.761246
     68          1           0        4.028854    5.336742   -0.875558
     69          1           0        2.318155    5.189638   -1.073604
     70          1           0        2.656289    3.953028   -3.090596
     71          1           0        3.488916    2.738381   -2.059939
     72          1           0        4.381682    4.026133   -2.862645
     73          1           0       -2.904522    5.022502    1.287280
     74          1           0       -2.937001    5.103274   -0.537063
     75          1           0       -1.520499    5.592745    0.419773
     76          1           0       -4.726929    0.088397    1.464445
     77          1           0       -7.765238    0.536266   -1.430280
     78          1           0       -8.513202   -0.849366   -0.645517
     79          1           0       -7.113298   -1.139014   -1.784862
 ---------------------------------------------------------------------

 SCF Done:  E(RPBE1PBE) =  -2033.69361504     A.U. after   16 cycles

 Excitation energies and oscillator strengths:

 Excited State   1:      Singlet-A      1.8237 eV  679.86 nm  f=0.3617  <S**2>=0.000
     155 ->158         0.15445
     156 ->157         0.69683
     156 <-157        -0.11765
 This state for optimization and/or second-order correction.
 Total Energy, E(TD-HF/TD-DFT) =  -2033.62659600
 Copying the excited state density for this state as the 1-particle RhoCI density.

 Excited State   2:      Singlet-A      2.2325 eV  555.36 nm  f=0.1214  <S**2>=0.000
     155 ->157         0.65176
     156 ->158        -0.24370

 Excited State   3:      Singlet-A      2.7132 eV  456.96 nm  f=0.0005  <S**2>=0.000
     154 ->157         0.68237
     154 ->159         0.12775
     154 ->160        -0.11938

 Excited State   4:      Singlet-A      2.9134 eV  425.57 nm  f=0.0031  <S**2>=0.000
     152 ->157        -0.15675
     153 ->157         0.67893

 Excited State   5:      Singlet-A      2.9994 eV  413.37 nm  f=0.0083  <S**2>=0.000
     151 ->157         0.12316
     152 ->157         0.66275
     153 ->157         0.13068
     156 ->158         0.11179

 The electronic state is 1-A.
 Alpha  occ. eigenvalues --  -46.91715 -19.25405 -19.20229 -19.18993 -19.17863
 Alpha  occ. eigenvalues --  -14.41551 -14.40928 -14.39029 -14.38159 -10.37071
 Alpha  occ. eigenvalues --  -10.32469 -10.30735 -10.29173 -10.28665 -10.28372
 Alpha  occ. eigenvalues --  -10.28134 -10.28008 -10.27864 -10.26956 -10.26947
 Alpha  occ. eigenvalues --  -10.26140 -10.26012 -10.25937 -10.25771 -10.25718
 Alpha  occ. eigenvalues --  -10.25514 -10.25397 -10.25330 -10.25001 -10.24988
 Alpha  occ. eigenvalues --  -10.24847 -10.24482 -10.24275 -10.24191 -10.24022
 Alpha  occ. eigenvalues --  -10.23905 -10.23594 -10.23359 -10.23300 -10.23238
 Alpha  occ. eigenvalues --  -10.23099 -10.22980 -10.21391  -3.13889  -1.86709
 Alpha  occ. eigenvalues --   -1.86266  -1.86114  -1.09146  -1.04233  -1.02618
 Alpha  occ. eigenvalues --   -1.01444  -0.99446  -0.98599  -0.98165  -0.96855
 Alpha  occ. eigenvalues --   -0.86888  -0.83462  -0.83311  -0.82895  -0.82115
 Alpha  occ. eigenvalues --   -0.81436  -0.80846  -0.78887  -0.77798  -0.76464
 Alpha  occ. eigenvalues --   -0.75798  -0.75253  -0.74722  -0.72554  -0.71368
 Alpha  occ. eigenvalues --   -0.71215  -0.70333  -0.69826  -0.67678  -0.66473
 Alpha  occ. eigenvalues --   -0.64134  -0.63189  -0.61980  -0.60940  -0.59854
 Alpha  occ. eigenvalues --   -0.59081  -0.59025  -0.58560  -0.56158  -0.54457
 Alpha  occ. eigenvalues --   -0.54310  -0.53763  -0.53107  -0.52170  -0.51353
 Alpha  occ. eigenvalues --   -0.50560  -0.50142  -0.49876  -0.49458  -0.49303
 Alpha  occ. eigenvalues --   -0.48062  -0.47648  -0.47551  -0.47430  -0.47018
 Alpha  occ. eigenvalues --   -0.46489  -0.46113  -0.46028  -0.45058  -0.44942
 Alpha  occ. eigenvalues --   -0.44135  -0.44034  -0.43831  -0.43592  -0.43368
 Alpha  occ. eigenvalues --   -0.43182  -0.42738  -0.42655  -0.42335  -0.42061
 Alpha  occ. eigenvalues --   -0.41673  -0.41326  -0.41044  -0.40701  -0.40537
 Alpha  occ. eigenvalues --   -0.40266  -0.39376  -0.39162  -0.38943  -0.38524
 Alpha  occ. eigenvalues --   -0.38311  -0.38222  -0.37970  -0.37846  -0.37587
 Alpha  occ. eigenvalues --   -0.37110  -0.36782  -0.36541  -0.36381  -0.35970
 Alpha  occ. eigenvalues --   -0.35761  -0.35486  -0.35104  -0.34877  -0.34001
 Alpha  occ. eigenvalues --   -0.33205  -0.33026  -0.32396  -0.31915  -0.31626
 Alpha  occ. eigenvalues --   -0.30997  -0.29300  -0.29106  -0.28712  -0.26992
 Alpha  occ. eigenvalues --   -0.25654  -0.25316  -0.25028  -0.24798  -0.21164
 Alpha  occ. eigenvalues --   -0.18842
 Alpha virt. eigenvalues --   -0.11426  -0.05132  -0.03665  -0.02019  -0.00507
 Alpha virt. eigenvalues --    0.00380   0.00729   0.02570   0.03435   0.04442
 Alpha virt. eigenvalues --    0.04580   0.05793   0.06475   0.07057   0.07463

 Mulliken charges:
               1
     1  Mg   0.952259
     2  C   -0.062251
     3  C   -0.106646
     4  C   -0.018023
     5  C   -0.087270
     6  N   -0.447097
     7  C    0.058788
     8  C   -0.126286
     9  C   -0.124516
    10  C    0.061015
    11  C    0.031297
    12  C    0.028915
    13  C   -0.146308
    14  H    0.061343
    15  N   -0.494605
    16  C    0.238666
    17  C   -0.186708
    18  C   -0.078939
    19  C    0.203326
    20  C    0.059114
    21  C    0.055028
    22  O   -0.256620
    23  C   -0.016200
    24  N   -0.359992
    25  C   -0.035300
    26  C   -0.085473
    27  C   -0.130801
    28  C    0.134989
    29  C    0.011637
    30  C   -0.036286
    31  C   -0.073885
    32  N   -0.473527
    33  C    0.128968
    34  C   -0.203930
    35  C    0.049310
    36  C    0.213127
    37  C    0.084353
    38  C    0.027755
    39  O   -0.257363
    40  C   -0.067910
    41  C    0.314217
    42  O   -0.276687
    43  O   -0.391544
    44  C    0.125666
    45  H    0.005666
    46  H    0.023158
    47  H    0.009512
    48  H    0.037429
    49  H    0.030853
    50  H    0.041898
    51  H    0.061131
    52  H    0.049637
    53  H    0.029463
    54  H    0.078019
    55  H    0.051679
    56  H    0.045545
    57  H    0.044218
    58  H    0.071992
    59  H    0.049030
    60  H    0.055381
    61  H    0.076593
    62  H    0.032320
    63  H    0.060136
    64  H    0.043163
    65  H    0.047912
    66  H    0.039721
    67  H    0.049671
    68  H    0.039690
    69  H    0.035555
    70  H    0.052106
    71  H    0.059717
    72  H    0.047601
    73  H    0.062666
    74  H    0.071822
    75  H    0.023191
    76  H    0.070575
    77  H    0.071946
    78  H    0.071569
    79  H    0.063827
 Sum of Mulliken charges =  -0.00000

 Dipole moment (field-independent basis, Debye):
    X=              1.7450    Y=             -3.1598    Z=              0.5145  Tot=              3.6461
 Quadrupole moment (field-independent basis, Debye-Ang):
   XX=           -266.2894   YY=           -223.0315   ZZ=           -257.0997
   XY=             22.3585   XZ=              0.9612   YZ=             -2.9659

 Normal termination of Gaussian 16 at Wed Oct 13 13:44:18 2021.
