 Gaussian 16, Revision A.03,
 Gaussian 16:  ES64L-G16RevA.03 25-Dec-2016

 --------------------------------------------------------
 #p PBE1PBE/Def2SVP td=(nstates=5) density=(transition=1)
 --------------------------------------------------------

 --------------------------------
 TDDFT excited states in gaussian
 --------------------------------
 Symbolic Z-matrix:
 Charge =  0 Multiplicity = 1

                         Standard orientation:
 ---------------------------------------------------------------------
 Center     Atomic      Atomic             Coordinates (Angstroms)
 Number     Number       Type             X           Y           Z
 ---------------------------------------------------------------------
      1         12           0      -22.002977   -0.726123   -0.083199
      2          6           0      -23.724297    2.047655    1.280311
      3          6           0      -19.898675    1.465258   -1.720709
      4          6           0      -20.560006   -3.388618   -1.603257
      5          6           0      -24.295531   -2.905363    1.428261
      6          7           0      -21.978970    1.483416   -0.222388
      7          6           0      -22.622993    2.421712    0.580655
      8          6           0      -22.081256    3.884605    0.308846
      9          6           0      -21.072416    3.640320   -0.844879
     10          6           0      -20.992227    2.105171   -1.000731
     11          6           0      -21.353402    4.325890   -2.234186
     12          6           0      -21.582427    4.703669    1.569007
     13          6           0      -22.309621    5.989252    1.823626
     14          1           0      -21.432913    7.187070    2.365017
     15          7           0      -20.485863   -0.875888   -1.441481
     16          6           0      -19.677488    0.113531   -1.963331
     17          6           0      -18.724600   -0.478640   -2.889093
     18          6           0      -18.872910   -1.894548   -2.890845
     19          6           0      -20.008610   -2.126485   -1.924354
     20          6           0      -17.613940    0.313166   -3.608222
     21          6           0      -18.078080   -2.965761   -3.630607
     22          8           0      -18.247907   -4.158196   -3.480176
     23          6           0      -16.864664   -2.662795   -4.602111
     24          7           0      -22.447559   -2.864011   -0.156074
     25          6           0      -21.710297   -3.726846   -0.842983
     26          6           0      -22.206912   -5.205016   -0.657241
     27          6           0      -23.293833   -5.056713    0.479789
     28          6           0      -23.351235   -3.506530    0.631197
     29          6           0      -22.647548   -5.845910   -2.005034
     30          6           0      -22.926755   -5.835729    1.727315
     31          6           0      -24.100387   -6.573170    2.369575
     32          7           0      -23.770133   -0.574726    1.009300
     33          6           0      -24.543119   -1.530041    1.640980
     34          6           0      -25.634503   -0.848871    2.266596
     35          6           0      -25.361146    0.540189    2.207320
     36          6           0      -24.192003    0.690021    1.410433
     37          6           0      -26.788104   -1.487755    2.942180
     38          6           0      -25.793853    1.866018    2.682335
     39          8           0      -26.793393    2.251596    3.281624
     40          6           0      -24.610943    2.940400    2.060978
     41          6           0      -25.243524    3.940744    1.259076
     42          8           0      -25.223434    3.968179    0.047625
     43          8           0      -25.764432    4.941939    2.047260
     44          6           0      -26.481555    5.975609    1.259883
     45          1           0      -19.136334    2.114295   -2.157079
     46          1           0      -20.165831   -4.276226   -2.101445
     47          1           0      -24.909011   -3.655697    1.932642
     48          1           0      -22.905117    4.379861   -0.203907
     49          1           0      -20.073926    3.970986   -0.558755
     50          1           0      -20.389896    4.672189   -2.609431
     51          1           0      -22.053848    5.145932   -2.077966
     52          1           0      -21.786912    3.663051   -2.983323
     53          1           0      -20.514694    4.861136    1.415900
     54          1           0      -21.753758    4.071381    2.440356
     55          1           0      -23.089200    5.828592    2.569463
     56          1           0      -22.758147    6.220657    0.857924
     57          1           0      -16.683864   -0.048423   -3.171126
     58          1           0      -17.667409    1.357476   -3.299638
     59          1           0      -17.556539    0.178193   -4.689024
     60          1           0      -16.123195   -2.091177   -4.042880
     61          1           0      -17.185694   -2.310753   -5.582919
     62          1           0      -16.527372   -3.646866   -4.926215
     63          1           0      -21.448569   -5.869437   -0.243527
     64          1           0      -24.235913   -5.372786    0.031378
     65          1           0      -23.640148   -6.276677   -1.870523
     66          1           0      -21.925144   -6.559762   -2.401630
     67          1           0      -22.723486   -5.073602   -2.768704
     68          1           0      -22.458522   -5.205567    2.482749
     69          1           0      -22.138557   -6.575236    1.577696
     70          1           0      -25.049846   -6.276410    1.923854
     71          1           0      -24.111497   -6.271549    3.417330
     72          1           0      -23.952882   -7.653044    2.391119
     73          1           0      -26.824090   -2.577085    2.950595
     74          1           0      -27.671841   -0.941716    2.609908
     75          1           0      -26.551892   -1.349306    3.997505
     76          1           0      -24.090029    3.412651    2.894369
     77          1           0      -27.305005    5.517451    0.711603
     78          1           0      -25.725163    6.461732    0.643776
     79          1           0      -26.948563    6.736515    1.883988
     80         12           0       22.268581   -0.657068    0.487913
     81          6           0       21.396333    2.288726   -1.393647
     82          6           0       22.817794    1.259886    3.167362
     83          6           0       23.876799   -3.268132    1.839478
     84          6           0       22.097292   -2.419427   -2.540124
     85          7           0       22.172073    1.493044    0.803368
     86          6           0       21.616699    2.491962   -0.014319
     87          6           0       21.416077    3.838622    0.779920
     88          6           0       21.943451    3.472002    2.200143
     89          6           0       22.286156    1.963330    2.078262
     90          6           0       23.103225    4.272561    2.735894
     91          6           0       19.889711    4.382355    0.718315
     92          6           0       19.731762    5.836168    0.256116
     93          1           0       19.002828    6.763042    1.298670
     94          7           0       23.099167   -1.002502    2.325492
     95          6           0       23.249112   -0.105003    3.304879
     96          6           0       23.923821   -0.684037    4.467886
     97          6           0       24.313030   -1.993254    4.019101
     98          6           0       23.777982   -2.146595    2.662158
     99          6           0       24.132283    0.041822    5.727211
    100          6           0       25.224986   -2.956611    4.841962
    101          8           0       25.482853   -4.085839    4.460007
    102          6           0       25.822966   -2.577418    6.159159
    103          7           0       22.865329   -2.504067   -0.239369
    104          6           0       23.419972   -3.482873    0.578245
    105          6           0       23.600190   -4.827483   -0.200041
    106          6           0       22.701904   -4.613850   -1.475099
    107          6           0       22.483286   -3.102552   -1.407664
    108          6           0       25.056554   -5.344458   -0.437009
    109          6           0       21.353274   -5.383662   -1.439568
    110          6           0       20.845899   -6.014628   -2.711642
    111          7           0       21.889967   -0.188935   -1.569361
    112          6           0       21.859240   -1.009559   -2.660964
    113          6           0       21.346253   -0.209062   -3.857156
    114          6           0       21.107129    1.061912   -3.393285
    115          6           0       21.518476    1.045991   -2.016402
    116          6           0       21.079339   -0.836582   -5.206385
    117          6           0       20.675476    2.410713   -3.714080
    118          8           0       20.284358    2.769860   -4.844364
    119          6           0       20.941492    3.346049   -2.389578
    120          6           0       22.018841    4.396639   -2.560237
    121          8           0       23.161518    4.082814   -2.948385
    122          8           0       21.527844    5.694890   -2.415740
    123          6           0       22.427872    6.692852   -2.981938
    124          1           0       22.913040    1.804162    4.109025
    125          1           0       24.354781   -4.087785    2.379374
    126          1           0       21.950260   -3.059911   -3.412793
    127          1           0       22.059564    4.528689    0.234535
    128          1           0       21.146723    3.785029    2.876332
    129          1           0       23.481035    5.009009    2.026538
    130          1           0       23.863207    3.492040    2.748838
    131          1           0       22.871532    4.802596    3.660226
    132          1           0       19.543140    4.234762    1.740778
    133          1           0       19.292235    3.691735    0.123789
    134          1           0       19.236605    5.801082   -0.714289
    135          1           0       20.720055    6.272389    0.105366
    136          1           0       25.136594    0.154652    6.134340
    137          1           0       23.736896   -0.626898    6.490944
    138          1           0       23.522392    0.935584    5.860645
    139          1           0       24.969743   -2.382245    6.809895
    140          1           0       26.332316   -1.625690    6.005337
    141          1           0       26.467904   -3.409441    6.439031
    142          1           0       23.112571   -5.560957    0.442143
    143          1           0       23.239443   -4.787857   -2.406935
    144          1           0       25.677417   -4.664169    0.145505
    145          1           0       25.341111   -5.417703   -1.486269
    146          1           0       25.243827   -6.291351    0.070884
    147          1           0       20.721738   -4.551015   -1.130389
    148          1           0       21.279372   -6.142119   -0.659953
    149          1           0       20.467763   -6.994500   -2.419922
    150          1           0       21.631043   -6.182907   -3.449458
    151          1           0       19.957755   -5.447226   -2.990865
    152          1           0       21.358999   -1.887292   -5.131771
    153          1           0       21.767318   -0.394344   -5.926602
    154          1           0       20.047893   -0.644541   -5.501230
    155          1           0       19.989729    3.778211   -2.080560
    156          1           0       22.065647    7.190776   -3.880293
    157          1           0       23.428475    6.318688   -3.198962
    158          1           0       22.554371    7.454733   -2.213189
 ---------------------------------------------------------------------

 SCF Done:  E(RPBE1PBE) =  -4067.36361303     A.U. after   16 cycles

 Excitation energies and oscillator strengths:

 Excited State   1:      Singlet-A      1.8518 eV  669.54 nm  f=0.4027  <S**2>=0.000
     309 -> 316       -0.16675
     312 -> 314        0.69618
     312 <- 314       -0.11424
 This state for optimization and/or second-order correction.
 Total Energy, E(TD-HF/TD-DFT) =  -4067.29556137
 Copying the excited state density for this state as the 1-particle RhoCI density.

 Excited State   2:      Singlet-A      1.8744 eV  661.47 nm  f=0.3649  <S**2>=0.000
     310 -> 315       -0.17471
     311 -> 313        0.69049

 Excited State   3:      Singlet-A      1.9268 eV  643.47 nm  f=0.0000  <S**2>=0.000
     312 -> 313        0.70711

 Excited State   4:      Singlet-A      2.0793 eV  596.28 nm  f=0.0000  <S**2>=0.000
     311 -> 314        0.70711

 Excited State   5:      Singlet-A      2.2446 eV  552.37 nm  f=0.1088  <S**2>=0.000
     310 -> 313        0.65154
     311 -> 315        0.26013

 The electronic state is 1-A.
 Alpha  occ. eigenvalues --  -46.91840 -46.91678 -19.27267 -19.25030 -19.20999
 Alpha  occ. eigenvalues --  -19.20066 -19.19993 -19.19772 -19.19524 -19.18904
 Alpha  occ. eigenvalues --  -14.42097 -14.41820 -14.41264 -14.41253 -14.39897
 Alpha  occ. eigenvalues --  -14.39300 -14.39104 -14.38675 -10.37768 -10.35352
 Alpha  occ. eigenvalues --  -10.33583 -10.33476 -10.33263 -10.32223 -10.29971
 Alpha  occ. eigenvalues --  -10.29335 -10.29318 -10.28928 -10.28830 -10.28728
 Alpha  occ. eigenvalues --  -10.28543 -10.28341 -10.28287 -10.28206 -10.28040
 Alpha  occ. eigenvalues --  -10.27997 -10.27860 -10.27639 -10.27471 -10.27406
 Alpha  occ. eigenvalues --  -10.27382 -10.26800 -10.26757 -10.26752 -10.26503
 Alpha  occ. eigenvalues --  -10.26428 -10.26394 -10.26215 -10.26174 -10.26107
 Alpha  occ. eigenvalues --  -10.25802 -10.25752 -10.25695 -10.25551 -10.25476
 Alpha  occ. eigenvalues --  -10.25390 -10.25377 -10.25360 -10.25298 -10.25238
 Alpha  occ. eigenvalues --  -10.25144 -10.25137 -10.25113 -10.25087 -10.24904
 Alpha  occ. eigenvalues --  -10.24663 -10.24648 -10.24403 -10.24178 -10.24120
 Alpha  occ. eigenvalues --  -10.24042 -10.23769 -10.23689 -10.23648 -10.23561
 Alpha  occ. eigenvalues --  -10.23556 -10.23492 -10.23327 -10.23243 -10.23119
 Alpha  occ. eigenvalues --  -10.23082 -10.23017 -10.22967 -10.22916 -10.22873
 Alpha  occ. eigenvalues --  -10.22807  -3.14066  -3.13787  -1.86888  -1.86635
 Alpha  occ. eigenvalues --   -1.86424  -1.86316  -1.86154  -1.86018  -1.11022
 Alpha  occ. eigenvalues --   -1.10681  -1.05956  -1.04988  -1.04354  -1.03675
 Alpha  occ. eigenvalues --   -1.02668  -1.02320  -0.98717  -0.98603  -0.98017
 Alpha  occ. eigenvalues --   -0.97268  -0.97018  -0.96657  -0.96554  -0.95663
 Alpha  occ. eigenvalues --   -0.86908  -0.86389  -0.83465  -0.83465  -0.83034
 Alpha  occ. eigenvalues --   -0.82681  -0.82412  -0.82227  -0.81657  -0.81598
 Alpha  occ. eigenvalues --   -0.81270  -0.81205  -0.80420  -0.80270  -0.78627
 Alpha  occ. eigenvalues --   -0.78604  -0.77998  -0.77943  -0.77006  -0.76810
 Alpha  occ. eigenvalues --   -0.76195  -0.75525  -0.75360  -0.75023  -0.74580
 Alpha  occ. eigenvalues --   -0.74183  -0.72847  -0.72502  -0.71934  -0.71319
 Alpha  occ. eigenvalues --   -0.71235  -0.70820  -0.70508  -0.70117  -0.69169
 Alpha  occ. eigenvalues --   -0.69096  -0.66879  -0.66816  -0.65759  -0.65477
 Alpha  occ. eigenvalues --   -0.63444  -0.63340  -0.63267  -0.62816  -0.62217
 Alpha  occ. eigenvalues --   -0.62002  -0.61542  -0.61219  -0.60072  -0.59779
 Alpha  occ. eigenvalues --   -0.59504  -0.59439  -0.59360  -0.59070  -0.58980
 Alpha  occ. eigenvalues --   -0.58920  -0.57166  -0.55809  -0.54942  -0.54424
 Alpha  occ. eigenvalues --   -0.54303  -0.53822  -0.53317  -0.53317  -0.53160
 Alpha  occ. eigenvalues --   -0.52924  -0.52627  -0.52415  -0.51979  -0.51804
 Alpha  occ. eigenvalues --   -0.50884  -0.50510  -0.50296  -0.49955  -0.49672
 Alpha  occ. eigenvalues --   -0.49394  -0.49347  -0.48891  -0.48401  -0.48326
 Alpha  occ. eigenvalues --   -0.48188  -0.47754  -0.47729  -0.47658  -0.47251
 Alpha  occ. eigenvalues --   -0.47235  -0.47178  -0.46910  -0.46789  -0.46458
 Alpha  occ. eigenvalues --   -0.46315  -0.46225  -0.46073  -0.46067  -0.45947
 Alpha  occ. eigenvalues --   -0.45739  -0.45656  -0.45385  -0.45340  -0.45234
 Alpha  occ. eigenvalues --   -0.44925  -0.44874  -0.44262  -0.44162  -0.44125
 Alpha  occ. eigenvalues --   -0.44001  -0.43975  -0.43884  -0.43426  -0.43323
 Alpha  occ. eigenvalues --   -0.43274  -0.43008  -0.42931  -0.42826  -0.42749
 Alpha  occ. eigenvalues --   -0.42696  -0.42642  -0.42411  -0.41959  -0.41935
 Alpha  occ. eigenvalues --   -0.41725  -0.41542  -0.41476  -0.41203  -0.41177
 Alpha  occ. eigenvalues --   -0.40922  -0.40859  -0.40835  -0.40714  -0.40461
 Alpha  occ. eigenvalues --   -0.40301  -0.40116  -0.39959  -0.39681  -0.39394
 Alpha  occ. eigenvalues --   -0.39343  -0.39204  -0.39127  -0.38916  -0.38909
 Alpha  occ. eigenvalues --   -0.38884  -0.38702  -0.38631  -0.38480  -0.38451
 Alpha  occ. eigenvalues --   -0.38190  -0.37962  -0.37946  -0.37862  -0.37640
 Alpha  occ. eigenvalues --   -0.37552  -0.37488  -0.37412  -0.37218  -0.36921
 Alpha  occ. eigenvalues --   -0.36657  -0.36606  -0.36343  -0.36096  -0.36028
 Alpha  occ. eigenvalues --   -0.35688  -0.35550  -0.35452  -0.35211  -0.35104
 Alpha  occ. eigenvalues --   -0.34929  -0.34619  -0.34452  -0.34376  -0.34088
 Alpha  occ. eigenvalues --   -0.33659  -0.33325  -0.32841  -0.32660  -0.32493
 Alpha  occ. eigenvalues --   -0.32290  -0.32259  -0.31948  -0.31546  -0.31260
 Alpha  occ. eigenvalues --   -0.31166  -0.31010  -0.29845  -0.29666  -0.29326
 Alpha  occ. eigenvalues --   -0.28993  -0.28726  -0.28571  -0.27147  -0.27114
 Alpha  occ. eigenvalues --   -0.26389  -0.26209  -0.25936  -0.25908  -0.25635
 Alpha  occ. eigenvalues --   -0.25596  -0.25463  -0.24687  -0.21091  -0.20951
 Alpha  occ. eigenvalues --   -0.18893  -0.18479
 Alpha virt. eigenvalues --   -0.11100  -0.10960  -0.05340  -0.04874  -0.04311
 Alpha virt. eigenvalues --   -0.04139  -0.02365  -0.02285  -0.01722  -0.00832
 Alpha virt. eigenvalues --    0.00107   0.00216   0.00334   0.01111   0.01265

 Mulliken charges:
               1
     1  Mg  12.000116
     2  C    5.999535
     3  C    6.000087
     4  C    6.000303
     5  C    5.999859
     6  N    6.999758
     7  C    6.000533
     8  C    5.999833
     9  C    6.000153
    10  C    5.999422
    11  C    6.000095
    12  C    5.999971
    13  C    5.999952
    14  H    1.000104
    15  N    7.000024
    16  C    5.999412
    17  C    5.999690
    18  C    5.999694
    19  C    5.999577
    20  C    6.000044
    21  C    5.999750
    22  O    7.999592
    23  C    6.000039
    24  N    7.000025
    25  C    5.999467
    26  C    6.000173
    27  C    5.999797
    28  C    6.000507
    29  C    6.000051
    30  C    5.999910
    31  C    5.999993
    32  N    6.999990
    33  C    6.000644
    34  C    6.000478
    35  C    6.000011
    36  C    6.000623
    37  C    5.999943
    38  C    6.000264
    39  O    8.000499
    40  C    6.000226
    41  C    5.999992
    42  O    8.000213
    43  O    7.999994
    44  C    5.999953
    45  H    0.999773
    46  H    0.999904
    47  H    1.000205
    48  H    1.000059
    49  H    0.999949
    50  H    0.999953
    51  H    0.999744
    52  H    0.999973
    53  H    1.000132
    54  H    0.999927
    55  H    0.999934
    56  H    1.000026
    57  H    0.999667
    58  H    0.999703
    59  H    0.999642
    60  H    0.999877
    61  H    0.999805
    62  H    0.999750
    63  H    0.999993
    64  H    1.000053
    65  H    0.999848
    66  H    1.000026
    67  H    1.000043
    68  H    1.000028
    69  H    1.000192
    70  H    0.999956
    71  H    1.000000
    72  H    1.000115
    73  H    1.000365
    74  H    1.000320
    75  H    1.000394
    76  H    1.000132
    77  H    1.000025
    78  H    1.000097
    79  H    1.000092
    80  Mg  11.997890
    81  C    5.980058
    82  C    6.014964
    83  C    6.012632
    84  C    5.982364
    85  N    6.994033
    86  C    6.033565
    87  C    5.991150
    88  C    6.012037
    89  C    5.967932
    90  C    6.000914
    91  C    5.995784
    92  C    5.997025
    93  H    1.009751
    94  N    7.004168
    95  C    5.962264
    96  C    5.977208
    97  C    5.988712
    98  C    5.963808
    99  C    6.005824
   100  C    5.987957
   101  O    7.976860
   102  C    6.001763
   103  N    6.999610
   104  C    5.971796
   105  C    6.007391
   106  C    5.991136
   107  C    6.029746
   108  C    5.998193
   109  C    5.998939
   110  C    5.997806
   111  N    7.002258
   112  C    6.038487
   113  C    6.032588
   114  C    6.000407
   115  C    6.030256
   116  C    5.997029
   117  C    6.019198
   118  O    8.028466
   119  C    6.004588
   120  C    6.005958
   121  O    8.004101
   122  O    8.002962
   123  C    5.996773
   124  H    0.991555
   125  H    0.992075
   126  H    1.008605
   127  H    1.000515
   128  H    0.994650
   129  H    0.988222
   130  H    1.006150
   131  H    0.997830
   132  H    1.010359
   133  H    0.995688
   134  H    0.996188
   135  H    1.001672
   136  H    0.978310
   137  H    0.981575
   138  H    0.982229
   139  H    0.994723
   140  H    0.995080
   141  H    0.986451
   142  H    1.000112
   143  H    0.998867
   144  H    1.005114
   145  H    0.989071
   146  H    0.998570
   147  H    0.999317
   148  H    1.011153
   149  H    1.004680
   150  H    1.000936
   151  H    0.996121
   152  H    1.018559
   153  H    1.019340
   154  H    1.018092
   155  H    1.008711
   156  H    1.002941
   157  H    1.003386
   158  H    1.006805
 Sum of Mulliken charges = 624.00000

 Dipole moment (field-independent basis, Debye):
    X=             -3.9640    Y=              2.6745    Z=             -9.5828  Tot=             10.7096
 Quadrupole moment (field-independent basis, Debye-Ang):
   XX=           -166.4171   YY=              1.9341   ZZ=             -6.4907
   XY=             62.4595   XZ=           -224.3999   YZ=              3.8939

 Normal termination of Gaussian 16 at Fri Oct 15 13:51:41 2021.
