 Gaussian 16, Revision A.03,
 Gaussian 16:  ES64L-G16RevA.03 25-Dec-2016

 --------------------------------------------------------
 #p PBE1PBE/Def2SVP td=(nstates=5) density=(transition=1)
 --------------------------------------------------------

 --------------------------------
 TDDFT excited states in gaussian
 --------------------------------
 Symbolic Z-matrix:
 Charge =  0 Multiplicity = 1

                         Standard orientation:
 ---------------------------------------------------------------------
 Center     Atomic      Atomic             Coordinates (Angstroms)
 Number     Number       Type             X           Y           Z
 ---------------------------------------------------------------------
      1         12           0       17.673284   -0.096900    0.276394
      2          6           0       15.000379   -0.976887   -1.639643
      3          6           0       18.532765    2.164927   -2.208495
      4          6           0       20.077440    1.031983    2.330233
      5          6           0       16.348934   -1.910740    2.985979
      6          7           0       16.691832    0.697875   -1.593648
      7          6           0       15.618078    0.113081   -2.161490
      8          6           0       15.174757    0.811756   -3.394656
      9          6           0       16.582422    1.596516   -3.762259
     10          6           0       17.358201    1.497186   -2.431911
     11          6           0       17.309388    0.987585   -4.997458
     12          6           0       14.043629    1.771873   -3.062264
     13          6           0       14.264323    2.876559   -1.927936
     14          1           0       13.720202    4.288018   -2.109912
     15          7           0       19.100539    1.380719    0.100094
     16          6           0       19.393921    2.126860   -1.069298
     17          6           0       20.617498    2.816007   -0.828290
     18          6           0       21.072827    2.570553    0.461196
     19          6           0       20.127237    1.602704    1.042321
     20          6           0       21.183007    3.672777   -1.942711
     21          6           0       22.245909    3.213624    1.161600
     22          8           0       22.885539    4.058208    0.486495
     23          6           0       22.556455    3.107702    2.547738
     24          7           0       18.000844   -0.244845    2.433723
     25          6           0       19.121689    0.272911    3.013329
     26          6           0       19.186018   -0.074865    4.519853
     27          6           0       17.959056   -1.031016    4.699652
     28          6           0       17.344390   -1.012639    3.310318
     29          6           0       20.508936   -0.675051    4.945551
     30          6           0       16.967918   -0.500102    5.867262
     31          6           0       16.429463   -1.606889    6.781083
     32          7           0       15.984522   -1.274614    0.689409
     33          6           0       15.671969   -2.098746    1.722732
     34          6           0       14.601870   -2.946567    1.272218
     35          6           0       14.279139   -2.607899   -0.087430
     36          6           0       15.142268   -1.562528   -0.371435
     37          6           0       13.775586   -3.827004    2.145918
     38          6           0       13.426854   -2.797795   -1.216851
     39          8           0       12.536235   -3.654162   -1.286076
     40          6           0       13.883111   -1.789089   -2.254740
     41          6           0       14.287609   -2.521814   -3.479195
     42          8           0       13.485734   -3.254985   -4.023646
     43          8           0       15.535236   -2.221759   -3.934136
     44          6           0       15.937102   -2.921755   -5.155785
     45          1           0       18.953711    2.661943   -3.084852
     46          1           0       20.991469    1.226630    2.894837
     47          1           0       15.980059   -2.634350    3.716330
     48          1           0       14.808822    0.208236   -4.225353
     49          1           0       16.380823    2.602246   -4.133287
     50          1           0       17.434475    1.747751   -5.767696
     51          1           0       16.653996    0.213880   -5.398269
     52          1           0       18.271726    0.523719   -4.777178
     53          1           0       13.157260    1.165391   -2.875040
     54          1           0       13.790595    2.172278   -4.043899
     55          1           0       15.301820    3.087093   -1.668031
     56          1           0       13.699696    2.451613   -1.098557
     57          1           0       20.681349    4.636078   -1.848670
     58          1           0       20.901531    3.236264   -2.900192
     59          1           0       22.264316    3.813365   -1.945246
     60          1           0       23.053883    4.003349    2.921208
     61          1           0       23.067340    2.180768    2.811469
     62          1           0       21.590882    3.155751    3.049357
     63          1           0       19.003633    0.886691    5.000964
     64          1           0       18.314092   -2.050176    4.851283
     65          1           0       21.265702   -0.682220    4.161559
     66          1           0       20.555306   -1.631408    5.465748
     67          1           0       20.918364    0.100017    5.594082
     68          1           0       16.092315    0.031802    5.494962
     69          1           0       17.436244    0.266513    6.484318
     70          1           0       16.926034   -1.517171    7.746864
     71          1           0       16.747415   -2.567327    6.374859
     72          1           0       15.349372   -1.556851    6.919794
     73          1           0       14.252508   -4.712675    2.563989
     74          1           0       12.919290   -4.111201    1.533128
     75          1           0       13.409020   -3.302068    3.028125
     76          1           0       13.013231   -1.170421   -2.477252
     77          1           0       15.203739   -2.688863   -5.928355
     78          1           0       16.072292   -3.994500   -5.016868
     79          1           0       16.954836   -2.650856   -5.436349
     80         12           0      -17.774532    0.557046    0.324554
     81          6           0      -14.710658   -0.955969   -0.421371
     82          6           0      -19.014487   -2.647000    0.808902
     83          6           0      -20.717167    1.912555    0.597981
     84          6           0      -16.309434    3.686271   -0.453336
     85          7           0      -17.040061   -1.626213   -0.190024
     86          6           0      -15.746636   -1.943078   -0.308640
     87          6           0      -15.638850   -3.431096   -0.279689
     88          6           0      -17.099895   -3.941793   -0.325554
     89          6           0      -17.793257   -2.682601    0.155580
     90          6           0      -17.675805   -4.487520   -1.633404
     91          6           0      -14.886333   -3.937034    0.991769
     92          6           0      -13.727473   -4.972296    0.824859
     93          1           0      -13.773676   -5.980815   -0.365164
     94          7           0      -19.627981   -0.261019    0.813689
     95          6           0      -19.848925   -1.589768    1.150987
     96          6           0      -21.214073   -1.683976    1.554813
     97          6           0      -21.800984   -0.366770    1.381467
     98          6           0      -20.733826    0.512623    0.927895
     99          6           0      -21.922359   -2.996639    1.955244
    100          6           0      -23.276578    0.096533    1.550273
    101          8           0      -23.659867    1.207527    1.362664
    102          6           0      -24.248747   -0.953692    2.050573
    103          7           0      -18.376286    2.516734    0.109527
    104          6           0      -19.690227    2.817275    0.212565
    105          6           0      -20.010138    4.323993    0.009998
    106          6           0      -18.534099    4.908437   -0.058241
    107          6           0      -17.658630    3.662070   -0.112683
    108          6           0      -20.932668    4.543877   -1.323126
    109          6           0      -18.217080    5.947288    1.062960
    110          6           0      -17.470874    5.459908    2.292018
    111          7           0      -15.879731    1.312642   -0.280624
    112          6           0      -15.426323    2.590946   -0.464789
    113          6           0      -13.961004    2.523563   -0.801866
    114          6           0      -13.660573    1.142708   -0.788033
    115          6           0      -14.863360    0.414098   -0.506181
    116          6           0      -13.065365    3.646974   -1.248603
    117          6           0      -12.601513    0.154427   -0.977121
    118          8           0      -11.420642    0.354661   -1.275488
    119          6           0      -13.215964   -1.186852   -0.587921
    120          6           0      -12.894139   -2.124091   -1.716496
    121          8           0      -13.472797   -2.157836   -2.787022
    122          8           0      -11.770379   -2.730785   -1.371362
    123          6           0      -10.992255   -3.382334   -2.413255
    124          1           0      -19.444524   -3.650204    0.821908
    125          1           0      -21.652914    2.409123    0.861850
    126          1           0      -15.855092    4.653776   -0.678248
    127          1           0      -15.070892   -3.754829   -1.151306
    128          1           0      -17.142535   -4.787757    0.360593
    129          1           0      -16.993351   -4.531145   -2.482387
    130          1           0      -18.543408   -3.900907   -1.936771
    131          1           0      -18.012074   -5.500417   -1.413009
    132          1           0      -15.551734   -4.287286    1.780584
    133          1           0      -14.481391   -2.986560    1.338945
    134          1           0      -13.760154   -5.537952    1.756878
    135          1           0      -12.784488   -4.429683    0.763211
    136          1           0      -22.839339   -3.179616    1.395009
    137          1           0      -22.293132   -2.970836    2.980038
    138          1           0      -21.296909   -3.887476    1.884023
    139          1           0      -23.899113   -1.458877    2.951169
    140          1           0      -24.447916   -1.643811    1.230620
    141          1           0      -25.236771   -0.516659    2.195058
    142          1           0      -20.555012    4.752611    0.850949
    143          1           0      -18.348796    5.495512   -0.957633
    144          1           0      -20.257099    5.004728   -2.043892
    145          1           0      -21.710423    5.296874   -1.193955
    146          1           0      -21.270547    3.617239   -1.788482
    147          1           0      -19.199921    6.218140    1.448913
    148          1           0      -17.741734    6.848246    0.675656
    149          1           0      -17.951700    4.510638    2.531352
    150          1           0      -17.690159    6.257687    3.001253
    151          1           0      -16.414111    5.199617    2.237773
    152          1           0      -13.505211    4.628828   -1.423799
    153          1           0      -12.587811    3.370769   -2.188792
    154          1           0      -12.263038    3.677047   -0.512074
    155          1           0      -12.735154   -1.682297    0.255788
    156          1           0      -11.285106   -3.281695   -3.457855
    157          1           0      -11.133825   -4.439447   -2.186283
    158          1           0       -9.944248   -3.365058   -2.113864
 ---------------------------------------------------------------------

 SCF Done:  E(RPBE1PBE) =  -4067.37418389     A.U. after   16 cycles

 Excitation energies and oscillator strengths:

 Excited State   1:      Singlet-A      1.8292 eV  677.80 nm  f=0.0000  <S**2>=0.000
     312 -> 313        0.70710
 This state for optimization and/or second-order correction.
 Total Energy, E(TD-HF/TD-DFT) =  -4067.30696154
 Copying the excited state density for this state as the 1-particle RhoCI density.

 Excited State   2:      Singlet-A      1.8765 eV  660.74 nm  f=0.4342  <S**2>=0.000
     310 -> 316       -0.18188
     312 -> 314        0.68930
     312 <- 314       -0.10304

 Excited State   3:      Singlet-A      1.8908 eV  655.71 nm  f=0.3353  <S**2>=0.000
     309 -> 315        0.16948
     311 -> 313        0.69055
     311 <- 313       -0.10798

 Excited State   4:      Singlet-A      2.1569 eV  574.81 nm  f=0.0000  <S**2>=0.000
     311 -> 314        0.70710

 Excited State   5:      Singlet-A      2.2079 eV  561.56 nm  f=0.0996  <S**2>=0.000
     310 -> 314        0.65261
     312 -> 316        0.25193

 The electronic state is 1-A.
 Alpha  occ. eigenvalues --  -46.92465 -46.92135 -19.27045 -19.26745 -19.19746
 Alpha  occ. eigenvalues --  -19.19694 -19.19339 -19.18947 -19.18674 -19.18243
 Alpha  occ. eigenvalues --  -14.41565 -14.41474 -14.41345 -14.40937 -14.39378
 Alpha  occ. eigenvalues --  -14.38832 -14.38489 -14.38375 -10.36506 -10.35971
 Alpha  occ. eigenvalues --  -10.32344 -10.31814 -10.31755 -10.31720 -10.29967
 Alpha  occ. eigenvalues --  -10.29233 -10.29141 -10.28791 -10.28730 -10.28674
 Alpha  occ. eigenvalues --  -10.28636 -10.28624 -10.28321 -10.28062 -10.28017
 Alpha  occ. eigenvalues --  -10.27863 -10.27570 -10.27408 -10.27129 -10.26904
 Alpha  occ. eigenvalues --  -10.26886 -10.26783 -10.26710 -10.26567 -10.26273
 Alpha  occ. eigenvalues --  -10.26255 -10.26237 -10.26213 -10.26135 -10.26061
 Alpha  occ. eigenvalues --  -10.25955 -10.25866 -10.25823 -10.25701 -10.25686
 Alpha  occ. eigenvalues --  -10.25683 -10.25364 -10.24970 -10.24901 -10.24890
 Alpha  occ. eigenvalues --  -10.24880 -10.24862 -10.24831 -10.24790 -10.24675
 Alpha  occ. eigenvalues --  -10.24662 -10.24481 -10.24282 -10.24273 -10.24247
 Alpha  occ. eigenvalues --  -10.24188 -10.23981 -10.23912 -10.23775 -10.23731
 Alpha  occ. eigenvalues --  -10.23707 -10.23654 -10.23497 -10.23241 -10.23076
 Alpha  occ. eigenvalues --  -10.22852 -10.22850 -10.22600 -10.22559 -10.22456
 Alpha  occ. eigenvalues --  -10.22421  -3.14501  -3.14175  -1.87316  -1.87023
 Alpha  occ. eigenvalues --   -1.86893  -1.86706  -1.86584  -1.86357  -1.12962
 Alpha  occ. eigenvalues --   -1.12200  -1.06254  -1.04065  -1.03887  -1.03293
 Alpha  occ. eigenvalues --   -1.02950  -1.02877  -0.99553  -0.99553  -0.99137
 Alpha  occ. eigenvalues --   -0.98353  -0.97544  -0.97133  -0.96643  -0.95972
 Alpha  occ. eigenvalues --   -0.88532  -0.87520  -0.83523  -0.83314  -0.83033
 Alpha  occ. eigenvalues --   -0.82979  -0.82812  -0.82362  -0.82079  -0.81380
 Alpha  occ. eigenvalues --   -0.80513  -0.80385  -0.80172  -0.79813  -0.79387
 Alpha  occ. eigenvalues --   -0.78696  -0.78446  -0.77940  -0.77501  -0.77046
 Alpha  occ. eigenvalues --   -0.76834  -0.75784  -0.75693  -0.75254  -0.75070
 Alpha  occ. eigenvalues --   -0.74258  -0.72973  -0.72240  -0.72193  -0.71561
 Alpha  occ. eigenvalues --   -0.71380  -0.71286  -0.70550  -0.70429  -0.69460
 Alpha  occ. eigenvalues --   -0.69274  -0.67038  -0.66997  -0.66543  -0.66145
 Alpha  occ. eigenvalues --   -0.64414  -0.63828  -0.63622  -0.63265  -0.63232
 Alpha  occ. eigenvalues --   -0.62329  -0.61531  -0.60968  -0.60577  -0.59816
 Alpha  occ. eigenvalues --   -0.59747  -0.59672  -0.59404  -0.59130  -0.58897
 Alpha  occ. eigenvalues --   -0.58826  -0.58399  -0.57247  -0.54777  -0.54362
 Alpha  occ. eigenvalues --   -0.54223  -0.54148  -0.53835  -0.53717  -0.53221
 Alpha  occ. eigenvalues --   -0.53059  -0.52997  -0.52667  -0.52325  -0.51820
 Alpha  occ. eigenvalues --   -0.51343  -0.51285  -0.51131  -0.50533  -0.50413
 Alpha  occ. eigenvalues --   -0.49713  -0.49442  -0.49339  -0.49153  -0.49132
 Alpha  occ. eigenvalues --   -0.48866  -0.48424  -0.48103  -0.47788  -0.47788
 Alpha  occ. eigenvalues --   -0.47690  -0.47404  -0.47159  -0.46958  -0.46480
 Alpha  occ. eigenvalues --   -0.46477  -0.46422  -0.46239  -0.46006  -0.45872
 Alpha  occ. eigenvalues --   -0.45779  -0.45697  -0.45532  -0.45443  -0.44743
 Alpha  occ. eigenvalues --   -0.44607  -0.44242  -0.44192  -0.44042  -0.43919
 Alpha  occ. eigenvalues --   -0.43789  -0.43734  -0.43427  -0.43359  -0.43351
 Alpha  occ. eigenvalues --   -0.43224  -0.43182  -0.43028  -0.42775  -0.42755
 Alpha  occ. eigenvalues --   -0.42613  -0.42254  -0.41886  -0.41755  -0.41508
 Alpha  occ. eigenvalues --   -0.41480  -0.41122  -0.41098  -0.41006  -0.40808
 Alpha  occ. eigenvalues --   -0.40743  -0.40661  -0.40576  -0.40519  -0.40422
 Alpha  occ. eigenvalues --   -0.40332  -0.40218  -0.39973  -0.39883  -0.39646
 Alpha  occ. eigenvalues --   -0.39571  -0.39515  -0.39472  -0.39434  -0.39298
 Alpha  occ. eigenvalues --   -0.39133  -0.38433  -0.38403  -0.38321  -0.38090
 Alpha  occ. eigenvalues --   -0.37997  -0.37881  -0.37664  -0.37659  -0.37494
 Alpha  occ. eigenvalues --   -0.37378  -0.37142  -0.37092  -0.36980  -0.36765
 Alpha  occ. eigenvalues --   -0.36640  -0.36637  -0.36464  -0.36081  -0.36053
 Alpha  occ. eigenvalues --   -0.36013  -0.35954  -0.35800  -0.35518  -0.35260
 Alpha  occ. eigenvalues --   -0.35097  -0.34507  -0.34491  -0.34236  -0.34112
 Alpha  occ. eigenvalues --   -0.33654  -0.33235  -0.32798  -0.32675  -0.32458
 Alpha  occ. eigenvalues --   -0.32131  -0.32088  -0.31946  -0.31679  -0.31265
 Alpha  occ. eigenvalues --   -0.31137  -0.31021  -0.29761  -0.29403  -0.29178
 Alpha  occ. eigenvalues --   -0.29049  -0.28551  -0.28481  -0.27364  -0.26438
 Alpha  occ. eigenvalues --   -0.25964  -0.25580  -0.25424  -0.25365  -0.25352
 Alpha  occ. eigenvalues --   -0.25331  -0.24801  -0.24695  -0.21193  -0.20673
 Alpha  occ. eigenvalues --   -0.19249  -0.18663
 Alpha virt. eigenvalues --   -0.11564  -0.10937  -0.05400  -0.04965  -0.04031
 Alpha virt. eigenvalues --   -0.03896  -0.02349  -0.01574  -0.01375   0.00054
 Alpha virt. eigenvalues --    0.00530   0.01139   0.01271   0.01322   0.01551

 Mulliken charges:
               1
     1  Mg  12.000000
     2  C    6.000000
     3  C    6.000000
     4  C    6.000000
     5  C    6.000000
     6  N    7.000000
     7  C    6.000000
     8  C    6.000000
     9  C    6.000000
    10  C    6.000000
    11  C    6.000000
    12  C    6.000000
    13  C    6.000000
    14  H    1.000000
    15  N    7.000000
    16  C    6.000000
    17  C    6.000000
    18  C    6.000000
    19  C    6.000000
    20  C    6.000000
    21  C    6.000000
    22  O    8.000000
    23  C    6.000000
    24  N    7.000000
    25  C    6.000000
    26  C    6.000000
    27  C    6.000000
    28  C    6.000000
    29  C    6.000000
    30  C    6.000000
    31  C    6.000000
    32  N    7.000000
    33  C    6.000000
    34  C    6.000000
    35  C    6.000000
    36  C    6.000000
    37  C    6.000000
    38  C    6.000000
    39  O    8.000000
    40  C    6.000000
    41  C    6.000000
    42  O    8.000000
    43  O    8.000000
    44  C    6.000000
    45  H    1.000000
    46  H    1.000000
    47  H    1.000000
    48  H    1.000000
    49  H    1.000000
    50  H    1.000000
    51  H    1.000000
    52  H    1.000000
    53  H    1.000000
    54  H    1.000000
    55  H    1.000000
    56  H    1.000000
    57  H    1.000000
    58  H    1.000000
    59  H    1.000000
    60  H    1.000000
    61  H    1.000000
    62  H    1.000000
    63  H    1.000000
    64  H    1.000000
    65  H    1.000000
    66  H    1.000000
    67  H    1.000000
    68  H    1.000000
    69  H    1.000000
    70  H    1.000000
    71  H    1.000000
    72  H    1.000000
    73  H    1.000000
    74  H    1.000000
    75  H    1.000000
    76  H    1.000000
    77  H    1.000000
    78  H    1.000000
    79  H    1.000000
    80  Mg  12.000000
    81  C    6.000000
    82  C    6.000000
    83  C    6.000000
    84  C    6.000000
    85  N    7.000000
    86  C    6.000000
    87  C    6.000000
    88  C    6.000000
    89  C    6.000000
    90  C    6.000000
    91  C    6.000000
    92  C    6.000000
    93  H    1.000000
    94  N    7.000000
    95  C    6.000000
    96  C    6.000000
    97  C    6.000000
    98  C    6.000000
    99  C    6.000000
   100  C    6.000000
   101  O    8.000000
   102  C    6.000000
   103  N    7.000000
   104  C    6.000000
   105  C    6.000000
   106  C    6.000000
   107  C    6.000000
   108  C    6.000000
   109  C    6.000000
   110  C    6.000000
   111  N    7.000000
   112  C    6.000000
   113  C    6.000000
   114  C    6.000000
   115  C    6.000000
   116  C    6.000000
   117  C    6.000000
   118  O    8.000000
   119  C    6.000000
   120  C    6.000000
   121  O    8.000000
   122  O    8.000000
   123  C    6.000000
   124  H    1.000000
   125  H    1.000000
   126  H    1.000000
   127  H    1.000000
   128  H    1.000000
   129  H    1.000000
   130  H    1.000000
   131  H    1.000000
   132  H    1.000000
   133  H    1.000000
   134  H    1.000000
   135  H    1.000000
   136  H    1.000000
   137  H    1.000000
   138  H    1.000000
   139  H    1.000000
   140  H    1.000000
   141  H    1.000000
   142  H    1.000000
   143  H    1.000000
   144  H    1.000000
   145  H    1.000000
   146  H    1.000000
   147  H    1.000000
   148  H    1.000000
   149  H    1.000000
   150  H    1.000000
   151  H    1.000000
   152  H    1.000000
   153  H    1.000000
   154  H    1.000000
   155  H    1.000000
   156  H    1.000000
   157  H    1.000000
   158  H    1.000000
 Sum of Mulliken charges = 624.00000

 Dipole moment (field-independent basis, Debye):
    X=             -0.0000    Y=              0.0000    Z=              0.0000  Tot=              0.0000
 Quadrupole moment (field-independent basis, Debye-Ang):
   XX=              0.0000   YY=              0.0000   ZZ=             -0.0000
   XY=              0.0000   XZ=              0.0000   YZ=              0.0000

 Normal termination of Gaussian 16 at Fri Oct 15 00:49:52 2021.
