 Gaussian 16, Revision A.03,
 Gaussian 16:  ES64L-G16RevA.03 25-Dec-2016

 --------------------------------------------------------
 #p PBE1PBE/Def2SVP td=(nstates=5) density=(transition=1)
 --------------------------------------------------------

 --------------------------------
 TDDFT excited states in gaussian
 --------------------------------
 Symbolic Z-matrix:
 Charge =  0 Multiplicity = 1

                         Standard orientation:
 ---------------------------------------------------------------------
 Center     Atomic      Atomic             Coordinates (Angstroms)
 Number     Number       Type             X           Y           Z
 ---------------------------------------------------------------------
      1         12           0       28.675790    0.424389    0.538263
      2          6           0       28.650528   -2.191448   -1.749556
      3          6           0       28.716122    2.629254   -2.008590
      4          6           0       29.482507    2.882739    2.716532
      5          6           0       29.466296   -1.912261    3.081669
      6          7           0       28.592649    0.150922   -1.570698
      7          6           0       28.428647   -0.967183   -2.359031
      8          6           0       28.378886   -0.571716   -3.860571
      9          6           0       28.958509    0.875659   -3.812433
     10          6           0       28.640355    1.297984   -2.385630
     11          6           0       30.500561    0.975178   -4.085875
     12          6           0       26.955697   -0.854869   -4.375308
     13          6           0       26.906557   -1.479526   -5.717598
     14          1           0       25.654827   -2.164673   -6.033608
     15          7           0       28.817674    2.474772    0.377014
     16          6           0       28.739053    3.193212   -0.772835
     17          6           0       28.554946    4.581197   -0.430670
     18          6           0       28.781169    4.656132    0.991069
     19          6           0       29.129113    3.295604    1.411274
     20          6           0       28.327898    5.654892   -1.433688
     21          6           0       28.858199    5.881237    1.959424
     22          8           0       29.055326    5.764921    3.170662
     23          6           0       28.550100    7.272857    1.481891
     24          7           0       29.711762    0.431006    2.523252
     25          6           0       29.789668    1.643711    3.260996
     26          6           0       30.162316    1.445074    4.692946
     27          6           0       29.919628   -0.096859    4.779457
     28          6           0       29.608485   -0.564135    3.360029
     29          6           0       31.614028    1.911956    5.050434
     30          6           0       28.740509   -0.491221    5.742110
     31          6           0       27.397800    0.242819    5.495749
     32          7           0       28.895641   -1.633360    0.707438
     33          6           0       29.167196   -2.450806    1.815478
     34          6           0       29.168655   -3.784210    1.341920
     35          6           0       28.943593   -3.711614   -0.027135
     36          6           0       28.800239   -2.402466   -0.349789
     37          6           0       29.327435   -5.006138    2.189467
     38          6           0       28.887867   -4.481238   -1.180249
     39          8           0       29.015010   -5.711696   -1.316827
     40          6           0       28.675697   -3.571769   -2.427915
     41          6           0       27.323388   -4.079123   -3.019032
     42          8           0       26.206123   -3.936374   -2.491173
     43          8           0       27.593817   -4.716018   -4.225355
     44          6           0       26.500961   -5.511785   -4.869541
     45          1           0       28.822283    3.234518   -2.911359
     46          1           0       29.635961    3.530485    3.582995
     47          1           0       29.495753   -2.684553    3.853204
     48          1           0       28.995952   -1.248608   -4.450499
     49          1           0       28.382973    1.512314   -4.483739
     50          1           0       31.001503    0.045950   -4.358839
     51          1           0       31.032575    1.254448   -3.177338
     52          1           0       30.662348    1.646710   -4.928817
     53          1           0       26.495937    0.123026   -4.511281
     54          1           0       26.448023   -1.461350   -3.624787
     55          1           0       27.681536   -2.246173   -5.711939
     56          1           0       27.191375   -0.731436   -6.457162
     57          1           0       27.977056    5.247395   -2.381630
     58          1           0       29.202364    6.306454   -1.437072
     59          1           0       27.503616    6.286198   -1.101674
     60          1           0       29.086940    7.920581    2.175343
     61          1           0       27.485899    7.489426    1.577832
     62          1           0       28.929498    7.454330    0.475814
     63          1           0       29.488035    1.934255    5.397299
     64          1           0       30.838486   -0.576060    5.118879
     65          1           0       32.205593    1.956966    4.135637
     66          1           0       32.174249    1.285477    5.744716
     67          1           0       31.699215    2.898158    5.507685
     68          1           0       29.128434   -0.362082    6.752669
     69          1           0       28.659800   -1.569953    5.608648
     70          1           0       26.580893   -0.441733    5.266505
     71          1           0       27.569065    0.937408    4.672894
     72          1           0       27.072062    0.823797    6.358051
     73          1           0       30.173107   -5.549106    1.767515
     74          1           0       28.388067   -5.557869    2.153986
     75          1           0       29.598797   -4.823389    3.229284
     76          1           0       29.473058   -3.782138   -3.140203
     77          1           0       26.231952   -6.288062   -4.153570
     78          1           0       26.721136   -6.000060   -5.818812
     79          1           0       25.777793   -4.699809   -4.946354
     80         12           0      -29.375804   -0.593588   -0.449425
     81          6           0      -26.904114    1.729000   -1.532697
     82          6           0      -26.949200   -2.990374   -0.133581
     83          6           0      -31.547953   -2.457509    1.564185
     84          6           0      -31.675007    2.055388   -0.237150
     85          7           0      -27.049368   -0.453163   -0.590335
     86          6           0      -26.327695    0.465375   -1.253074
     87          6           0      -25.020955   -0.156604   -1.710387
     88          6           0      -24.985311   -1.677550   -1.202069
     89          6           0      -26.525057   -1.731135   -0.727855
     90          6           0      -24.670305   -2.596610   -2.403683
     91          6           0      -23.832926    0.644316   -1.202251
     92          6           0      -23.946106    1.233117    0.224036
     93          1           0      -23.092868    0.556421    1.331442
     94          7           0      -29.301608   -2.543216    0.523865
     95          6           0      -28.166824   -3.324779    0.513175
     96          6           0      -28.552072   -4.575147    1.088621
     97          6           0      -29.860540   -4.461834    1.695833
     98          6           0      -30.344817   -3.131822    1.247143
     99          6           0      -27.587457   -5.726403    1.255466
    100          6           0      -30.520731   -5.417715    2.690736
    101          8           0      -29.917684   -6.397050    3.085384
    102          6           0      -31.838032   -5.222282    3.217908
    103          7           0      -31.286181   -0.227457    0.615172
    104          6           0      -31.993629   -1.175700    1.211456
    105          6           0      -33.318697   -0.680085    1.767407
    106          6           0      -33.158156    0.875861    1.486570
    107          6           0      -32.028270    0.928786    0.522594
    108          6           0      -34.605217   -1.324285    1.053168
    109          6           0      -32.953325    1.673134    2.856099
    110          6           0      -34.017061    2.605625    3.362500
    111          7           0      -29.417287    1.336576   -1.008138
    112          6           0      -30.473031    2.270344   -0.976922
    113          6           0      -30.076410    3.526107   -1.640841
    114          6           0      -28.718901    3.302411   -1.869937
    115          6           0      -28.286168    2.022761   -1.374934
    116          6           0      -30.958499    4.743140   -2.086613
    117          6           0      -27.526398    3.958588   -2.415598
    118          8           0      -27.333845    5.064285   -2.947822
    119          6           0      -26.314824    2.983946   -2.244225
    120          6           0      -25.466165    3.797745   -1.329381
    121          8           0      -25.801111    4.203050   -0.245899
    122          8           0      -24.327353    4.124102   -1.933794
    123          6           0      -23.273638    4.875948   -1.166759
    124          1           0      -26.268768   -3.825558   -0.311447
    125          1           0      -32.346435   -2.947352    2.125032
    126          1           0      -32.417631    2.827812   -0.024109
    127          1           0      -25.151468   -0.021852   -2.784148
    128          1           0      -24.279719   -1.829317   -0.384808
    129          1           0      -23.751044   -3.138907   -2.183289
    130          1           0      -24.491355   -2.070325   -3.341642
    131          1           0      -25.497127   -3.304123   -2.460012
    132          1           0      -23.643909    1.481154   -1.874673
    133          1           0      -22.941210    0.018425   -1.156964
    134          1           0      -24.907324    1.152192    0.731402
    135          1           0      -23.659230    2.278293    0.107668
    136          1           0      -26.582284   -5.464846    0.923853
    137          1           0      -28.023574   -6.594881    0.760668
    138          1           0      -27.609064   -6.015365    2.305661
    139          1           0      -31.968132   -4.332887    3.834848
    140          1           0      -32.107124   -6.076644    3.838707
    141          1           0      -32.442192   -5.116374    2.316217
    142          1           0      -33.406025   -0.765749    2.850225
    143          1           0      -34.168968    1.135828    1.171770
    144          1           0      -34.281906   -2.070043    0.326346
    145          1           0      -35.102812   -0.523346    0.506032
    146          1           0      -35.363055   -1.741838    1.717857
    147          1           0      -32.126968    2.380074    2.781232
    148          1           0      -32.742304    0.990044    3.677731
    149          1           0      -33.806439    3.658723    3.175993
    150          1           0      -33.950517    2.388858    4.429163
    151          1           0      -35.039441    2.298731    3.141301
    152          1           0      -31.199459    5.320019   -1.194143
    153          1           0      -31.821669    4.335682   -2.613191
    154          1           0      -30.351419    5.393771   -2.715823
    155          1           0      -25.925617    2.811605   -3.248350
    156          1           0      -23.433242    5.954407   -1.175177
    157          1           0      -22.279515    4.685304   -1.573123
    158          1           0      -23.326121    4.469913   -0.156586
 ---------------------------------------------------------------------

 SCF Done:  E(RPBE1PBE) =  -4067.34296615     A.U. after   16 cycles

 Excitation energies and oscillator strengths:

 Excited State   1:      Singlet-A      1.8237 eV  679.85 nm  f=0.3573  <S**2>=0.000
     310 -> 316       -0.15453
     312 -> 313        0.69682
     312 <- 313       -0.11765
 This state for optimization and/or second-order correction.
 Total Energy, E(TD-HF/TD-DFT) =  -4067.27594679
 Copying the excited state density for this state as the 1-particle RhoCI density.

 Excited State   2:      Singlet-A      1.8532 eV  669.02 nm  f=0.3479  <S**2>=0.000
     309 -> 315       -0.19404
     311 -> 314        0.68724

 Excited State   3:      Singlet-A      1.9965 eV  621.00 nm  f=0.0000  <S**2>=0.000
     312 -> 314        0.70711

 Excited State   4:      Singlet-A      1.9986 eV  620.35 nm  f=0.0000  <S**2>=0.000
     311 -> 313        0.70711

 Excited State   5:      Singlet-A      2.2158 eV  559.54 nm  f=0.0720  <S**2>=0.000
     309 -> 314        0.63258
     311 -> 315        0.30036

 The electronic state is 1-A.
 Alpha  occ. eigenvalues --  -46.93588 -46.91712 -19.25709 -19.25403 -19.20227
 Alpha  occ. eigenvalues --  -19.19137 -19.19081 -19.18991 -19.18262 -19.17861
 Alpha  occ. eigenvalues --  -14.41932 -14.41549 -14.41466 -14.40926 -14.39849
 Alpha  occ. eigenvalues --  -14.39199 -14.39026 -14.38157 -10.37069 -10.35740
 Alpha  occ. eigenvalues --  -10.32467 -10.32191 -10.31413 -10.30733 -10.29777
 Alpha  occ. eigenvalues --  -10.29674 -10.29171 -10.29147 -10.28803 -10.28663
 Alpha  occ. eigenvalues --  -10.28556 -10.28511 -10.28370 -10.28360 -10.28131
 Alpha  occ. eigenvalues --  -10.28006 -10.27862 -10.27716 -10.27477 -10.26954
 Alpha  occ. eigenvalues --  -10.26945 -10.26719 -10.26578 -10.26544 -10.26138
 Alpha  occ. eigenvalues --  -10.26040 -10.26022 -10.26010 -10.25935 -10.25892
 Alpha  occ. eigenvalues --  -10.25769 -10.25763 -10.25716 -10.25688 -10.25664
 Alpha  occ. eigenvalues --  -10.25560 -10.25512 -10.25394 -10.25329 -10.25093
 Alpha  occ. eigenvalues --  -10.24998 -10.24986 -10.24844 -10.24730 -10.24568
 Alpha  occ. eigenvalues --  -10.24479 -10.24445 -10.24319 -10.24273 -10.24189
 Alpha  occ. eigenvalues --  -10.24172 -10.24097 -10.24020 -10.23903 -10.23659
 Alpha  occ. eigenvalues --  -10.23591 -10.23564 -10.23357 -10.23298 -10.23235
 Alpha  occ. eigenvalues --  -10.23097 -10.22978 -10.22976 -10.22928 -10.22472
 Alpha  occ. eigenvalues --  -10.21389  -3.15482  -3.13886  -1.88283  -1.87886
 Alpha  occ. eigenvalues --   -1.87681  -1.86706  -1.86264  -1.86111  -1.11831
 Alpha  occ. eigenvalues --   -1.09144  -1.04934  -1.04230  -1.03579  -1.02616
 Alpha  occ. eigenvalues --   -1.02523  -1.01442  -0.99444  -0.99220  -0.98597
 Alpha  occ. eigenvalues --   -0.98281  -0.98163  -0.97091  -0.96853  -0.96230
 Alpha  occ. eigenvalues --   -0.86886  -0.86311  -0.83460  -0.83309  -0.83257
 Alpha  occ. eigenvalues --   -0.83056  -0.82892  -0.82566  -0.82112  -0.81434
 Alpha  occ. eigenvalues --   -0.81409  -0.80843  -0.80486  -0.79617  -0.78917
 Alpha  occ. eigenvalues --   -0.78885  -0.78341  -0.77796  -0.77088  -0.76840
 Alpha  occ. eigenvalues --   -0.76462  -0.75796  -0.75436  -0.75251  -0.74720
 Alpha  occ. eigenvalues --   -0.74608  -0.72551  -0.72246  -0.71644  -0.71366
 Alpha  occ. eigenvalues --   -0.71213  -0.70700  -0.70565  -0.70331  -0.69824
 Alpha  occ. eigenvalues --   -0.69307  -0.67675  -0.67310  -0.66470  -0.66189
 Alpha  occ. eigenvalues --   -0.64132  -0.63234  -0.63187  -0.62935  -0.62542
 Alpha  occ. eigenvalues --   -0.61978  -0.61144  -0.60938  -0.60016  -0.59852
 Alpha  occ. eigenvalues --   -0.59627  -0.59344  -0.59078  -0.59023  -0.58576
 Alpha  occ. eigenvalues --   -0.58558  -0.57013  -0.56156  -0.54855  -0.54454
 Alpha  occ. eigenvalues --   -0.54308  -0.53859  -0.53761  -0.53601  -0.53105
 Alpha  occ. eigenvalues --   -0.53086  -0.52406  -0.52168  -0.51842  -0.51351
 Alpha  occ. eigenvalues --   -0.50753  -0.50558  -0.50367  -0.50140  -0.49873
 Alpha  occ. eigenvalues --   -0.49604  -0.49487  -0.49456  -0.49301  -0.49116
 Alpha  occ. eigenvalues --   -0.48466  -0.48090  -0.48060  -0.47698  -0.47645
 Alpha  occ. eigenvalues --   -0.47548  -0.47427  -0.47211  -0.47016  -0.46934
 Alpha  occ. eigenvalues --   -0.46670  -0.46486  -0.46419  -0.46111  -0.46087
 Alpha  occ. eigenvalues --   -0.46025  -0.45221  -0.45056  -0.44939  -0.44814
 Alpha  occ. eigenvalues --   -0.44368  -0.44287  -0.44133  -0.44042  -0.44032
 Alpha  occ. eigenvalues --   -0.43829  -0.43814  -0.43590  -0.43530  -0.43365
 Alpha  occ. eigenvalues --   -0.43179  -0.43129  -0.42926  -0.42735  -0.42653
 Alpha  occ. eigenvalues --   -0.42455  -0.42333  -0.42059  -0.41967  -0.41671
 Alpha  occ. eigenvalues --   -0.41643  -0.41617  -0.41336  -0.41324  -0.41042
 Alpha  occ. eigenvalues --   -0.41042  -0.40699  -0.40537  -0.40534  -0.40295
 Alpha  occ. eigenvalues --   -0.40264  -0.40094  -0.39932  -0.39820  -0.39572
 Alpha  occ. eigenvalues --   -0.39374  -0.39160  -0.39145  -0.38941  -0.38769
 Alpha  occ. eigenvalues --   -0.38579  -0.38522  -0.38357  -0.38308  -0.38220
 Alpha  occ. eigenvalues --   -0.37992  -0.37968  -0.37844  -0.37755  -0.37585
 Alpha  occ. eigenvalues --   -0.37264  -0.37108  -0.36887  -0.36779  -0.36539
 Alpha  occ. eigenvalues --   -0.36379  -0.36348  -0.36222  -0.36127  -0.35967
 Alpha  occ. eigenvalues --   -0.35759  -0.35724  -0.35485  -0.35102  -0.35016
 Alpha  occ. eigenvalues --   -0.34968  -0.34875  -0.34739  -0.33999  -0.33660
 Alpha  occ. eigenvalues --   -0.33203  -0.33024  -0.32937  -0.32415  -0.32393
 Alpha  occ. eigenvalues --   -0.32106  -0.31913  -0.31780  -0.31623  -0.31422
 Alpha  occ. eigenvalues --   -0.30995  -0.30719  -0.29298  -0.29285  -0.29136
 Alpha  occ. eigenvalues --   -0.29103  -0.28840  -0.28710  -0.27025  -0.26990
 Alpha  occ. eigenvalues --   -0.26027  -0.25652  -0.25539  -0.25377  -0.25314
 Alpha  occ. eigenvalues --   -0.25026  -0.24795  -0.24494  -0.21234  -0.21161
 Alpha  occ. eigenvalues --   -0.18995  -0.18840
 Alpha virt. eigenvalues --   -0.11423  -0.11276  -0.05937  -0.05129  -0.03975
 Alpha virt. eigenvalues --   -0.03663  -0.02076  -0.02016  -0.01674  -0.00504
 Alpha virt. eigenvalues --    0.00382   0.00406   0.00731   0.00954   0.02572

 Mulliken charges:
               1
     1  Mg  11.997439
     2  C    6.024588
     3  C    5.996694
     4  C    5.967579
     5  C    5.983507
     6  N    7.021265
     7  C    5.968031
     8  C    6.003048
     9  C    5.993272
    10  C    6.023324
    11  C    5.996785
    12  C    6.005883
    13  C    5.999455
    14  H    1.001307
    15  N    6.992972
    16  C    6.035228
    17  C    6.019680
    18  C    6.012883
    19  C    6.037954
    20  C    5.996847
    21  C    6.012513
    22  O    8.029034
    23  C    5.995066
    24  N    6.983558
    25  C    6.041725
    26  C    5.985196
    27  C    6.007448
    28  C    5.982151
    29  C    6.000439
    30  C    6.007714
    31  C    6.005398
    32  N    7.002055
    33  C    5.972681
    34  C    5.969507
    35  C    5.999862
    36  C    5.972311
    37  C    6.002941
    38  C    5.985255
    39  O    7.971276
    40  C    5.996137
    41  C    5.996823
    42  O    7.996438
    43  O    7.998454
    44  C    6.000541
    45  H    1.014056
    46  H    1.004106
    47  H    0.984055
    48  H    1.001474
    49  H    1.001347
    50  H    1.015825
    51  H    0.999449
    52  H    1.003323
    53  H    0.988141
    54  H    1.005640
    55  H    1.003731
    56  H    0.994575
    57  H    1.014332
    58  H    1.018483
    59  H    1.017345
    60  H    1.012944
    61  H    1.010637
    62  H    1.003963
    63  H    1.000830
    64  H    0.997114
    65  H    0.999515
    66  H    1.009219
    67  H    0.996551
    68  H    0.990265
    69  H    1.006451
    70  H    1.002622
    71  H    0.986682
    72  H    0.993248
    73  H    0.982546
    74  H    0.981220
    75  H    0.983856
    76  H    0.991925
    77  H    1.000914
    78  H    0.995694
    79  H    0.995655
    80  Mg  12.000028
    81  C    5.999986
    82  C    5.999967
    83  C    6.000002
    84  C    6.000024
    85  N    7.000014
    86  C    5.999911
    87  C    5.999995
    88  C    5.999933
    89  C    6.000150
    90  C    5.999990
    91  C    6.000013
    92  C    6.000032
    93  H    0.999944
    94  N    6.999982
    95  C    6.000139
    96  C    6.000081
    97  C    6.000050
    98  C    6.000126
    99  C    5.999976
   100  C    6.000077
   101  O    8.000112
   102  C    5.999988
   103  N    7.000031
   104  C    6.000072
   105  C    5.999947
   106  C    6.000054
   107  C    5.999896
   108  C    5.999982
   109  C    6.000016
   110  C    6.000004
   111  N    6.999990
   112  C    5.999854
   113  C    5.999860
   114  C    6.000031
   115  C    5.999898
   116  C    5.999974
   117  C    5.999872
   118  O    7.999821
   119  C    6.000010
   120  C    5.999967
   121  O    7.999978
   122  O    7.999995
   123  C    6.000015
   124  H    1.000044
   125  H    1.000054
   126  H    0.999947
   127  H    1.000026
   128  H    1.000036
   129  H    1.000037
   130  H    1.000057
   131  H    0.999987
   132  H    1.000017
   133  H    0.999966
   134  H    1.000002
   135  H    1.000007
   136  H    1.000105
   137  H    1.000114
   138  H    1.000095
   139  H    1.000052
   140  H    1.000076
   141  H    1.000031
   142  H    1.000010
   143  H    0.999975
   144  H    0.999987
   145  H    1.000056
   146  H    1.000012
   147  H    1.000014
   148  H    0.999934
   149  H    1.000002
   150  H    0.999974
   151  H    0.999978
   152  H    0.999906
   153  H    0.999924
   154  H    0.999930
   155  H    0.999943
   156  H    0.999972
   157  H    0.999962
   158  H    0.999978
 Sum of Mulliken charges = 624.00000

 Dipole moment (field-independent basis, Debye):
    X=             -0.1420    Y=             10.0445    Z=             -1.5514  Tot=             10.1646
 Quadrupole moment (field-independent basis, Debye-Ang):
   XX=             -8.2187   YY=              9.0462   ZZ=             -3.1785
   XY=            292.9311   XZ=            -47.1449   YZ=              4.3851

 Normal termination of Gaussian 16 at Thu Oct 14 13:50:23 2021.
