 Gaussian 16, Revision A.03,
 Gaussian 16:  ES64L-G16RevA.03 25-Dec-2016

 --------------------------------------------------------
 #p PBE1PBE/Def2SVP td=(nstates=5) density=(transition=1)
 --------------------------------------------------------

 --------------------------------
 TDDFT excited states in gaussian
 --------------------------------
 Symbolic Z-matrix:
 Charge =  0 Multiplicity = 1

                         Standard orientation:
 ---------------------------------------------------------------------
 Center     Atomic      Atomic             Coordinates (Angstroms)
 Number     Number       Type             X           Y           Z
 ---------------------------------------------------------------------
      1         12           0       -4.162245   -0.507185    1.064737
      2          6           0       -5.552409    2.210634   -0.586105
      3          6           0       -2.356935    1.576199    3.007541
      4          6           0       -2.759518   -3.207826    2.458930
      5          6           0       -5.954719   -2.588299   -1.107354
      6          7           0       -4.050069    1.675515    1.158109
      7          6           0       -4.738393    2.571959    0.492640
      8          6           0       -4.317644    4.010455    1.046868
      9          6           0       -2.912146    3.664691    1.491254
     10          6           0       -3.100328    2.190763    1.972347
     11          6           0       -1.915378    3.882241    0.332445
     12          6           0       -5.403660    4.556665    2.070333
     13          6           0       -5.365668    6.071821    2.292216
     14          1           0       -4.194644    6.863863    1.736736
     15          7           0       -2.906837   -0.779053    2.627935
     16          6           0       -2.315777    0.243190    3.366721
     17          6           0       -1.652487   -0.382905    4.549602
     18          6           0       -1.706369   -1.830097    4.367247
     19          6           0       -2.416502   -1.942787    3.065540
     20          6           0       -1.006135    0.426493    5.648843
     21          6           0       -1.208810   -3.031075    5.296955
     22          8           0       -1.396398   -4.224040    5.035170
     23          6           0       -0.487294   -2.643498    6.570849
     24          7           0       -4.238984   -2.536202    0.665919
     25          6           0       -3.569406   -3.454836    1.356946
     26          6           0       -3.742975   -4.892788    0.777741
     27          6           0       -4.931410   -4.659667   -0.166088
     28          6           0       -5.118072   -3.175035   -0.183688
     29          6           0       -2.476445   -5.472253    0.087949
     30          6           0       -6.247751   -5.533123    0.041642
     31          6           0       -7.416816   -4.871808    0.694472
     32          7           0       -5.326139   -0.296495   -0.658651
     33          6           0       -6.029543   -1.197684   -1.384594
     34          6           0       -6.772932   -0.607499   -2.440052
     35          6           0       -6.622635    0.788508   -2.166783
     36          6           0       -5.759435    0.860819   -1.097401
     37          6           0       -7.565743   -1.154978   -3.598471
     38          6           0       -6.974041    2.127529   -2.535486
     39          8           0       -7.677539    2.567396   -3.419168
     40          6           0       -6.437518    3.117322   -1.452749
     41          6           0       -5.713781    4.212963   -2.104591
     42          8           0       -4.713991    4.026330   -2.781323
     43          8           0       -6.377599    5.464129   -2.029040
     44          6           0       -5.752448    6.572282   -2.767957
     45          1           0       -1.741691    2.280398    3.569506
     46          1           0       -2.252374   -4.064469    2.906025
     47          1           0       -6.458821   -3.267958   -1.797071
     48          1           0       -4.341112    4.738129    0.236789
     49          1           0       -2.574757    4.204139    2.375922
     50          1           0       -1.321682    4.721083    0.697281
     51          1           0       -2.404635    4.140317   -0.607692
     52          1           0       -1.273069    3.001919    0.323211
     53          1           0       -5.268442    4.087720    3.045375
     54          1           0       -6.363211    4.340220    1.600164
     55          1           0       -5.423060    6.228515    3.368928
     56          1           0       -6.289372    6.472627    1.875531
     57          1           0       -1.536593    1.364301    5.817770
     58          1           0        0.050984    0.664366    5.534978
     59          1           0       -1.112434   -0.121468    6.584962
     60          1           0        0.288747   -1.961707    6.223771
     61          1           0        0.024435   -3.465147    7.071136
     62          1           0       -1.195214   -2.214784    7.280374
     63          1           0       -4.004864   -5.606606    1.558601
     64          1           0       -4.535659   -4.814587   -1.169157
     65          1           0       -2.844288   -5.950368   -0.820231
     66          1           0       -1.873729   -6.170027    0.667211
     67          1           0       -1.797428   -4.642552   -0.108788
     68          1           0       -5.967533   -6.463027    0.536606
     69          1           0       -6.656571   -5.790525   -0.935185
     70          1           0       -8.197757   -4.774720   -0.060092
     71          1           0       -7.291038   -3.820507    0.956326
     72          1           0       -7.853568   -5.434929    1.519313
     73          1           0       -7.490400   -2.240017   -3.678208
     74          1           0       -7.287212   -0.614990   -4.503886
     75          1           0       -8.650494   -1.071788   -3.528058
     76          1           0       -7.245180    3.543987   -0.858579
     77          1           0       -6.170166    7.557451   -2.561925
     78          1           0       -5.918192    6.296054   -3.809623
     79          1           0       -4.686263    6.490688   -2.559847
     80         12           0        4.146204   -0.828802   -0.917334
     81          6           0        6.220053    1.960277   -0.322053
     82          6           0        1.420487    1.252723   -0.695678
     83          6           0        2.098041   -3.446417   -1.400698
     84          6           0        6.887415   -2.973780   -0.559539
     85          7           0        3.959513    1.337455   -0.685465
     86          6           0        4.834990    2.314984   -0.469209
     87          6           0        4.259389    3.741000   -0.343784
     88          6           0        2.719821    3.314249   -0.189426
     89          6           0        2.699467    1.838414   -0.504308
     90          6           0        2.142598    3.605591    1.174490
     91          6           0        4.524348    4.687539   -1.641254
     92          6           0        4.546168    6.180633   -1.301194
     93          1           0        5.892927    6.882546   -1.613331
     94          7           0        2.021872   -1.072857   -1.202952
     95          6           0        1.065835   -0.044846   -1.011181
     96          6           0       -0.196963   -0.557015   -1.493627
     97          6           0       -0.030014   -1.918555   -1.730123
     98          6           0        1.411902   -2.223765   -1.470277
     99          6           0       -1.490905    0.234819   -1.481219
    100          6           0       -0.989996   -2.976001   -2.225101
    101          8           0       -0.595213   -4.086089   -2.432890
    102          6           0       -2.419346   -2.666870   -2.541229
    103          7           0        4.391372   -2.913474   -0.779076
    104          6           0        3.404886   -3.801577   -1.095050
    105          6           0        4.062766   -5.209286   -1.077559
    106          6           0        5.534713   -4.990794   -1.378484
    107          6           0        5.674498   -3.539876   -0.860731
    108          6           0        3.916924   -5.818186    0.316290
    109          6           0        5.912111   -5.175941   -2.801614
    110          6           0        5.066819   -4.534802   -3.874231
    111          7           0        6.162915   -0.616735   -0.555898
    112          6           0        7.170130   -1.553902   -0.422786
    113          6           0        8.441051   -0.852722   -0.183577
    114          6           0        8.100963    0.511136   -0.166004
    115          6           0        6.753912    0.596733   -0.389850
    116          6           0        9.751269   -1.474854    0.040533
    117          6           0        8.615867    1.854086   -0.149979
    118          8           0        9.804037    2.284930   -0.075184
    119          6           0        7.364280    2.843893   -0.287310
    120          6           0        7.345808    3.681268    0.965202
    121          8           0        7.451158    3.214028    2.060323
    122          8           0        7.132520    5.072681    0.769234
    123          6           0        6.792169    5.842862    2.004064
    124          1           0        0.540354    1.887276   -0.577351
    125          1           0        1.458070   -4.329992   -1.454671
    126          1           0        7.804937   -3.564132   -0.610774
    127          1           0        4.719982    4.256524    0.499866
    128          1           0        2.208836    3.908803   -0.947731
    129          1           0        1.608940    4.551231    1.080591
    130          1           0        2.891126    3.576446    1.966580
    131          1           0        1.348561    2.866875    1.283105
    132          1           0        3.736410    4.532583   -2.378956
    133          1           0        5.446844    4.398343   -2.145114
    134          1           0        4.282429    6.164135   -0.243510
    135          1           0        3.725048    6.721113   -1.771704
    136          1           0       -1.167304    1.272828   -1.414242
    137          1           0       -1.930192   -0.039532   -0.522549
    138          1           0       -2.081935    0.081873   -2.384439
    139          1           0       -2.276790   -2.085381   -3.452241
    140          1           0       -2.924371   -2.045855   -1.801865
    141          1           0       -2.977267   -3.587821   -2.714004
    142          1           0        3.615738   -5.939929   -1.750781
    143          1           0        6.220751   -5.662652   -0.863741
    144          1           0        4.765883   -5.814861    1.000003
    145          1           0        3.600269   -6.852890    0.185479
    146          1           0        3.091001   -5.312310    0.817626
    147          1           0        6.029998   -6.229187   -3.057422
    148          1           0        6.906984   -4.735583   -2.865382
    149          1           0        5.690366   -3.754431   -4.311422
    150          1           0        4.103131   -4.061782   -3.683079
    151          1           0        4.908219   -5.270526   -4.662525
    152          1           0        9.733793   -1.957486    1.017645
    153          1           0       10.449840   -0.642845   -0.047399
    154          1           0        9.945186   -2.269233   -0.681455
    155          1           0        7.541780    3.377907   -1.220993
    156          1           0        7.690403    6.029909    2.592445
    157          1           0        6.056731    5.341042    2.634529
    158          1           0        6.419784    6.854880    1.847761
 ---------------------------------------------------------------------

 SCF Done:  E(RPBE1PBE) =  -4067.38241545     A.U. after   16 cycles

 Excitation energies and oscillator strengths:

 Excited State   1:      Singlet-A      1.5320 eV  809.31 nm  f=0.0001  <S**2>=0.000
     312 -> 313        0.70676
 This state for optimization and/or second-order correction.
 Total Energy, E(TD-HF/TD-DFT) =  -4067.32611662
 Copying the excited state density for this state as the 1-particle RhoCI density.

 Excited State   2:      Singlet-A      1.7848 eV  694.66 nm  f=0.0013  <S**2>=0.000
     311 -> 314        0.70538

 Excited State   3:      Singlet-A      1.8147 eV  683.21 nm  f=0.3561  <S**2>=0.000
     310 -> 316       -0.16726
     312 -> 314        0.69181
     312 <- 314       -0.10679

 Excited State   4:      Singlet-A      1.8643 eV  665.05 nm  f=0.3853  <S**2>=0.000
     309 -> 315       -0.17171
     311 -> 313        0.69088
     311 <- 313       -0.10446

 Excited State   5:      Singlet-A      2.0885 eV  593.65 nm  f=0.0002  <S**2>=0.000
     310 -> 313        0.70641

 The electronic state is 1-A.
 Alpha  occ. eigenvalues --  -46.91988 -46.91786 -19.25245 -19.25217 -19.20803
 Alpha  occ. eigenvalues --  -19.20380 -19.20314 -19.18991 -19.18891 -19.18718
 Alpha  occ. eigenvalues --  -14.42688 -14.42015 -14.41647 -14.41028 -14.40208
 Alpha  occ. eigenvalues --  -14.39175 -14.39075 -14.38863 -10.36554 -10.36516
 Alpha  occ. eigenvalues --  -10.34504 -10.32107 -10.31989 -10.31920 -10.29553
 Alpha  occ. eigenvalues --  -10.29321 -10.29050 -10.29048 -10.29005 -10.28974
 Alpha  occ. eigenvalues --  -10.28948 -10.28867 -10.28790 -10.28604 -10.28472
 Alpha  occ. eigenvalues --  -10.28294 -10.28211 -10.28129 -10.27881 -10.27458
 Alpha  occ. eigenvalues --  -10.27419 -10.26933 -10.26737 -10.26686 -10.26640
 Alpha  occ. eigenvalues --  -10.26569 -10.26522 -10.26459 -10.26351 -10.26329
 Alpha  occ. eigenvalues --  -10.26111 -10.26096 -10.25984 -10.25965 -10.25925
 Alpha  occ. eigenvalues --  -10.25902 -10.25855 -10.25502 -10.25239 -10.25223
 Alpha  occ. eigenvalues --  -10.25212 -10.25124 -10.25120 -10.24959 -10.24879
 Alpha  occ. eigenvalues --  -10.24853 -10.24813 -10.24547 -10.24494 -10.24487
 Alpha  occ. eigenvalues --  -10.24356 -10.24277 -10.24250 -10.23970 -10.23904
 Alpha  occ. eigenvalues --  -10.23736 -10.23312 -10.23225 -10.23035 -10.22804
 Alpha  occ. eigenvalues --  -10.22769 -10.22764 -10.22537 -10.22385 -10.22262
 Alpha  occ. eigenvalues --  -10.21855  -3.14130  -3.14066  -1.86993  -1.86930
 Alpha  occ. eigenvalues --   -1.86465  -1.86417  -1.86399  -1.86305  -1.10430
 Alpha  occ. eigenvalues --   -1.09882  -1.06576  -1.05316  -1.05074  -1.02295
 Alpha  occ. eigenvalues --   -1.02230  -1.01570  -1.00994  -1.00075  -0.99808
 Alpha  occ. eigenvalues --   -0.99295  -0.98244  -0.97909  -0.97806  -0.96375
 Alpha  occ. eigenvalues --   -0.87404  -0.87196  -0.84219  -0.83945  -0.83721
 Alpha  occ. eigenvalues --   -0.83542  -0.83000  -0.82931  -0.81986  -0.81929
 Alpha  occ. eigenvalues --   -0.81732  -0.81266  -0.81239  -0.80767  -0.79168
 Alpha  occ. eigenvalues --   -0.78872  -0.78315  -0.77871  -0.77538  -0.76896
 Alpha  occ. eigenvalues --   -0.76798  -0.76326  -0.75834  -0.75432  -0.74997
 Alpha  occ. eigenvalues --   -0.74222  -0.73179  -0.72847  -0.71936  -0.71695
 Alpha  occ. eigenvalues --   -0.71586  -0.71475  -0.70891  -0.70617  -0.69755
 Alpha  occ. eigenvalues --   -0.69310  -0.67864  -0.66974  -0.66120  -0.65733
 Alpha  occ. eigenvalues --   -0.64069  -0.64017  -0.63581  -0.63258  -0.62967
 Alpha  occ. eigenvalues --   -0.62285  -0.61347  -0.61330  -0.60194  -0.60134
 Alpha  occ. eigenvalues --   -0.59563  -0.59412  -0.59303  -0.58999  -0.58813
 Alpha  occ. eigenvalues --   -0.57863  -0.56452  -0.56410  -0.55486  -0.54836
 Alpha  occ. eigenvalues --   -0.54647  -0.54446  -0.54267  -0.53714  -0.53594
 Alpha  occ. eigenvalues --   -0.53357  -0.53095  -0.52996  -0.52599  -0.52231
 Alpha  occ. eigenvalues --   -0.50940  -0.50851  -0.50683  -0.50479  -0.50244
 Alpha  occ. eigenvalues --   -0.49729  -0.49252  -0.49037  -0.49031  -0.48803
 Alpha  occ. eigenvalues --   -0.48701  -0.48521  -0.48287  -0.48000  -0.47876
 Alpha  occ. eigenvalues --   -0.47765  -0.47700  -0.47575  -0.47321  -0.47142
 Alpha  occ. eigenvalues --   -0.47095  -0.47031  -0.46524  -0.46409  -0.46096
 Alpha  occ. eigenvalues --   -0.45906  -0.45692  -0.45614  -0.45476  -0.45403
 Alpha  occ. eigenvalues --   -0.45363  -0.45065  -0.44677  -0.44544  -0.44493
 Alpha  occ. eigenvalues --   -0.44326  -0.44197  -0.44107  -0.43939  -0.43861
 Alpha  occ. eigenvalues --   -0.43837  -0.43632  -0.43507  -0.43308  -0.43028
 Alpha  occ. eigenvalues --   -0.42880  -0.42799  -0.42408  -0.42398  -0.42294
 Alpha  occ. eigenvalues --   -0.42139  -0.41926  -0.41732  -0.41672  -0.41408
 Alpha  occ. eigenvalues --   -0.41296  -0.41027  -0.40980  -0.40858  -0.40747
 Alpha  occ. eigenvalues --   -0.40441  -0.40324  -0.40039  -0.40008  -0.39980
 Alpha  occ. eigenvalues --   -0.39606  -0.39511  -0.39268  -0.39097  -0.39029
 Alpha  occ. eigenvalues --   -0.38806  -0.38688  -0.38592  -0.38515  -0.38445
 Alpha  occ. eigenvalues --   -0.38363  -0.38106  -0.37972  -0.37824  -0.37766
 Alpha  occ. eigenvalues --   -0.37610  -0.37538  -0.37396  -0.37289  -0.37149
 Alpha  occ. eigenvalues --   -0.36705  -0.36572  -0.36401  -0.36381  -0.36221
 Alpha  occ. eigenvalues --   -0.35876  -0.35813  -0.35702  -0.35566  -0.35248
 Alpha  occ. eigenvalues --   -0.35187  -0.34892  -0.34751  -0.34684  -0.34449
 Alpha  occ. eigenvalues --   -0.33741  -0.33588  -0.33254  -0.32931  -0.32640
 Alpha  occ. eigenvalues --   -0.32319  -0.32217  -0.32105  -0.31680  -0.31461
 Alpha  occ. eigenvalues --   -0.31230  -0.31164  -0.30277  -0.29774  -0.29614
 Alpha  occ. eigenvalues --   -0.29563  -0.29197  -0.28786  -0.27237  -0.27088
 Alpha  occ. eigenvalues --   -0.27020  -0.26496  -0.26063  -0.25868  -0.25803
 Alpha  occ. eigenvalues --   -0.25516  -0.25284  -0.25235  -0.21398  -0.20989
 Alpha  occ. eigenvalues --   -0.19519  -0.18921
 Alpha virt. eigenvalues --   -0.11830  -0.11397  -0.05379  -0.05220  -0.04628
 Alpha virt. eigenvalues --   -0.03820  -0.02587  -0.02243  -0.00500   0.00037
 Alpha virt. eigenvalues --    0.00399   0.00684   0.00801   0.01012   0.01330

 Mulliken charges:
               1
     1  Mg  11.999548
     2  C    6.001110
     3  C    6.001202
     4  C    5.998726
     5  C    5.998565
     6  N    7.001295
     7  C    5.999457
     8  C    6.000091
     9  C    6.000051
    10  C    5.999314
    11  C    5.999901
    12  C    6.000007
    13  C    5.999968
    14  H    1.000020
    15  N    6.999880
    16  C    5.999878
    17  C    5.999676
    18  C    6.000065
    19  C    6.000239
    20  C    6.000029
    21  C    6.000030
    22  O    8.000159
    23  C    6.000010
    24  N    6.998771
    25  C    6.000470
    26  C    6.000107
    27  C    5.999946
    28  C    6.000643
    29  C    6.000039
    30  C    6.000081
    31  C    6.000168
    32  N    7.000286
    33  C    6.000060
    34  C    6.000105
    35  C    6.000072
    36  C    5.999846
    37  C    5.999978
    38  C    5.999888
    39  O    7.999849
    40  C    5.999824
    41  C    5.999989
    42  O    8.000084
    43  O    8.000025
    44  C    5.999996
    45  H    1.000120
    46  H    0.999675
    47  H    0.999496
    48  H    1.000060
    49  H    1.000007
    50  H    1.000040
    51  H    1.000053
    52  H    0.999998
    53  H    1.000042
    54  H    1.000022
    55  H    1.000042
    56  H    1.000044
    57  H    0.999849
    58  H    0.999835
    59  H    0.999962
    60  H    0.999940
    61  H    0.999937
    62  H    0.999975
    63  H    0.999828
    64  H    0.999911
    65  H    0.999831
    66  H    0.999807
    67  H    0.999995
    68  H    0.999837
    69  H    0.999881
    70  H    0.999873
    71  H    1.000024
    72  H    0.999781
    73  H    1.000087
    74  H    0.999906
    75  H    0.999896
    76  H    1.000098
    77  H    1.000021
    78  H    1.000051
    79  H    0.999988
    80  Mg  12.000109
    81  C    5.999899
    82  C    5.999692
    83  C    6.000106
    84  C    6.000016
    85  N    6.999948
    86  C    6.000244
    87  C    5.999987
    88  C    6.000390
    89  C    5.999603
    90  C    5.998797
    91  C    5.999946
    92  C    5.999984
    93  H    1.000013
    94  N    6.999845
    95  C    6.000467
    96  C    5.999163
    97  C    5.999666
    98  C    6.000192
    99  C    6.000075
   100  C    6.000026
   101  O    7.999652
   102  C    6.000106
   103  N    7.000012
   104  C    5.999910
   105  C    6.000002
   106  C    5.999953
   107  C    6.000205
   108  C    5.999929
   109  C    5.999937
   110  C    5.999971
   111  N    6.999983
   112  C    6.000341
   113  C    6.000285
   114  C    6.000027
   115  C    6.000232
   116  C    5.999958
   117  C    6.000114
   118  O    8.000283
   119  C    5.999997
   120  C    6.000047
   121  O    8.000031
   122  O    8.000025
   123  C    5.999972
   124  H    0.999841
   125  H    1.000142
   126  H    1.000119
   127  H    1.000012
   128  H    1.000058
   129  H    1.000287
   130  H    1.000082
   131  H    1.001408
   132  H    1.000080
   133  H    0.999950
   134  H    0.999998
   135  H    1.000046
   136  H    0.999769
   137  H    1.000270
   138  H    0.999960
   139  H    0.999871
   140  H    1.000233
   141  H    1.000043
   142  H    1.000098
   143  H    1.000052
   144  H    0.999937
   145  H    1.000078
   146  H    1.000165
   147  H    1.000113
   148  H    0.999965
   149  H    0.999963
   150  H    1.000122
   151  H    1.000079
   152  H    1.000206
   153  H    1.000130
   154  H    1.000180
   155  H    1.000089
   156  H    1.000043
   157  H    1.000037
   158  H    1.000066
 Sum of Mulliken charges = 624.00000

 Dipole moment (field-independent basis, Debye):
    X=              0.1654    Y=              0.0909    Z=              0.0018  Tot=              0.1887
 Quadrupole moment (field-independent basis, Debye-Ang):
   XX=              0.5430   YY=             -0.0371   ZZ=             -0.0915
   XY=             -0.4727   XZ=             -0.0791   YZ=              0.0683

 Normal termination of Gaussian 16 at Fri Oct 15 17:33:11 2021.
