 Gaussian 16, Revision A.03,
 Gaussian 16:  ES64L-G16RevA.03 25-Dec-2016

 --------------------------------------------------------
 #p PBE1PBE/Def2SVP td=(nstates=5) density=(transition=1)
 --------------------------------------------------------

 --------------------------------
 TDDFT excited states in gaussian
 --------------------------------
 Symbolic Z-matrix:
 Charge =  0 Multiplicity = 1

                         Standard orientation:
 ---------------------------------------------------------------------
 Center     Atomic      Atomic             Coordinates (Angstroms)
 Number     Number       Type             X           Y           Z
 ---------------------------------------------------------------------
      1         12           0       27.382061    0.586585   -0.142617
      2          6           0       25.735217   -1.987387   -1.713092
      3          6           0       28.472195   -1.749166    2.310035
      4          6           0       28.595880    3.072394    1.800851
      5          6           0       26.079482    2.833406   -2.265285
      6          7           0       27.120476   -1.626104    0.246906
      7          6           0       26.376486   -2.446194   -0.558261
      8          6           0       26.479850   -3.903963   -0.104207
      9          6           0       27.209188   -3.724522    1.306547
     10          6           0       27.629274   -2.283804    1.301742
     11          6           0       26.342001   -4.168278    2.541361
     12          6           0       27.310503   -4.830039   -1.105294
     13          6           0       26.861391   -6.218544   -1.492261
     14          1           0       26.410960   -7.142134   -0.416783
     15          7           0       28.454554    0.681625    1.785259
     16          6           0       28.941827   -0.354267    2.503024
     17          6           0       29.800043    0.093752    3.548105
     18          6           0       29.886003    1.514868    3.407807
     19          6           0       28.891528    1.802697    2.331465
     20          6           0       30.346007   -0.913768    4.507712
     21          6           0       30.607059    2.516451    4.293720
     22          8           0       30.382287    3.729553    4.239479
     23          6           0       31.632891    2.041408    5.307737
     24          7           0       27.219006    2.710079   -0.129590
     25          6           0       27.924265    3.510229    0.712662
     26          6           0       27.836352    4.970025    0.270739
     27          6           0       27.164362    4.846540   -1.149457
     28          6           0       26.800522    3.375758   -1.200226
     29          6           0       27.209742    6.057067    1.193178
     30          6           0       28.007567    5.370245   -2.386044
     31          6           0       28.891014    4.421945   -3.168728
     32          7           0       26.094278    0.506664   -1.604731
     33          6           0       25.719723    1.455110   -2.522356
     34          6           0       24.812605    0.968953   -3.497043
     35          6           0       24.820045   -0.401220   -3.255300
     36          6           0       25.629506   -0.631341   -2.113194
     37          6           0       24.065174    1.629702   -4.647999
     38          6           0       24.316989   -1.643229   -3.650876
     39          8           0       23.523216   -1.884714   -4.541583
     40          6           0       24.862397   -2.806469   -2.646816
     41          6           0       23.705725   -3.429874   -2.015685
     42          8           0       22.910611   -2.872997   -1.232956
     43          8           0       23.511133   -4.719997   -2.397220
     44          6           0       22.226664   -5.361985   -2.095979
     45          1           0       28.814721   -2.566178    2.947906
     46          1           0       29.208087    3.862235    2.240616
     47          1           0       25.947054    3.448202   -3.157181
     48          1           0       25.475332   -4.328450   -0.082143
     49          1           0       28.087680   -4.365319    1.384122
     50          1           0       26.884844   -4.958607    3.058688
     51          1           0       25.375888   -4.437189    2.113912
     52          1           0       26.235160   -3.421414    3.328636
     53          1           0       28.263985   -4.900801   -0.581581
     54          1           0       27.624376   -4.269829   -1.985427
     55          1           0       27.610249   -6.687750   -2.130311
     56          1           0       25.948015   -6.075251   -2.068461
     57          1           0       31.399682   -0.656591    4.609683
     58          1           0       30.314836   -1.915022    4.077323
     59          1           0       29.872075   -0.952653    5.489110
     60          1           0       32.301662    1.266017    4.932918
     61          1           0       31.142880    1.854555    6.264271
     62          1           0       32.271845    2.911086    5.463990
     63          1           0       28.880941    5.281496    0.251225
     64          1           0       26.299745    5.499064   -1.264966
     65          1           0       26.251898    6.386846    0.791091
     66          1           0       27.903295    6.897750    1.185556
     67          1           0       27.118104    5.592603    2.174386
     68          1           0       28.641606    6.170987   -2.007814
     69          1           0       27.338617    5.802391   -3.130603
     70          1           0       29.909153    4.800352   -3.262847
     71          1           0       28.517516    4.203026   -4.169949
     72          1           0       28.886137    3.498196   -2.590111
     73          1           0       24.345765    2.682544   -4.696611
     74          1           0       22.992529    1.512706   -4.491532
     75          1           0       24.343251    1.126622   -5.573685
     76          1           0       25.290626   -3.498098   -3.372909
     77          1           0       21.983008   -6.197768   -2.752019
     78          1           0       21.379322   -4.686932   -1.979721
     79          1           0       22.393846   -5.889939   -1.157014
     80         12           0      -27.423916    0.589124    0.121186
     81          6           0      -25.256818   -1.810815    1.458582
     82          6           0      -29.174332   -1.883378   -1.461025
     83          6           0      -29.213240    2.935320   -1.373765
     84          6           0      -25.390590    3.084343    1.675499
     85          7           0      -27.179900   -1.609889   -0.007574
     86          6           0      -26.285512   -2.419001    0.657334
     87          6           0      -26.693716   -3.875516    0.535303
     88          6           0      -27.764890   -3.847746   -0.625598
     89          6           0      -28.112195   -2.319979   -0.618055
     90          6           0      -27.220186   -4.311328   -1.970630
     91          6           0      -27.089006   -4.442611    1.947403
     92          6           0      -27.722606   -5.860283    1.888434
     93          1           0      -27.271344   -6.760190    0.756855
     94          7           0      -28.937051    0.532325   -1.171754
     95          6           0      -29.475734   -0.576432   -1.812303
     96          6           0      -30.525822   -0.194825   -2.772969
     97          6           0      -30.546559    1.232035   -2.700002
     98          6           0      -29.529414    1.615612   -1.724584
     99          6           0      -31.333726   -1.182114   -3.528798
    100          6           0      -31.439785    2.148657   -3.495563
    101          8           0      -31.424621    3.400645   -3.335563
    102          6           0      -32.453214    1.603966   -4.465279
    103          7           0      -27.342783    2.731771    0.199184
    104          6           0      -28.218622    3.424461   -0.529250
    105          6           0      -27.897437    4.981500   -0.448043
    106          6           0      -26.598357    5.032841    0.534148
    107          6           0      -26.415854    3.540231    0.812594
    108          6           0      -27.637968    5.518353   -1.915136
    109          6           0      -26.837516    5.806173    1.900863
    110          6           0      -26.617011    7.345519    1.855735
    111          7           0      -25.679124    0.694447    1.245971
    112          6           0      -25.012710    1.752381    1.918952
    113          6           0      -23.864450    1.184356    2.752084
    114          6           0      -23.871102   -0.191964    2.549092
    115          6           0      -25.052012   -0.443573    1.684215
    116          6           0      -22.932518    1.927856    3.656859
    117          6           0      -23.269317   -1.458092    2.896162
    118          8           0      -22.304862   -1.749191    3.610642
    119          6           0      -24.261217   -2.598296    2.344609
    120          6           0      -23.534920   -3.696329    1.601884
    121          8           0      -23.266107   -3.653237    0.431773
    122          8           0      -23.428533   -4.862599    2.392894
    123          6           0      -23.169320   -6.129821    1.693122
    124          1           0      -29.594954   -2.774119   -1.933082
    125          1           0      -29.797315    3.705370   -1.882336
    126          1           0      -24.669375    3.791997    2.089896
    127          1           0      -25.813972   -4.435380    0.220524
    128          1           0      -28.692916   -4.383336   -0.422971
    129          1           0      -27.863933   -5.134960   -2.279004
    130          1           0      -26.161978   -4.543209   -1.852311
    131          1           0      -27.415263   -3.600076   -2.772875
    132          1           0      -27.604950   -3.587185    2.382351
    133          1           0      -26.154119   -4.498846    2.503999
    134          1           0      -28.789970   -5.648379    1.825099
    135          1           0      -27.491829   -6.370510    2.823478
    136          1           0      -31.044000   -0.978786   -4.559585
    137          1           0      -32.403988   -1.094875   -3.343545
    138          1           0      -31.139212   -2.247381   -3.397984
    139          1           0      -33.190183    1.020662   -3.914960
    140          1           0      -31.772158    1.042675   -5.106191
    141          1           0      -32.951642    2.330936   -5.105918
    142          1           0      -28.805767    5.333838    0.042275
    143          1           0      -25.630132    5.244135    0.078291
    144          1           0      -27.695578    4.756664   -2.692514
    145          1           0      -26.641067    5.955478   -1.977836
    146          1           0      -28.458024    6.205778   -2.120524
    147          1           0      -26.358857    5.311676    2.745638
    148          1           0      -27.896796    5.682881    2.123962
    149          1           0      -27.539054    7.802790    2.212933
    150          1           0      -26.324007    7.622778    0.843043
    151          1           0      -25.817315    7.664179    2.524772
    152          1           0      -23.234102    1.675885    4.673782
    153          1           0      -22.996815    2.999898    3.466709
    154          1           0      -21.873545    1.673606    3.616858
    155          1           0      -24.784779   -2.986812    3.217649
    156          1           0      -22.102334   -6.110977    1.472716
    157          1           0      -23.852523   -6.254543    0.852773
    158          1           0      -23.430637   -6.921057    2.395291
 ---------------------------------------------------------------------

 SCF Done:  E(RPBE1PBE) =  -4067.41314909     A.U. after   16 cycles

 Excitation energies and oscillator strengths:

 Excited State   1:      Singlet-A      1.7552 eV  706.40 nm  f=0.0000  <S**2>=0.000
     312 -> 313        0.70711
 This state for optimization and/or second-order correction.
 Total Energy, E(TD-HF/TD-DFT) =  -4067.34864828
 Copying the excited state density for this state as the 1-particle RhoCI density.

 Excited State   2:      Singlet-A      1.8621 eV  665.83 nm  f=0.3782  <S**2>=0.000
     309 -> 315        0.19120
     312 -> 314        0.68818
     312 <- 314       -0.10016

 Excited State   3:      Singlet-A      1.8775 eV  660.35 nm  f=0.3905  <S**2>=0.000
     310 -> 316        0.17169
     311 -> 313        0.69336
     311 <- 313       -0.11027

 Excited State   4:      Singlet-A      2.2058 eV  562.09 nm  f=0.1667  <S**2>=0.000
     310 -> 313        0.67015
     311 -> 316       -0.21433

 Excited State   5:      Singlet-A      2.2728 eV  545.52 nm  f=0.0000  <S**2>=0.000
     311 -> 314        0.70711

 The electronic state is 1-A.
 Alpha  occ. eigenvalues --  -46.92494 -46.91485 -19.25681 -19.24620 -19.20452
 Alpha  occ. eigenvalues --  -19.19401 -19.19038 -19.18910 -19.18734 -19.18579
 Alpha  occ. eigenvalues --  -14.41613 -14.41588 -14.41125 -14.41033 -14.39636
 Alpha  occ. eigenvalues --  -14.39507 -14.39168 -14.39141 -10.36398 -10.35904
 Alpha  occ. eigenvalues --  -10.32672 -10.32433 -10.32323 -10.31721 -10.28955
 Alpha  occ. eigenvalues --  -10.28838 -10.28812 -10.28756 -10.28574 -10.28517
 Alpha  occ. eigenvalues --  -10.28441 -10.28188 -10.28069 -10.28060 -10.27900
 Alpha  occ. eigenvalues --  -10.27777 -10.27741 -10.27680 -10.27679 -10.27669
 Alpha  occ. eigenvalues --  -10.27274 -10.27129 -10.26841 -10.26753 -10.26730
 Alpha  occ. eigenvalues --  -10.26283 -10.26163 -10.26159 -10.26098 -10.26050
 Alpha  occ. eigenvalues --  -10.25934 -10.25919 -10.25900 -10.25808 -10.25783
 Alpha  occ. eigenvalues --  -10.25738 -10.25580 -10.25499 -10.25357 -10.25344
 Alpha  occ. eigenvalues --  -10.25220 -10.25131 -10.25129 -10.24946 -10.24768
 Alpha  occ. eigenvalues --  -10.24473 -10.24459 -10.24338 -10.24282 -10.24263
 Alpha  occ. eigenvalues --  -10.24121 -10.23877 -10.23875 -10.23753 -10.23662
 Alpha  occ. eigenvalues --  -10.23635 -10.23539 -10.23394 -10.23225 -10.23191
 Alpha  occ. eigenvalues --  -10.23065 -10.22875 -10.22833 -10.22818 -10.22442
 Alpha  occ. eigenvalues --  -10.22405  -3.14682  -3.13742  -1.87506  -1.87017
 Alpha  occ. eigenvalues --   -1.86955  -1.86590  -1.86103  -1.85997  -1.10601
 Alpha  occ. eigenvalues --   -1.10178  -1.04703  -1.04122  -1.03838  -1.02585
 Alpha  occ. eigenvalues --   -1.02440  -1.00608  -1.00083  -0.99315  -0.98914
 Alpha  occ. eigenvalues --   -0.98770  -0.98120  -0.98088  -0.97437  -0.96063
 Alpha  occ. eigenvalues --   -0.86983  -0.85942  -0.83310  -0.83149  -0.82821
 Alpha  occ. eigenvalues --   -0.82525  -0.82447  -0.82162  -0.82090  -0.81856
 Alpha  occ. eigenvalues --   -0.81683  -0.81036  -0.80727  -0.80650  -0.78571
 Alpha  occ. eigenvalues --   -0.78496  -0.78029  -0.77226  -0.76926  -0.76315
 Alpha  occ. eigenvalues --   -0.76164  -0.75998  -0.75486  -0.75036  -0.74597
 Alpha  occ. eigenvalues --   -0.74323  -0.73200  -0.72658  -0.71792  -0.71753
 Alpha  occ. eigenvalues --   -0.71396  -0.71265  -0.70538  -0.70069  -0.69840
 Alpha  occ. eigenvalues --   -0.68896  -0.68004  -0.66516  -0.65982  -0.65900
 Alpha  occ. eigenvalues --   -0.64012  -0.63704  -0.63641  -0.62970  -0.62765
 Alpha  occ. eigenvalues --   -0.62553  -0.61527  -0.61476  -0.60029  -0.59923
 Alpha  occ. eigenvalues --   -0.59673  -0.59640  -0.59228  -0.58758  -0.58455
 Alpha  occ. eigenvalues --   -0.58278  -0.56834  -0.55838  -0.55180  -0.54715
 Alpha  occ. eigenvalues --   -0.54400  -0.54055  -0.53644  -0.53251  -0.52861
 Alpha  occ. eigenvalues --   -0.52431  -0.52190  -0.52168  -0.51878  -0.51346
 Alpha  occ. eigenvalues --   -0.50841  -0.50740  -0.50300  -0.49856  -0.49579
 Alpha  occ. eigenvalues --   -0.49323  -0.49149  -0.48730  -0.48597  -0.48459
 Alpha  occ. eigenvalues --   -0.47958  -0.47849  -0.47839  -0.47758  -0.47225
 Alpha  occ. eigenvalues --   -0.47133  -0.47114  -0.46771  -0.46749  -0.46610
 Alpha  occ. eigenvalues --   -0.46495  -0.46337  -0.45979  -0.45966  -0.45728
 Alpha  occ. eigenvalues --   -0.45379  -0.45337  -0.45055  -0.45029  -0.44811
 Alpha  occ. eigenvalues --   -0.44580  -0.44457  -0.44142  -0.44084  -0.44028
 Alpha  occ. eigenvalues --   -0.43874  -0.43865  -0.43663  -0.43630  -0.43508
 Alpha  occ. eigenvalues --   -0.43408  -0.43363  -0.43159  -0.43153  -0.42804
 Alpha  occ. eigenvalues --   -0.42775  -0.42688  -0.42519  -0.42126  -0.42010
 Alpha  occ. eigenvalues --   -0.41810  -0.41590  -0.41518  -0.41199  -0.40924
 Alpha  occ. eigenvalues --   -0.40915  -0.40759  -0.40713  -0.40603  -0.40453
 Alpha  occ. eigenvalues --   -0.40315  -0.40089  -0.39968  -0.39850  -0.39750
 Alpha  occ. eigenvalues --   -0.39647  -0.39421  -0.39223  -0.38966  -0.38828
 Alpha  occ. eigenvalues --   -0.38802  -0.38767  -0.38386  -0.38294  -0.38195
 Alpha  occ. eigenvalues --   -0.37969  -0.37962  -0.37820  -0.37729  -0.37717
 Alpha  occ. eigenvalues --   -0.37467  -0.37162  -0.37112  -0.37020  -0.36769
 Alpha  occ. eigenvalues --   -0.36565  -0.36355  -0.36259  -0.36175  -0.36060
 Alpha  occ. eigenvalues --   -0.35994  -0.35746  -0.35458  -0.35269  -0.35062
 Alpha  occ. eigenvalues --   -0.34952  -0.34742  -0.34467  -0.34122  -0.34043
 Alpha  occ. eigenvalues --   -0.33456  -0.33426  -0.33234  -0.33200  -0.32989
 Alpha  occ. eigenvalues --   -0.32315  -0.31744  -0.31661  -0.31184  -0.31105
 Alpha  occ. eigenvalues --   -0.30919  -0.30567  -0.29735  -0.29379  -0.29350
 Alpha  occ. eigenvalues --   -0.28680  -0.28632  -0.27990  -0.26974  -0.26826
 Alpha  occ. eigenvalues --   -0.26528  -0.26378  -0.26114  -0.25750  -0.25583
 Alpha  occ. eigenvalues --   -0.25544  -0.25385  -0.25183  -0.20876  -0.20817
 Alpha  occ. eigenvalues --   -0.19063  -0.18149
 Alpha virt. eigenvalues --   -0.11455  -0.10467  -0.05528  -0.04772  -0.04394
 Alpha virt. eigenvalues --   -0.03929  -0.02181  -0.01919  -0.00963  -0.00180
 Alpha virt. eigenvalues --    0.00169   0.00618   0.01104   0.01733   0.01826

 Mulliken charges:
               1
     1  Mg  12.000000
     2  C    6.000000
     3  C    6.000000
     4  C    6.000000
     5  C    6.000000
     6  N    7.000000
     7  C    6.000000
     8  C    6.000000
     9  C    6.000000
    10  C    6.000000
    11  C    6.000000
    12  C    6.000000
    13  C    6.000000
    14  H    1.000000
    15  N    7.000000
    16  C    6.000000
    17  C    6.000000
    18  C    6.000000
    19  C    6.000000
    20  C    6.000000
    21  C    6.000000
    22  O    8.000000
    23  C    6.000000
    24  N    7.000000
    25  C    6.000000
    26  C    6.000000
    27  C    6.000000
    28  C    6.000000
    29  C    6.000000
    30  C    6.000000
    31  C    6.000000
    32  N    7.000000
    33  C    6.000000
    34  C    6.000000
    35  C    6.000000
    36  C    6.000000
    37  C    6.000000
    38  C    6.000000
    39  O    8.000000
    40  C    6.000000
    41  C    6.000000
    42  O    8.000000
    43  O    8.000000
    44  C    6.000000
    45  H    1.000000
    46  H    1.000000
    47  H    1.000000
    48  H    1.000000
    49  H    1.000000
    50  H    1.000000
    51  H    1.000000
    52  H    1.000000
    53  H    1.000000
    54  H    1.000000
    55  H    1.000000
    56  H    1.000000
    57  H    1.000000
    58  H    1.000000
    59  H    1.000000
    60  H    1.000000
    61  H    1.000000
    62  H    1.000000
    63  H    1.000000
    64  H    1.000000
    65  H    1.000000
    66  H    1.000000
    67  H    1.000000
    68  H    1.000000
    69  H    1.000000
    70  H    1.000000
    71  H    1.000000
    72  H    1.000000
    73  H    1.000000
    74  H    1.000000
    75  H    1.000000
    76  H    1.000000
    77  H    1.000000
    78  H    1.000000
    79  H    1.000000
    80  Mg  12.000000
    81  C    6.000000
    82  C    6.000000
    83  C    6.000000
    84  C    6.000000
    85  N    7.000000
    86  C    6.000000
    87  C    6.000000
    88  C    6.000000
    89  C    6.000000
    90  C    6.000000
    91  C    6.000000
    92  C    6.000000
    93  H    1.000000
    94  N    7.000000
    95  C    6.000000
    96  C    6.000000
    97  C    6.000000
    98  C    6.000000
    99  C    6.000000
   100  C    6.000000
   101  O    8.000000
   102  C    6.000000
   103  N    7.000000
   104  C    6.000000
   105  C    6.000000
   106  C    6.000000
   107  C    6.000000
   108  C    6.000000
   109  C    6.000000
   110  C    6.000000
   111  N    7.000000
   112  C    6.000000
   113  C    6.000000
   114  C    6.000000
   115  C    6.000000
   116  C    6.000000
   117  C    6.000000
   118  O    8.000000
   119  C    6.000000
   120  C    6.000000
   121  O    8.000000
   122  O    8.000000
   123  C    6.000000
   124  H    1.000000
   125  H    1.000000
   126  H    1.000000
   127  H    1.000000
   128  H    1.000000
   129  H    1.000000
   130  H    1.000000
   131  H    1.000000
   132  H    1.000000
   133  H    1.000000
   134  H    1.000000
   135  H    1.000000
   136  H    1.000000
   137  H    1.000000
   138  H    1.000000
   139  H    1.000000
   140  H    1.000000
   141  H    1.000000
   142  H    1.000000
   143  H    1.000000
   144  H    1.000000
   145  H    1.000000
   146  H    1.000000
   147  H    1.000000
   148  H    1.000000
   149  H    1.000000
   150  H    1.000000
   151  H    1.000000
   152  H    1.000000
   153  H    1.000000
   154  H    1.000000
   155  H    1.000000
   156  H    1.000000
   157  H    1.000000
   158  H    1.000000
 Sum of Mulliken charges = 624.00000

 Dipole moment (field-independent basis, Debye):
    X=              0.0000    Y=             -0.0000    Z=             -0.0000  Tot=              0.0000
 Quadrupole moment (field-independent basis, Debye-Ang):
   XX=             -0.0000   YY=              0.0000   ZZ=             -0.0000
   XY=             -0.0000   XZ=             -0.0000   YZ=              0.0000

 Normal termination of Gaussian 16 at Fri Oct 15 18:46:17 2021.
