 Gaussian 16, Revision A.03,
 Gaussian 16:  ES64L-G16RevA.03 25-Dec-2016

 --------------------------------------------------------
 #p PBE1PBE/Def2SVP td=(nstates=5) density=(transition=1)
 --------------------------------------------------------

 --------------------------------
 TDDFT excited states in gaussian
 --------------------------------
 Symbolic Z-matrix:
 Charge =  0 Multiplicity = 1

                         Standard orientation:
 ---------------------------------------------------------------------
 Center     Atomic      Atomic             Coordinates (Angstroms)
 Number     Number       Type             X           Y           Z
 ---------------------------------------------------------------------
      1         12           0       20.313357   -0.747627    0.253170
      2          6           0       19.508207    2.187599   -1.630548
      3          6           0       22.256324    1.237788    2.234602
      4          6           0       21.393796   -3.382852    1.647753
      5          6           0       19.255204   -2.618942   -2.489849
      6          7           0       20.745351    1.423084    0.208010
      7          6           0       20.326284    2.447181   -0.528726
      8          6           0       20.777011    3.831952    0.025012
      9          6           0       22.056531    3.366888    0.854798
     10          6           0       21.648172    1.934013    1.148114
     11          6           0       23.342523    3.353055    0.034716
     12          6           0       19.696581    4.481033    0.954042
     13          6           0       19.913142    5.963515    1.271380
     14          1           0       18.750587    6.828865    1.401697
     15          7           0       21.225597   -0.997505    1.987595
     16          6           0       21.958632   -0.075833    2.657271
     17          6           0       22.424772   -0.744112    3.891287
     18          6           0       22.061944   -2.185230    3.793164
     19          6           0       21.562825   -2.252176    2.443432
     20          6           0       23.088185   -0.017025    5.020436
     21          6           0       22.160658   -3.323861    4.758518
     22          8           0       22.005898   -4.539619    4.394435
     23          6           0       22.535596   -2.981226    6.142376
     24          7           0       20.534236   -2.715498   -0.407384
     25          6           0       20.971389   -3.674760    0.415840
     26          6           0       20.780419   -5.036806   -0.182741
     27          6           0       19.893871   -4.823275   -1.493539
     28          6           0       19.793450   -3.278234   -1.461407
     29          6           0       22.064873   -5.791336   -0.552704
     30          6           0       18.584915   -5.645453   -1.598789
     31          6           0       17.601939   -5.182214   -0.546997
     32          7           0       19.355629   -0.333612   -1.650089
     33          6           0       19.027702   -1.262137   -2.648578
     34          6           0       18.497971   -0.497368   -3.792511
     35          6           0       18.570462    0.832835   -3.383673
     36          6           0       19.135594    0.896907   -2.077989
     37          6           0       18.084023   -1.042904   -5.039697
     38          6           0       18.324808    2.216674   -3.755833
     39          8           0       17.771963    2.774349   -4.704966
     40          6           0       19.034675    3.157187   -2.684688
     41          6           0       18.041533    4.210657   -2.275813
     42          8           0       17.013860    3.907161   -1.636170
     43          8           0       18.568696    5.425795   -2.490479
     44          6           0       17.645534    6.516660   -2.078241
     45          1           0       23.075470    1.715774    2.775407
     46          1           0       21.651791   -4.325492    2.134895
     47          1           0       18.826946   -3.140981   -3.347476
     48          1           0       21.070170    4.553070   -0.738186
     49          1           0       22.165393    3.927465    1.783035
     50          1           0       23.144291    3.541593   -1.020310
     51          1           0       23.763813    2.356819    0.170811
     52          1           0       24.074024    4.046968    0.449649
     53          1           0       19.785627    4.061840    1.956244
     54          1           0       18.697647    4.343434    0.538682
     55          1           0       20.649248    6.410833    0.602826
     56          1           0       20.364722    6.038611    2.260641
     57          1           0       23.367603    0.996383    4.734998
     58          1           0       24.037723   -0.518086    5.207582
     59          1           0       22.482583   -0.026569    5.926796
     60          1           0       23.505820   -2.484026    6.139755
     61          1           0       22.469700   -3.908652    6.710170
     62          1           0       21.820688   -2.256314    6.532706
     63          1           0       20.249766   -5.694903    0.504094
     64          1           0       20.440329   -5.075855   -2.402528
     65          1           0       22.153585   -6.766330   -0.072889
     66          1           0       22.913326   -5.154472   -0.304065
     67          1           0       22.213921   -5.943456   -1.621377
     68          1           0       18.783307   -6.699963   -1.410124
     69          1           0       18.105089   -5.567641   -2.574475
     70          1           0       17.912885   -5.736581    0.337775
     71          1           0       16.583876   -5.446126   -0.835282
     72          1           0       17.724852   -4.121592   -0.326861
     73          1           0       17.154509   -0.536969   -5.300472
     74          1           0       17.942710   -2.121401   -4.972781
     75          1           0       18.930588   -0.771001   -5.669976
     76          1           0       19.908318    3.586232   -3.174372
     77          1           0       17.502032    7.160736   -2.945886
     78          1           0       18.075103    6.963857   -1.181641
     79          1           0       16.616559    6.223359   -1.867237
     80         12           0      -20.616797   -0.510214   -0.242045
     81          6           0      -18.104336    1.821632   -0.009998
     82          6           0      -22.909864    2.016698    0.766015
     83          6           0      -23.095412   -2.783752    0.100244
     84          6           0      -18.409165   -2.957434   -0.865033
     85          7           0      -20.504794    1.678116    0.319039
     86          6           0      -19.333843    2.387136    0.341973
     87          6           0      -19.591214    3.864334    0.647889
     88          6           0      -21.128451    3.814116    1.082334
     89          6           0      -21.552073    2.424101    0.707414
     90          6           0      -21.388059    4.215361    2.580769
     91          6           0      -19.342465    4.830224   -0.599092
     92          6           0      -18.620294    6.150267   -0.475222
     93          1           0      -19.002065    7.064479    0.634296
     94          7           0      -22.754608   -0.421886    0.303796
     95          6           0      -23.506127    0.684879    0.493493
     96          6           0      -24.892563    0.366552    0.570394
     97          6           0      -24.988118   -1.042963    0.345053
     98          6           0      -23.557793   -1.471141    0.310828
     99          6           0      -25.862107    1.460382    0.882708
    100          6           0      -26.219612   -1.931610    0.385794
    101          8           0      -26.145203   -3.162398    0.454389
    102          6           0      -27.607930   -1.316555    0.363190
    103          7           0      -20.721989   -2.637221   -0.214473
    104          6           0      -21.891436   -3.328899   -0.182910
    105          6           0      -21.653594   -4.806083   -0.491760
    106          6           0      -20.154104   -4.806064   -0.976844
    107          6           0      -19.725668   -3.382625   -0.679484
    108          6           0      -22.000287   -5.914419    0.545829
    109          6           0      -19.884641   -5.289280   -2.462879
    110          6           0      -19.827980   -4.287528   -3.596735
    111          7           0      -18.670993   -0.617330   -0.312183
    112          6           0      -17.843068   -1.633495   -0.716938
    113          6           0      -16.470544   -1.279476   -0.708203
    114          6           0      -16.517184    0.092749   -0.483052
    115          6           0      -17.874534    0.447408   -0.272322
    116          6           0      -15.191091   -2.056312   -0.990101
    117          6           0      -15.766247    1.261374   -0.332913
    118          8           0      -14.555761    1.386850   -0.359903
    119          6           0      -16.752437    2.511671    0.017688
    120          6           0      -16.359639    3.038950    1.318663
    121          8           0      -16.438449    2.435249    2.406927
    122          8           0      -15.824669    4.287110    1.257391
    123          6           0      -15.103854    4.807210    2.424729
    124          1           0      -23.526070    2.888159    0.995275
    125          1           0      -23.908763   -3.490129   -0.077335
    126          1           0      -17.732572   -3.616452   -1.411756
    127          1           0      -18.880372    4.185707    1.410224
    128          1           0      -21.721631    4.542897    0.529703
    129          1           0      -22.056221    5.075876    2.580789
    130          1           0      -20.392924    4.368587    2.998655
    131          1           0      -21.958334    3.492495    3.164953
    132          1           0      -20.365608    5.017121   -0.925676
    133          1           0      -18.973611    4.271011   -1.458285
    134          1           0      -18.623285    6.667726   -1.434533
    135          1           0      -17.593561    5.893289   -0.217192
    136          1           0      -26.680043    1.315095    0.177979
    137          1           0      -25.431416    2.435990    0.655969
    138          1           0      -26.245932    1.489070    1.903061
    139          1           0      -27.717131   -0.492631   -0.342641
    140          1           0      -27.948344   -1.143353    1.385003
    141          1           0      -28.241914   -2.110549   -0.032606
    142          1           0      -22.382609   -5.010955   -1.276059
    143          1           0      -19.544052   -5.546566   -0.460913
    144          1           0      -21.087535   -6.354557    0.947146
    145          1           0      -22.549976   -6.680402   -0.000920
    146          1           0      -22.603348   -5.424037    1.309201
    147          1           0      -20.669370   -6.006664   -2.699123
    148          1           0      -18.930882   -5.815228   -2.511207
    149          1           0      -20.491421   -4.564497   -4.416363
    150          1           0      -18.826407   -4.146297   -4.005116
    151          1           0      -20.153796   -3.347341   -3.151735
    152          1           0      -15.449977   -3.076510   -1.276011
    153          1           0      -14.561112   -2.042318   -0.100344
    154          1           0      -14.661150   -1.563847   -1.804933
    155          1           0      -16.451175    3.214457   -0.759663
    156          1           0      -14.380822    5.588135    2.188786
    157          1           0      -14.675698    4.055008    3.086602
    158          1           0      -15.846730    5.385224    2.974617
 ---------------------------------------------------------------------

 SCF Done:  E(RPBE1PBE) =  -4067.40515080     A.U. after   16 cycles

 Excitation energies and oscillator strengths:

 Excited State   1:      Singlet-A      1.8414 eV  673.31 nm  f=0.3801  <S**2>=0.000
     309 -> 315        0.16195
     312 -> 314        0.69318
     312 <- 314       -0.11105
 This state for optimization and/or second-order correction.
 Total Energy, E(TD-HF/TD-DFT) =  -4067.33748028
 Copying the excited state density for this state as the 1-particle RhoCI density.

 Excited State   2:      Singlet-A      1.8776 eV  660.35 nm  f=0.3906  <S**2>=0.000
     310 -> 316       -0.17159
     311 -> 313        0.69330
     311 <- 313       -0.11026

 Excited State   3:      Singlet-A      1.8940 eV  654.63 nm  f=0.0000  <S**2>=0.000
     312 -> 313        0.70710

 Excited State   4:      Singlet-A      2.0515 eV  604.35 nm  f=0.0000  <S**2>=0.000
     311 -> 314        0.70711

 Excited State   5:      Singlet-A      2.1929 eV  565.38 nm  f=0.0919  <S**2>=0.000
     309 -> 314        0.65166
     312 -> 315       -0.24160

 The electronic state is 1-A.
 Alpha  occ. eigenvalues --  -46.92484 -46.91158 -19.26891 -19.25670 -19.19271
 Alpha  occ. eigenvalues --  -19.19030 -19.18979 -19.18899 -19.18723 -19.18383
 Alpha  occ. eigenvalues --  -14.41913 -14.41604 -14.41023 -14.40927 -14.39158
 Alpha  occ. eigenvalues --  -14.39132 -14.39019 -14.38223 -10.36073 -10.35893
 Alpha  occ. eigenvalues --  -10.32461 -10.32426 -10.31710 -10.31539 -10.29114
 Alpha  occ. eigenvalues --  -10.28873 -10.28827 -10.28803 -10.28603 -10.28507
 Alpha  occ. eigenvalues --  -10.28187 -10.28178 -10.28104 -10.27970 -10.27767
 Alpha  occ. eigenvalues --  -10.27670 -10.27670 -10.27660 -10.27513 -10.27227
 Alpha  occ. eigenvalues --  -10.27004 -10.26720 -10.26536 -10.26273 -10.26039
 Alpha  occ. eigenvalues --  -10.26030 -10.25986 -10.25910 -10.25889 -10.25869
 Alpha  occ. eigenvalues --  -10.25799 -10.25773 -10.25728 -10.25421 -10.25347
 Alpha  occ. eigenvalues --  -10.25344 -10.25335 -10.25317 -10.25241 -10.25222
 Alpha  occ. eigenvalues --  -10.25179 -10.25123 -10.25120 -10.24821 -10.24744
 Alpha  occ. eigenvalues --  -10.24463 -10.24272 -10.24256 -10.24249 -10.23865
 Alpha  occ. eigenvalues --  -10.23864 -10.23761 -10.23658 -10.23583 -10.23581
 Alpha  occ. eigenvalues --  -10.23532 -10.23387 -10.23243 -10.23183 -10.22883
 Alpha  occ. eigenvalues --  -10.22809 -10.22562 -10.22432 -10.22395 -10.22370
 Alpha  occ. eigenvalues --  -10.22057  -3.14673  -3.13475  -1.87496  -1.87007
 Alpha  occ. eigenvalues --   -1.86945  -1.86298  -1.85863  -1.85709  -1.11388
 Alpha  occ. eigenvalues --   -1.10590  -1.04691  -1.04114  -1.03335  -1.01806
 Alpha  occ. eigenvalues --   -1.01416  -1.00597  -1.00073  -0.99305  -0.99140
 Alpha  occ. eigenvalues --   -0.98760  -0.98336  -0.98111  -0.97867  -0.97056
 Alpha  occ. eigenvalues --   -0.86972  -0.86298  -0.83800  -0.83421  -0.83301
 Alpha  occ. eigenvalues --   -0.82559  -0.82515  -0.82438  -0.82171  -0.82152
 Alpha  occ. eigenvalues --   -0.81942  -0.81674  -0.81406  -0.80718  -0.79201
 Alpha  occ. eigenvalues --   -0.78562  -0.78192  -0.78020  -0.77125  -0.76916
 Alpha  occ. eigenvalues --   -0.76841  -0.75990  -0.75861  -0.75476  -0.74910
 Alpha  occ. eigenvalues --   -0.74588  -0.73072  -0.72649  -0.71782  -0.71513
 Alpha  occ. eigenvalues --   -0.71386  -0.71198  -0.70529  -0.70209  -0.69831
 Alpha  occ. eigenvalues --   -0.69194  -0.67994  -0.67209  -0.66056  -0.65973
 Alpha  occ. eigenvalues --   -0.64186  -0.64002  -0.63632  -0.63200  -0.62543
 Alpha  occ. eigenvalues --   -0.62087  -0.61521  -0.61518  -0.60019  -0.59674
 Alpha  occ. eigenvalues --   -0.59664  -0.59386  -0.59218  -0.59064  -0.58749
 Alpha  occ. eigenvalues --   -0.58735  -0.56842  -0.56823  -0.54913  -0.54706
 Alpha  occ. eigenvalues --   -0.54390  -0.54274  -0.53634  -0.53590  -0.53086
 Alpha  occ. eigenvalues --   -0.52851  -0.52420  -0.52072  -0.51868  -0.51769
 Alpha  occ. eigenvalues --   -0.50840  -0.50832  -0.50341  -0.50021  -0.49846
 Alpha  occ. eigenvalues --   -0.49802  -0.49570  -0.49313  -0.49046  -0.48586
 Alpha  occ. eigenvalues --   -0.48428  -0.47921  -0.47840  -0.47749  -0.47720
 Alpha  occ. eigenvalues --   -0.47522  -0.47216  -0.47105  -0.47070  -0.46945
 Alpha  occ. eigenvalues --   -0.46739  -0.46602  -0.46384  -0.46153  -0.45968
 Alpha  occ. eigenvalues --   -0.45826  -0.45368  -0.45051  -0.45047  -0.44802
 Alpha  occ. eigenvalues --   -0.44601  -0.44451  -0.44448  -0.44133  -0.44097
 Alpha  occ. eigenvalues --   -0.43855  -0.43831  -0.43676  -0.43654  -0.43398
 Alpha  occ. eigenvalues --   -0.43354  -0.43187  -0.43149  -0.43083  -0.42979
 Alpha  occ. eigenvalues --   -0.42795  -0.42509  -0.42304  -0.42117  -0.41918
 Alpha  occ. eigenvalues --   -0.41799  -0.41581  -0.41532  -0.41213  -0.41189
 Alpha  occ. eigenvalues --   -0.41039  -0.40914  -0.40842  -0.40704  -0.40594
 Alpha  occ. eigenvalues --   -0.40522  -0.40079  -0.39909  -0.39740  -0.39270
 Alpha  occ. eigenvalues --   -0.39212  -0.39190  -0.38867  -0.38818  -0.38806
 Alpha  occ. eigenvalues --   -0.38758  -0.38712  -0.38377  -0.38249  -0.38207
 Alpha  occ. eigenvalues --   -0.38185  -0.37953  -0.37827  -0.37719  -0.37457
 Alpha  occ. eigenvalues --   -0.37413  -0.37103  -0.36826  -0.36760  -0.36557
 Alpha  occ. eigenvalues --   -0.36531  -0.36345  -0.36337  -0.36165  -0.35984
 Alpha  occ. eigenvalues --   -0.35931  -0.35745  -0.35561  -0.35449  -0.35449
 Alpha  occ. eigenvalues --   -0.34978  -0.34943  -0.34732  -0.34457  -0.34302
 Alpha  occ. eigenvalues --   -0.33417  -0.33385  -0.33190  -0.32693  -0.32350
 Alpha  occ. eigenvalues --   -0.32305  -0.32223  -0.31673  -0.31652  -0.31224
 Alpha  occ. eigenvalues --   -0.31096  -0.30556  -0.29726  -0.29477  -0.28885
 Alpha  occ. eigenvalues --   -0.28623  -0.28381  -0.27979  -0.26965  -0.26688
 Alpha  occ. eigenvalues --   -0.26517  -0.26106  -0.25971  -0.25535  -0.25374
 Alpha  occ. eigenvalues --   -0.25083  -0.24921  -0.24796  -0.20945  -0.20807
 Alpha  occ. eigenvalues --   -0.19053  -0.18727
 Alpha virt. eigenvalues --   -0.11446  -0.11192  -0.05313  -0.04763  -0.04123
 Alpha virt. eigenvalues --   -0.03920  -0.02143  -0.01910  -0.00952   0.00180
 Alpha virt. eigenvalues --    0.00386   0.00456   0.00483   0.01836   0.02526

 Mulliken charges:
               1
     1  Mg  12.000634
     2  C    5.985366
     3  C    6.011901
     4  C    6.011965
     5  C    5.985656
     6  N    6.992106
     7  C    6.031641
     8  C    5.991583
     9  C    6.008674
    10  C    5.972934
    11  C    6.000715
    12  C    5.996359
    13  C    5.998934
    14  H    0.999683
    15  N    7.003465
    16  C    5.963428
    17  C    5.971083
    18  C    5.984839
    19  C    5.979196
    20  C    6.005154
    21  C    5.985802
    22  O    7.969394
    23  C    6.004863
    24  N    7.000815
    25  C    5.973736
    26  C    6.011282
    27  C    5.988178
    28  C    6.031188
    29  C    5.999508
    30  C    5.996332
    31  C    5.999010
    32  N    6.996780
    33  C    6.043818
    34  C    6.022542
    35  C    6.006143
    36  C    6.028590
    37  C    5.996785
    38  C    6.014960
    39  O    8.030152
    40  C    6.001498
    41  C    6.003365
    42  O    8.004236
    43  O    8.001907
    44  C    5.998751
    45  H    0.992186
    46  H    0.994127
    47  H    1.008899
    48  H    0.999280
    49  H    1.000418
    50  H    0.984590
    51  H    1.004460
    52  H    0.996755
    53  H    1.013196
    54  H    0.994428
    55  H    1.000768
    56  H    1.006597
    57  H    0.980653
    58  H    0.980199
    59  H    0.979417
    60  H    0.994785
    61  H    0.985605
    62  H    0.992847
    63  H    1.000950
    64  H    1.004032
    65  H    1.000022
    66  H    1.005251
    67  H    0.990581
    68  H    1.008982
    69  H    0.997163
    70  H    1.011216
    71  H    1.001348
    72  H    0.997310
    73  H    1.015563
    74  H    1.016547
    75  H    1.018243
    76  H    1.007725
    77  H    1.002865
    78  H    1.005879
    79  H    1.002164
    80  Mg  11.999981
    81  C    6.000286
    82  C    5.999946
    83  C    5.999739
    84  C    5.999915
    85  N    7.000082
    86  C    5.999564
    87  C    6.000139
    88  C    5.999822
    89  C    6.000429
    90  C    5.999942
    91  C    6.000062
    92  C    6.000001
    93  H    0.999957
    94  N    6.999912
    95  C    6.000482
    96  C    6.000273
    97  C    6.000240
    98  C    6.000425
    99  C    5.999954
   100  C    6.000209
   101  O    8.000482
   102  C    5.999910
   103  N    6.999835
   104  C    6.000489
   105  C    5.999866
   106  C    6.000160
   107  C    5.999648
   108  C    5.999999
   109  C    6.000023
   110  C    6.000066
   111  N    7.000007
   112  C    5.999679
   113  C    5.999564
   114  C    6.000012
   115  C    5.999672
   116  C    6.000000
   117  C    5.999695
   118  O    7.999543
   119  C    5.999879
   120  C    5.999962
   121  O    7.999943
   122  O    7.999944
   123  C    6.000032
   124  H    1.000209
   125  H    1.000052
   126  H    0.999790
   127  H    1.000031
   128  H    1.000038
   129  H    1.000073
   130  H    1.000198
   131  H    1.000001
   132  H    0.999859
   133  H    1.000025
   134  H    0.999946
   135  H    1.000049
   136  H    1.000240
   137  H    1.000208
   138  H    1.000336
   139  H    1.000089
   140  H    1.000167
   141  H    1.000222
   142  H    0.999964
   143  H    0.999978
   144  H    1.000138
   145  H    1.000046
   146  H    0.999954
   147  H    0.999872
   148  H    0.999989
   149  H    0.999873
   150  H    0.999988
   151  H    0.999992
   152  H    0.999771
   153  H    0.999749
   154  H    0.999687
   155  H    0.999857
   156  H    0.999893
   157  H    1.000000
   158  H    0.999948
 Sum of Mulliken charges = 624.00000

 Dipole moment (field-independent basis, Debye):
    X=             -5.1215    Y=              1.9785    Z=             -8.8719  Tot=             10.4334
 Quadrupole moment (field-independent basis, Debye-Ang):
   XX=           -196.1280   YY=              1.6200   ZZ=             -5.0747
   XY=             41.9402   XZ=           -183.6032   YZ=              7.2743

 Normal termination of Gaussian 16 at Thu Oct 14 17:14:53 2021.
