 Gaussian 16, Revision A.03,
 Gaussian 16:  ES64L-G16RevA.03 25-Dec-2016

 --------------------------------------------------------
 #p PBE1PBE/Def2SVP td=(nstates=5) density=(transition=1)
 --------------------------------------------------------

 --------------------------------
 TDDFT excited states in gaussian
 --------------------------------
 Symbolic Z-matrix:
 Charge =  0 Multiplicity = 1

                         Standard orientation:
 ---------------------------------------------------------------------
 Center     Atomic      Atomic             Coordinates (Angstroms)
 Number     Number       Type             X           Y           Z
 ---------------------------------------------------------------------
      1         12           0      -20.811789    0.146189   -0.252909
      2          6           0      -17.573065   -0.654346    0.945648
      3          6           0      -21.889636   -2.798339    1.049252
      4          6           0      -23.985958    1.293183   -0.663323
      5          6           0      -19.627088    3.307409   -1.037706
      6          7           0      -19.758299   -1.407173    1.005579
      7          6           0      -18.437635   -1.618393    1.301069
      8          6           0      -18.217109   -2.928808    1.960713
      9          6           0      -19.578187   -3.717809    1.664697
     10          6           0      -20.467184   -2.601699    1.233661
     11          6           0      -19.388356   -4.802322    0.616469
     12          6           0      -17.868874   -2.646943    3.430716
     13          6           0      -16.526270   -3.272095    4.000376
     14          1           0      -16.527259   -4.169286    5.274641
     15          7           0      -22.703553   -0.605468    0.073884
     16          6           0      -22.921312   -1.906850    0.547174
     17          6           0      -24.320922   -2.184806    0.425588
     18          6           0      -24.991791   -1.004968   -0.042960
     19          6           0      -23.871612   -0.061625   -0.303427
     20          6           0      -24.874583   -3.563848    0.760398
     21          6           0      -26.469946   -0.777337   -0.267680
     22          8           0      -27.169199   -1.820235   -0.113124
     23          6           0      -27.217494    0.557055   -0.547648
     24          7           0      -21.721018    2.054049   -0.792720
     25          6           0      -23.050802    2.254976   -0.923921
     26          6           0      -23.413541    3.714134   -1.307319
     27          6           0      -21.989781    4.329221   -1.535894
     28          6           0      -21.034878    3.147343   -1.031694
     29          6           0      -24.298271    3.713080   -2.541092
     30          6           0      -21.708958    5.595685   -0.786243
     31          6           0      -21.569820    6.806808   -1.668142
     32          7           0      -19.027816    1.109919   -0.276468
     33          6           0      -18.623169    2.393114   -0.665618
     34          6           0      -17.255626    2.511469   -0.709092
     35          6           0      -16.789353    1.319763   -0.117443
     36          6           0      -17.903467    0.544341    0.195443
     37          6           0      -16.532442    3.649773   -1.397291
     38          6           0      -15.554688    0.557580    0.208471
     39          8           0      -14.414614    0.854808    0.028560
     40          6           0      -16.108014   -0.698401    0.982176
     41          6           0      -15.292790   -1.889804    0.528736
     42          8           0      -14.402630   -2.421967    1.191958
     43          8           0      -15.735711   -2.334705   -0.740570
     44          6           0      -15.063301   -3.561475   -1.167340
     45          1           0      -22.206753   -3.822140    1.259560
     46          1           0      -24.982155    1.671786   -0.903947
     47          1           0      -19.226709    4.322650   -1.050368
     48          1           0      -17.372068   -3.432944    1.491656
     49          1           0      -19.900774   -4.195139    2.589620
     50          1           0      -18.700533   -4.516534   -0.178164
     51          1           0      -20.341204   -4.957140    0.109197
     52          1           0      -19.108977   -5.770821    1.031205
     53          1           0      -18.702542   -3.011377    4.030780
     54          1           0      -17.877789   -1.588408    3.690580
     55          1           0      -15.977404   -2.357416    4.225947
     56          1           0      -15.928217   -3.698620    3.195938
     57          1           0      -24.535377   -3.894912    1.741958
     58          1           0      -24.460824   -4.243221    0.015273
     59          1           0      -25.956616   -3.662628    0.857540
     60          1           0      -26.896389    0.812683   -1.556920
     61          1           0      -26.879164    1.301517    0.173146
     62          1           0      -28.299304    0.459012   -0.453406
     63          1           0      -23.962361    4.253403   -0.535667
     64          1           0      -21.782435    4.397486   -2.603503
     65          1           0      -25.121724    3.023100   -2.356052
     66          1           0      -23.702730    3.362115   -3.384469
     67          1           0      -24.671748    4.658522   -2.932658
     68          1           0      -20.774842    5.573698   -0.224949
     69          1           0      -22.425826    5.879067   -0.015848
     70          1           0      -22.265098    7.563880   -1.307568
     71          1           0      -21.878214    6.618444   -2.696497
     72          1           0      -20.552312    7.192129   -1.741929
     73          1           0      -15.510974    3.302753   -1.556405
     74          1           0      -16.518910    4.556825   -0.793463
     75          1           0      -17.086681    3.809145   -2.321966
     76          1           0      -15.740939   -0.515941    1.992821
     77          1           0      -15.698649   -4.128213   -1.848092
     78          1           0      -14.944738   -4.258569   -0.339034
     79          1           0      -14.079256   -3.381222   -1.600957
     80         12           0       20.717345    0.554194   -0.248717
     81          6           0       19.018336   -2.467114   -0.481529
     82          6           0       17.506638    2.056053    0.248608
     83          6           0       22.204608    3.393268    0.481348
     84          6           0       23.731601   -1.242630   -0.040370
     85          7           0       18.550383   -0.163041   -0.013855
     86          6           0       18.139168   -1.455244   -0.252371
     87          6           0       16.620835   -1.563722   -0.087548
     88          6           0       16.190562   -0.071550   -0.137692
     89          6           0       17.477263    0.678598    0.085878
     90          6           0       15.471282    0.462664   -1.438087
     91          6           0       16.204186   -2.278039    1.208665
     92          6           0       14.757944   -2.565604    1.345927
     93          1           0       14.345842   -3.717661    2.339925
     94          7           0       19.971379    2.494090    0.311123
     95          6           0       18.635587    2.908032    0.431162
     96          6           0       18.631472    4.301728    0.778578
     97          6           0       20.007753    4.683979    0.987977
     98          6           0       20.811006    3.487542    0.558208
     99          6           0       17.326425    5.104548    1.035931
    100          6           0       20.415249    6.082243    1.463160
    101          8           0       19.609777    6.994260    1.549473
    102          6           0       21.830328    6.335207    1.819599
    103          7           0       22.720589    1.022302   -0.059651
    104          6           0       23.069357    2.286535    0.202169
    105          6           0       24.626243    2.365480    0.473513
    106          6           0       25.158133    0.884283    0.371777
    107          6           0       23.744308    0.124166    0.116313
    108          6           0       25.445851    3.396377   -0.346334
    109          6           0       25.805755    0.456207    1.706069
    110          6           0       26.925850   -0.584106    1.584298
    111          7           0       21.345030   -1.449682   -0.254480
    112          6           0       22.584355   -2.024864   -0.291442
    113          6           0       22.421790   -3.460994   -0.547524
    114          6           0       21.074909   -3.640089   -0.715500
    115          6           0       20.445689   -2.440666   -0.470322
    116          6           0       23.552453   -4.477587   -0.735919
    117          6           0       20.066014   -4.626666   -0.959279
    118          8           0       20.129884   -5.806392   -1.203308
    119          6           0       18.685258   -3.900530   -0.831672
    120          6           0       18.027202   -3.950822   -2.166167
    121          8           0       18.509177   -3.656475   -3.224708
    122          8           0       16.671043   -4.272082   -1.982994
    123          6           0       15.869639   -4.283066   -3.173612
    124          1           0       16.482790    2.431847    0.293804
    125          1           0       22.834844    4.261331    0.687844
    126          1           0       24.655447   -1.824944   -0.051502
    127          1           0       16.258620   -2.046641   -0.994110
    128          1           0       15.557003    0.269092    0.680504
    129          1           0       14.574684    0.952162   -1.058414
    130          1           0       15.453673   -0.186426   -2.313983
    131          1           0       16.081688    1.286762   -1.807073
    132          1           0       16.376274   -1.720814    2.129927
    133          1           0       16.766244   -3.205829    1.315984
    134          1           0       14.390972   -2.798388    0.346305
    135          1           0       14.243059   -1.648797    1.632554
    136          1           0       17.404105    5.137692    2.123123
    137          1           0       16.393223    4.569188    0.859759
    138          1           0       17.143311    6.101057    0.633590
    139          1           0       22.093471    5.516586    2.489450
    140          1           0       21.879514    7.260674    2.393581
    141          1           0       22.340615    6.312026    0.856388
    142          1           0       24.721703    2.711867    1.502980
    143          1           0       25.829654    0.688613   -0.463606
    144          1           0       25.709496    4.220304    0.317554
    145          1           0       24.869458    3.674313   -1.228106
    146          1           0       26.407322    2.964293   -0.623707
    147          1           0       24.980279    0.069565    2.303188
    148          1           0       26.167213    1.287292    2.311997
    149          1           0       27.772729   -0.083896    2.055323
    150          1           0       27.119170   -0.926393    0.567575
    151          1           0       26.699034   -1.456834    2.196792
    152          1           0       23.435175   -5.432657   -0.224945
    153          1           0       24.416499   -3.916315   -0.379466
    154          1           0       23.736614   -4.523226   -1.809395
    155          1           0       18.116548   -4.456503   -0.086213
    156          1           0       15.629367   -5.327738   -3.371390
    157          1           0       16.261147   -3.835250   -4.087319
    158          1           0       14.962588   -3.719428   -2.956958
 ---------------------------------------------------------------------

 SCF Done:  E(RPBE1PBE) =  -4067.37837605     A.U. after   16 cycles

 Excitation energies and oscillator strengths:

 Excited State   1:      Singlet-A      1.8485 eV  670.73 nm  f=0.3424  <S**2>=0.000
     310 -> 316       -0.16636
     311 -> 313        0.69422
     311 <- 313       -0.11258
 This state for optimization and/or second-order correction.
 Total Energy, E(TD-HF/TD-DFT) =  -4067.31044508
 Copying the excited state density for this state as the 1-particle RhoCI density.

 Excited State   2:      Singlet-A      1.9036 eV  651.32 nm  f=0.3831  <S**2>=0.000
     309 -> 315        0.17019
     312 -> 314        0.69344
     312 <- 314       -0.10645

 Excited State   3:      Singlet-A      1.9509 eV  635.51 nm  f=0.0000  <S**2>=0.000
     312 -> 313        0.70710

 Excited State   4:      Singlet-A      2.0359 eV  608.98 nm  f=0.0000  <S**2>=0.000
     311 -> 314        0.70711

 Excited State   5:      Singlet-A      2.2338 eV  555.05 nm  f=0.1568  <S**2>=0.000
     310 -> 313        0.65765
     311 -> 316        0.24163

 The electronic state is 1-A.
 Alpha  occ. eigenvalues --  -46.93014 -46.92430 -19.26306 -19.25640 -19.21281
 Alpha  occ. eigenvalues --  -19.20716 -19.20116 -19.18927 -19.18685 -19.18536
 Alpha  occ. eigenvalues --  -14.42197 -14.41944 -14.41763 -14.41700 -14.39723
 Alpha  occ. eigenvalues --  -14.39705 -14.38872 -14.38745 -10.37436 -10.36545
 Alpha  occ. eigenvalues --  -10.32850 -10.32695 -10.31780 -10.31460 -10.29867
 Alpha  occ. eigenvalues --  -10.29701 -10.29040 -10.28926 -10.28918 -10.28902
 Alpha  occ. eigenvalues --  -10.28581 -10.28551 -10.28508 -10.28463 -10.28423
 Alpha  occ. eigenvalues --  -10.28318 -10.28299 -10.28299 -10.27273 -10.26873
 Alpha  occ. eigenvalues --  -10.26809 -10.26667 -10.26345 -10.26303 -10.26203
 Alpha  occ. eigenvalues --  -10.26200 -10.26143 -10.26128 -10.26058 -10.26045
 Alpha  occ. eigenvalues --  -10.26033 -10.26033 -10.25984 -10.25958 -10.25877
 Alpha  occ. eigenvalues --  -10.25834 -10.25724 -10.25450 -10.25448 -10.25443
 Alpha  occ. eigenvalues --  -10.25317 -10.25229 -10.25213 -10.25155 -10.25057
 Alpha  occ. eigenvalues --  -10.24687 -10.24659 -10.24654 -10.24639 -10.24365
 Alpha  occ. eigenvalues --  -10.24202 -10.24073 -10.23975 -10.23957 -10.23944
 Alpha  occ. eigenvalues --  -10.23905 -10.23786 -10.23713 -10.23694 -10.23582
 Alpha  occ. eigenvalues --  -10.23225 -10.23100 -10.22918 -10.22820 -10.22635
 Alpha  occ. eigenvalues --  -10.21906  -3.15018  -3.14572  -1.87864  -1.87396
 Alpha  occ. eigenvalues --   -1.87393  -1.87226  -1.86952  -1.86801  -1.11393
 Alpha  occ. eigenvalues --   -1.10362  -1.06873  -1.05253  -1.04642  -1.03692
 Alpha  occ. eigenvalues --   -1.02820  -1.02329  -0.99897  -0.99267  -0.98968
 Alpha  occ. eigenvalues --   -0.98413  -0.98267  -0.98012  -0.97429  -0.97423
 Alpha  occ. eigenvalues --   -0.87732  -0.87713  -0.84217  -0.83654  -0.83626
 Alpha  occ. eigenvalues --   -0.83456  -0.83382  -0.83086  -0.82425  -0.82210
 Alpha  occ. eigenvalues --   -0.81434  -0.80849  -0.80256  -0.80167  -0.79392
 Alpha  occ. eigenvalues --   -0.79120  -0.78635  -0.78330  -0.77305  -0.76955
 Alpha  occ. eigenvalues --   -0.76744  -0.76118  -0.75656  -0.75205  -0.75035
 Alpha  occ. eigenvalues --   -0.74850  -0.72163  -0.72070  -0.71769  -0.71682
 Alpha  occ. eigenvalues --   -0.71243  -0.71205  -0.70820  -0.70519  -0.69888
 Alpha  occ. eigenvalues --   -0.69809  -0.68008  -0.67760  -0.66692  -0.66461
 Alpha  occ. eigenvalues --   -0.63800  -0.63752  -0.63400  -0.63396  -0.62282
 Alpha  occ. eigenvalues --   -0.62142  -0.61701  -0.61029  -0.60714  -0.60476
 Alpha  occ. eigenvalues --   -0.60174  -0.60091  -0.59963  -0.59521  -0.59401
 Alpha  occ. eigenvalues --   -0.59092  -0.57704  -0.57285  -0.55097  -0.54682
 Alpha  occ. eigenvalues --   -0.54648  -0.54524  -0.54231  -0.53844  -0.53664
 Alpha  occ. eigenvalues --   -0.53312  -0.53088  -0.52737  -0.52220  -0.51402
 Alpha  occ. eigenvalues --   -0.51081  -0.50852  -0.50385  -0.50360  -0.50231
 Alpha  occ. eigenvalues --   -0.49912  -0.49461  -0.49452  -0.49000  -0.48938
 Alpha  occ. eigenvalues --   -0.48582  -0.48470  -0.48248  -0.48126  -0.47830
 Alpha  occ. eigenvalues --   -0.47801  -0.47503  -0.47411  -0.47306  -0.46857
 Alpha  occ. eigenvalues --   -0.46540  -0.46535  -0.46293  -0.46220  -0.46107
 Alpha  occ. eigenvalues --   -0.45753  -0.45542  -0.45441  -0.45304  -0.45169
 Alpha  occ. eigenvalues --   -0.44948  -0.44854  -0.44852  -0.44694  -0.44518
 Alpha  occ. eigenvalues --   -0.44498  -0.44295  -0.43941  -0.43739  -0.43605
 Alpha  occ. eigenvalues --   -0.43335  -0.43319  -0.43020  -0.42848  -0.42748
 Alpha  occ. eigenvalues --   -0.42669  -0.42440  -0.42221  -0.42005  -0.41907
 Alpha  occ. eigenvalues --   -0.41898  -0.41745  -0.41649  -0.41345  -0.41189
 Alpha  occ. eigenvalues --   -0.41105  -0.41081  -0.40844  -0.40840  -0.40671
 Alpha  occ. eigenvalues --   -0.40543  -0.40497  -0.40228  -0.40106  -0.40100
 Alpha  occ. eigenvalues --   -0.39963  -0.39839  -0.39698  -0.39340  -0.39017
 Alpha  occ. eigenvalues --   -0.38964  -0.38695  -0.38628  -0.38507  -0.38368
 Alpha  occ. eigenvalues --   -0.38168  -0.38157  -0.38001  -0.37775  -0.37612
 Alpha  occ. eigenvalues --   -0.37587  -0.37338  -0.37283  -0.37233  -0.37233
 Alpha  occ. eigenvalues --   -0.37142  -0.36921  -0.36804  -0.36659  -0.36583
 Alpha  occ. eigenvalues --   -0.36422  -0.36375  -0.36228  -0.36030  -0.35448
 Alpha  occ. eigenvalues --   -0.35200  -0.35071  -0.34726  -0.34625  -0.34067
 Alpha  occ. eigenvalues --   -0.33779  -0.33715  -0.33217  -0.33022  -0.32787
 Alpha  occ. eigenvalues --   -0.32662  -0.32407  -0.32218  -0.31928  -0.31488
 Alpha  occ. eigenvalues --   -0.31472  -0.31115  -0.30318  -0.30125  -0.29873
 Alpha  occ. eigenvalues --   -0.29546  -0.29231  -0.28871  -0.27439  -0.27372
 Alpha  occ. eigenvalues --   -0.26179  -0.26005  -0.25781  -0.25687  -0.25579
 Alpha  occ. eigenvalues --   -0.25504  -0.25116  -0.25101  -0.21534  -0.21395
 Alpha  occ. eigenvalues --   -0.19293  -0.19251
 Alpha virt. eigenvalues --   -0.11761  -0.11487  -0.05457  -0.05384  -0.03999
 Alpha virt. eigenvalues --   -0.03295  -0.02131  -0.01700  -0.00970  -0.00713
 Alpha virt. eigenvalues --   -0.00486   0.00321   0.00696   0.00703   0.01378

 Mulliken charges:
               1
     1  Mg  11.998738
     2  C    6.022764
     3  C    6.006771
     4  C    5.966728
     5  C    5.980944
     6  N    7.026571
     7  C    5.973694
     8  C    6.009495
     9  C    5.984900
    10  C    6.023448
    11  C    5.995901
    12  C    6.004218
    13  C    5.999704
    14  H    0.995136
    15  N    6.993842
    16  C    6.033232
    17  C    6.020157
    18  C    6.007427
    19  C    6.040301
    20  C    5.997496
    21  C    6.011378
    22  O    8.018845
    23  C    6.002343
    24  N    6.982673
    25  C    6.036511
    26  C    5.990137
    27  C    6.005938
    28  C    5.981308
    29  C    5.997042
    30  C    6.005100
    31  C    6.001807
    32  N    6.999509
    33  C    5.977674
    34  C    5.972366
    35  C    5.996787
    36  C    5.967163
    37  C    5.999218
    38  C    5.980943
    39  O    7.975329
    40  C    5.997702
    41  C    5.996535
    42  O    7.993920
    43  O    8.001627
    44  C    6.002712
    45  H    1.014441
    46  H    1.001417
    47  H    0.985400
    48  H    1.002006
    49  H    1.004848
    50  H    1.013911
    51  H    0.995560
    52  H    1.009936
    53  H    0.990339
    54  H    1.003555
    55  H    1.004500
    56  H    1.001549
    57  H    1.015816
    58  H    1.016653
    59  H    1.013534
    60  H    1.009378
    61  H    1.009415
    62  H    1.009751
    63  H    0.999956
    64  H    0.998218
    65  H    0.991811
    66  H    1.004294
    67  H    1.005558
    68  H    1.004528
    69  H    0.989970
    70  H    0.993303
    71  H    0.995092
    72  H    1.001858
    73  H    0.986692
    74  H    0.981463
    75  H    0.985580
    76  H    0.995274
    77  H    0.993676
    78  H    0.994789
    79  H    0.999895
    80  Mg  11.999982
    81  C    6.000173
    82  C    6.000089
    83  C    5.999816
    84  C    5.999970
    85  N    7.000113
    86  C    5.999742
    87  C    6.000035
    88  C    5.999940
    89  C    6.000117
    90  C    5.999970
    91  C    6.000022
    92  C    5.999965
    93  H    1.000021
    94  N    6.999928
    95  C    6.000280
    96  C    6.000198
    97  C    6.000073
    98  C    6.000252
    99  C    5.999972
   100  C    6.000109
   101  O    8.000196
   102  C    5.999991
   103  N    6.999969
   104  C    6.000282
   105  C    5.999948
   106  C    6.000056
   107  C    5.999834
   108  C    6.000004
   109  C    6.000044
   110  C    6.000027
   111  N    7.000022
   112  C    5.999774
   113  C    5.999659
   114  C    6.000009
   115  C    5.999781
   116  C    6.000004
   117  C    5.999829
   118  O    7.999744
   119  C    6.000000
   120  C    5.999966
   121  O    7.999968
   122  O    7.999978
   123  C    6.000001
   124  H    1.000194
   125  H    0.999991
   126  H    0.999861
   127  H    1.000038
   128  H    1.000064
   129  H    1.000152
   130  H    1.000143
   131  H    0.999963
   132  H    0.999932
   133  H    1.000023
   134  H    1.000045
   135  H    1.000027
   136  H    1.000125
   137  H    1.000208
   138  H    1.000174
   139  H    1.000050
   140  H    1.000073
   141  H    1.000055
   142  H    0.999957
   143  H    0.999939
   144  H    0.999956
   145  H    0.999988
   146  H    1.000011
   147  H    1.000004
   148  H    0.999879
   149  H    0.999905
   150  H    0.999996
   151  H    0.999990
   152  H    0.999821
   153  H    0.999849
   154  H    0.999814
   155  H    0.999947
   156  H    0.999974
   157  H    0.999973
   158  H    1.000028
 Sum of Mulliken charges = 624.00000

 Dipole moment (field-independent basis, Debye):
    X=             -8.1196    Y=             -5.4881    Z=              1.2842  Tot=              9.8841
 Quadrupole moment (field-independent basis, Debye-Ang):
   XX=            333.8832   YY=             -3.1031   ZZ=             -0.8073
   XY=            117.1861   XZ=            -24.8524   YZ=              1.2964

 Normal termination of Gaussian 16 at Fri Oct 15 00:39:13 2021.
