 Gaussian 16, Revision A.03,
 Gaussian 16:  ES64L-G16RevA.03 25-Dec-2016

 --------------------------------------------------------
 #p PBE1PBE/Def2SVP td=(nstates=5) density=(transition=1)
 --------------------------------------------------------

 --------------------------------
 TDDFT excited states in gaussian
 --------------------------------
 Symbolic Z-matrix:
 Charge =  0 Multiplicity = 1

                         Standard orientation:
 ---------------------------------------------------------------------
 Center     Atomic      Atomic             Coordinates (Angstroms)
 Number     Number       Type             X           Y           Z
 ---------------------------------------------------------------------
      1         12           0       26.481987    0.558752   -0.324306
      2          6           0       25.516050   -2.712020    0.150357
      3          6           0       23.238868    1.513509    0.160373
      4          6           0       27.633639    3.553935    0.460097
      5          6           0       29.769487   -0.596177   -0.755546
      6          7           0       24.712977   -0.508962    0.567687
      7          6           0       24.492741   -1.842824    0.439937
      8          6           0       23.065467   -2.223137    0.701981
      9          6           0       22.353412   -0.899427    0.273244
     10          6           0       23.506286    0.093376    0.255427
     11          6           0       21.569909   -1.034096   -1.063916
     12          6           0       22.799719   -2.559779    2.254396
     13          6           0       21.730623   -3.715710    2.532516
     14          1           0       20.604611   -3.121688    3.342005
     15          7           0       25.531721    2.335895    0.039014
     16          6           0       24.224378    2.563326    0.293354
     17          6           0       23.996080    3.970128    0.598276
     18          6           0       25.265729    4.580824    0.655450
     19          6           0       26.215418    3.466012    0.381290
     20          6           0       22.570100    4.511988    0.861411
     21          6           0       25.473481    5.987753    1.142563
     22          8           0       24.519169    6.664849    1.423760
     23          6           0       26.849775    6.642996    1.366322
     24          7           0       28.442756    1.452355   -0.283932
     25          6           0       28.626936    2.645096    0.072805
     26          6           0       30.059370    3.003815    0.220303
     27          6           0       30.788662    1.663701   -0.187347
     28          6           0       29.639275    0.783296   -0.423015
     29          6           0       30.423159    4.287972   -0.599097
     30          6           0       31.748374    1.125078    0.972184
     31          6           0       32.857632    0.088757    0.571051
     32          7           0       27.482799   -1.244675   -0.397825
     33          6           0       28.799832   -1.553222   -0.686153
     34          6           0       28.968254   -2.973446   -0.822384
     35          6           0       27.654434   -3.489921   -0.544058
     36          6           0       26.846634   -2.424051   -0.197666
     37          6           0       30.215042   -3.720203   -1.171988
     38          6           0       26.890762   -4.688144   -0.483004
     39          8           0       27.133130   -5.890587   -0.648658
     40          6           0       25.528882   -4.257686    0.155752
     41          6           0       24.456492   -4.935981   -0.629791
     42          8           0       23.939232   -6.021407   -0.330619
     43          8           0       24.175527   -4.208435   -1.753199
     44          6           0       23.138808   -4.925483   -2.547504
     45          1           0       22.224382    1.918498    0.163747
     46          1           0       27.985378    4.536310    0.780348
     47          1           0       30.803656   -0.948974   -0.755090
     48          1           0       22.871236   -3.019262   -0.015630
     49          1           0       21.594776   -0.648581    1.014810
     50          1           0       20.506715   -0.890222   -0.873692
     51          1           0       21.678913   -2.067285   -1.395296
     52          1           0       22.015793   -0.339700   -1.775339
     53          1           0       22.572502   -1.711492    2.899883
     54          1           0       23.718707   -2.903045    2.728417
     55          1           0       22.262968   -4.418496    3.173628
     56          1           0       21.359207   -4.320545    1.705197
     57          1           0       22.426711    4.972467    1.838837
     58          1           0       21.779576    3.776685    0.707343
     59          1           0       22.365417    5.244670    0.081492
     60          1           0       27.425492    6.759274    0.448683
     61          1           0       27.459480    6.137430    2.115586
     62          1           0       26.624858    7.577986    1.880359
     63          1           0       30.163968    3.170698    1.292280
     64          1           0       31.332038    1.635054   -1.131512
     65          1           0       30.808246    5.017029    0.113508
     66          1           0       29.563081    4.683335   -1.139817
     67          1           0       31.306372    4.180110   -1.228509
     68          1           0       31.156314    0.659424    1.760332
     69          1           0       32.214352    2.015490    1.391698
     70          1           0       33.914080    0.306704    0.725212
     71          1           0       32.826028   -0.108625   -0.499590
     72          1           0       32.686326   -0.860592    1.078514
     73          1           0       31.066803   -3.124121   -1.498953
     74          1           0       29.817461   -4.361375   -1.957677
     75          1           0       30.339393   -4.307984   -0.262418
     76          1           0       25.434043   -4.498557    1.215105
     77          1           0       23.572323   -5.829967   -2.973015
     78          1           0       22.860171   -4.391823   -3.456194
     79          1           0       22.282504   -5.094014   -1.894147
     80         12           0      -26.395759   -0.286832    0.553129
     81          6           0      -24.665046    1.735306   -1.632622
     82          6           0      -26.874996   -2.599725   -2.128128
     83          6           0      -28.355233   -2.093158    2.466325
     84          6           0      -26.043884    2.080824    3.089649
     85          7           0      -25.793073   -0.343480   -1.602597
     86          6           0      -25.068801    0.568263   -2.258137
     87          6           0      -24.783057    0.043683   -3.703072
     88          6           0      -25.642798   -1.296389   -3.830748
     89          6           0      -26.207563   -1.413787   -2.401875
     90          6           0      -26.846771   -1.257564   -4.752204
     91          6           0      -23.294735   -0.109671   -4.050975
     92          6           0      -22.957578    0.581916   -5.361215
     93          1           0      -21.782219    0.107606   -6.228209
     94          7           0      -27.394026   -2.134980    0.221175
     95          6           0      -27.440355   -2.942077   -0.878824
     96          6           0      -28.162265   -4.112805   -0.648285
     97          6           0      -28.733848   -3.967235    0.663750
     98          6           0      -28.153529   -2.686457    1.197034
     99          6           0      -28.318068   -5.234011   -1.665387
    100          6           0      -29.739783   -4.858964    1.373162
    101          8           0      -30.236439   -4.457959    2.443618
    102          6           0      -30.228008   -6.115316    0.776034
    103          7           0      -27.038164   -0.030701    2.465649
    104          6           0      -27.823224   -0.957260    3.120593
    105          6           0      -28.212441   -0.561783    4.593381
    106          6           0      -27.204069    0.646503    4.807657
    107          6           0      -26.740985    0.940590    3.369051
    108          6           0      -29.691849   -0.163195    4.977968
    109          6           0      -26.077345    0.509749    5.929771
    110          6           0      -24.890916   -0.339996    5.558249
    111          7           0      -25.683987    1.564736    0.723597
    112          6           0      -25.585129    2.445511    1.783832
    113          6           0      -24.925068    3.635086    1.429983
    114          6           0      -24.525127    3.364763    0.116218
    115          6           0      -24.999536    2.084917   -0.294415
    116          6           0      -24.669656    4.709062    2.399668
    117          6           0      -23.902197    4.027034   -0.964433
    118          8           0      -23.506389    5.193664   -1.006075
    119          6           0      -23.920381    2.987394   -2.202898
    120          6           0      -24.601380    3.602255   -3.328689
    121          8           0      -25.792611    3.775200   -3.449746
    122          8           0      -23.718984    4.073213   -4.201267
    123          6           0      -24.186020    4.826896   -5.325389
    124          1           0      -27.059951   -3.274709   -2.965856
    125          1           0      -28.984712   -2.581198    3.212906
    126          1           0      -25.958890    2.795722    3.910775
    127          1           0      -25.266254    0.826468   -4.286899
    128          1           0      -24.967944   -2.026089   -4.279595
    129          1           0      -26.948432   -0.336491   -5.326913
    130          1           0      -27.766638   -1.324756   -4.171937
    131          1           0      -26.878895   -2.164703   -5.356423
    132          1           0      -22.935722   -1.138055   -4.095019
    133          1           0      -22.720661    0.332562   -3.237084
    134          1           0      -22.652985    1.593945   -5.092080
    135          1           0      -23.867714    0.546947   -5.959693
    136          1           0      -27.631525   -5.115853   -2.503780
    137          1           0      -29.299011   -5.147537   -2.133210
    138          1           0      -28.292855   -6.209614   -1.181372
    139          1           0      -31.181976   -6.408569    1.215718
    140          1           0      -29.511162   -6.891646    1.045301
    141          1           0      -30.346345   -6.002265   -0.301340
    142          1           0      -27.856356   -1.287885    5.324885
    143          1           0      -27.760801    1.490737    5.212459
    144          1           0      -30.300795   -0.246912    4.078679
    145          1           0      -29.732499    0.913665    5.146495
    146          1           0      -30.168320   -0.681822    5.810399
    147          1           0      -26.548530   -0.011485    6.762720
    148          1           0      -25.743894    1.460887    6.343042
    149          1           0      -24.031233    0.074257    6.083818
    150          1           0      -24.626279   -0.511901    4.515681
    151          1           0      -25.111044   -1.345410    5.917151
    152          1           0      -24.527109    4.445434    3.447351
    153          1           0      -25.305264    5.589896    2.317328
    154          1           0      -23.723374    5.098716    2.025267
    155          1           0      -22.885751    2.775643   -2.472025
    156          1           0      -24.410905    4.194032   -6.184644
    157          1           0      -23.364778    5.473857   -5.633227
    158          1           0      -25.088298    5.375350   -5.054424
 ---------------------------------------------------------------------

 SCF Done:  E(RPBE1PBE) =  -4067.38019349     A.U. after   17 cycles

 Excitation energies and oscillator strengths:

 Excited State   1:      Singlet-A      1.7987 eV  689.31 nm  f=0.3458  <S**2>=0.000
     310 -> 315        0.16141
     312 -> 314        0.69480
     312 <- 314       -0.10914
 This state for optimization and/or second-order correction.
 Total Energy, E(TD-HF/TD-DFT) =  -4067.31409373
 Copying the excited state density for this state as the 1-particle RhoCI density.

 Excited State   2:      Singlet-A      1.8680 eV  663.71 nm  f=0.4002  <S**2>=0.000
     309 -> 316       -0.16545
     311 -> 313        0.69321
     311 <- 313       -0.11113

 Excited State   3:      Singlet-A      1.9069 eV  650.19 nm  f=0.0000  <S**2>=0.000
     312 -> 313        0.70711

 Excited State   4:      Singlet-A      2.0466 eV  605.81 nm  f=0.0000  <S**2>=0.000
     311 -> 314        0.70711

 Excited State   5:      Singlet-A      2.1990 eV  563.83 nm  f=0.1030  <S**2>=0.000
     310 -> 314        0.65387
     312 -> 315       -0.25108

 The electronic state is 1-A.
 Alpha  occ. eigenvalues --  -46.92582 -46.91103 -19.26298 -19.25415 -19.19442
 Alpha  occ. eigenvalues --  -19.19411 -19.18911 -19.18802 -19.18463 -19.18419
 Alpha  occ. eigenvalues --  -14.41839 -14.41677 -14.41505 -14.41464 -14.39738
 Alpha  occ. eigenvalues --  -14.39333 -14.38672 -14.38444 -10.35833 -10.35221
 Alpha  occ. eigenvalues --  -10.32608 -10.31940 -10.31697 -10.31482 -10.29764
 Alpha  occ. eigenvalues --  -10.29221 -10.29014 -10.29009 -10.28921 -10.28901
 Alpha  occ. eigenvalues --  -10.28410 -10.28385 -10.28306 -10.28188 -10.28107
 Alpha  occ. eigenvalues --  -10.27941 -10.27880 -10.26988 -10.26798 -10.26791
 Alpha  occ. eigenvalues --  -10.26622 -10.26515 -10.26392 -10.26356 -10.26153
 Alpha  occ. eigenvalues --  -10.26145 -10.26133 -10.26093 -10.25986 -10.25923
 Alpha  occ. eigenvalues --  -10.25902 -10.25878 -10.25793 -10.25658 -10.25499
 Alpha  occ. eigenvalues --  -10.25478 -10.25417 -10.25351 -10.25334 -10.25221
 Alpha  occ. eigenvalues --  -10.25198 -10.25136 -10.25081 -10.25057 -10.24993
 Alpha  occ. eigenvalues --  -10.24828 -10.24622 -10.24618 -10.24451 -10.24421
 Alpha  occ. eigenvalues --  -10.24345 -10.24162 -10.23918 -10.23914 -10.23833
 Alpha  occ. eigenvalues --  -10.23827 -10.23762 -10.23760 -10.23658 -10.23617
 Alpha  occ. eigenvalues --  -10.23521 -10.23225 -10.23048 -10.22552 -10.22450
 Alpha  occ. eigenvalues --  -10.22383  -3.14734  -3.13462  -1.87561  -1.87123
 Alpha  occ. eigenvalues --   -1.86949  -1.86303  -1.85855  -1.85690  -1.12692
 Alpha  occ. eigenvalues --   -1.10816  -1.06411  -1.03651  -1.03162  -1.03119
 Alpha  occ. eigenvalues --   -1.02570  -1.01676  -1.01374  -0.99286  -0.99070
 Alpha  occ. eigenvalues --   -0.98534  -0.98368  -0.97934  -0.97694  -0.97210
 Alpha  occ. eigenvalues --   -0.87070  -0.86446  -0.84097  -0.83665  -0.83025
 Alpha  occ. eigenvalues --   -0.82934  -0.82618  -0.82526  -0.81946  -0.81891
 Alpha  occ. eigenvalues --   -0.81639  -0.81199  -0.81069  -0.80798  -0.78864
 Alpha  occ. eigenvalues --   -0.78513  -0.78197  -0.78129  -0.77229  -0.76537
 Alpha  occ. eigenvalues --   -0.76522  -0.75870  -0.75557  -0.75173  -0.74974
 Alpha  occ. eigenvalues --   -0.74702  -0.72824  -0.72602  -0.71960  -0.71663
 Alpha  occ. eigenvalues --   -0.71223  -0.71102  -0.70353  -0.70273  -0.69786
 Alpha  occ. eigenvalues --   -0.69628  -0.67923  -0.67216  -0.66624  -0.65887
 Alpha  occ. eigenvalues --   -0.64900  -0.64002  -0.63644  -0.63306  -0.62586
 Alpha  occ. eigenvalues --   -0.62169  -0.62037  -0.61471  -0.61346  -0.59854
 Alpha  occ. eigenvalues --   -0.59793  -0.59437  -0.59429  -0.59146  -0.59054
 Alpha  occ. eigenvalues --   -0.58895  -0.57073  -0.56900  -0.54944  -0.54932
 Alpha  occ. eigenvalues --   -0.54592  -0.54220  -0.53736  -0.53583  -0.53389
 Alpha  occ. eigenvalues --   -0.53162  -0.52834  -0.52581  -0.52210  -0.51439
 Alpha  occ. eigenvalues --   -0.51287  -0.51132  -0.50779  -0.50610  -0.50300
 Alpha  occ. eigenvalues --   -0.49665  -0.49540  -0.49166  -0.48923  -0.48828
 Alpha  occ. eigenvalues --   -0.48278  -0.48119  -0.47799  -0.47545  -0.47309
 Alpha  occ. eigenvalues --   -0.47153  -0.46919  -0.46800  -0.46797  -0.46643
 Alpha  occ. eigenvalues --   -0.46459  -0.46386  -0.46290  -0.45927  -0.45875
 Alpha  occ. eigenvalues --   -0.45785  -0.45371  -0.44929  -0.44804  -0.44791
 Alpha  occ. eigenvalues --   -0.44765  -0.44517  -0.44509  -0.44289  -0.44136
 Alpha  occ. eigenvalues --   -0.44076  -0.43902  -0.43881  -0.43747  -0.43643
 Alpha  occ. eigenvalues --   -0.43548  -0.43316  -0.43079  -0.42969  -0.42824
 Alpha  occ. eigenvalues --   -0.42445  -0.42432  -0.42371  -0.42021  -0.42006
 Alpha  occ. eigenvalues --   -0.41633  -0.41585  -0.41432  -0.41242  -0.41121
 Alpha  occ. eigenvalues --   -0.41046  -0.41025  -0.40804  -0.40663  -0.40532
 Alpha  occ. eigenvalues --   -0.40236  -0.40209  -0.40063  -0.39878  -0.39784
 Alpha  occ. eigenvalues --   -0.39703  -0.39480  -0.39316  -0.39218  -0.39214
 Alpha  occ. eigenvalues --   -0.39123  -0.38920  -0.38709  -0.38673  -0.38409
 Alpha  occ. eigenvalues --   -0.38323  -0.38286  -0.38070  -0.38038  -0.37563
 Alpha  occ. eigenvalues --   -0.37528  -0.37461  -0.37384  -0.37047  -0.36905
 Alpha  occ. eigenvalues --   -0.36870  -0.36805  -0.36341  -0.36322  -0.36246
 Alpha  occ. eigenvalues --   -0.36126  -0.36107  -0.35944  -0.35861  -0.35751
 Alpha  occ. eigenvalues --   -0.35396  -0.34978  -0.34604  -0.34134  -0.33814
 Alpha  occ. eigenvalues --   -0.33629  -0.33245  -0.33122  -0.32742  -0.32675
 Alpha  occ. eigenvalues --   -0.32206  -0.31917  -0.31811  -0.31624  -0.31505
 Alpha  occ. eigenvalues --   -0.31346  -0.31167  -0.30201  -0.29442  -0.29086
 Alpha  occ. eigenvalues --   -0.28871  -0.28468  -0.28386  -0.27108  -0.26845
 Alpha  occ. eigenvalues --   -0.26288  -0.26106  -0.25863  -0.25498  -0.25431
 Alpha  occ. eigenvalues --   -0.25345  -0.25272  -0.24749  -0.21095  -0.21041
 Alpha  occ. eigenvalues --   -0.19094  -0.18754
 Alpha virt. eigenvalues --   -0.11499  -0.11322  -0.05335  -0.05035  -0.03995
 Alpha virt. eigenvalues --   -0.03714  -0.02275  -0.01907  -0.00809   0.00241
 Alpha virt. eigenvalues --    0.00251   0.01191   0.01240   0.01770   0.02284

 Mulliken charges:
               1
     1  Mg  12.000618
     2  C    6.012970
     3  C    5.992541
     4  C    5.984861
     5  C    6.003283
     6  N    7.008259
     7  C    5.966076
     8  C    6.010370
     9  C    5.986262
    10  C    6.031849
    11  C    5.996977
    12  C    5.998943
    13  C    6.002185
    14  H    0.991106
    15  N    6.995346
    16  C    6.035579
    17  C    6.022312
    18  C    6.013352
    19  C    6.029345
    20  C    5.996183
    21  C    6.009187
    22  O    8.018988
    23  C    5.998410
    24  N    7.000563
    25  C    6.029077
    26  C    5.991726
    27  C    6.010058
    28  C    5.965781
    29  C    5.997339
    30  C    6.006340
    31  C    6.001360
    32  N    6.999637
    33  C    5.973079
    34  C    5.968410
    35  C    6.000233
    36  C    5.975520
    37  C    5.999155
    38  C    5.984165
    39  O    7.971091
    40  C    6.001424
    41  C    5.996040
    42  O    7.993149
    43  O    8.000892
    44  C    6.000805
    45  H    1.010316
    46  H    1.006205
    47  H    0.991669
    48  H    1.002846
    49  H    1.005168
    50  H    1.003418
    51  H    1.015015
    52  H    0.999590
    53  H    0.989343
    54  H    1.004956
    55  H    1.002066
    56  H    1.000463
    57  H    1.017273
    58  H    1.017240
    59  H    1.016922
    60  H    1.010580
    61  H    1.011010
    62  H    1.010768
    63  H    0.998023
    64  H    0.998373
    65  H    0.999994
    66  H    0.994148
    67  H    1.008785
    68  H    0.997208
    69  H    0.988142
    70  H    0.994282
    71  H    1.001505
    72  H    1.003529
    73  H    0.982770
    74  H    0.984983
    75  H    0.982978
    76  H    0.991669
    77  H    1.000054
    78  H    0.993719
    79  H    0.994146
    80  Mg  12.000000
    81  C    5.999840
    82  C    6.000092
    83  C    6.000053
    84  C    5.999894
    85  N    7.000001
    86  C    6.000012
    87  C    6.000019
    88  C    5.999936
    89  C    6.000047
    90  C    5.999977
    91  C    6.000006
    92  C    6.000012
    93  H    0.999967
    94  N    6.999961
    95  C    6.000127
    96  C    6.000049
    97  C    6.000076
    98  C    6.000114
    99  C    5.999951
   100  C    6.000044
   101  O    8.000095
   102  C    5.999943
   103  N    6.999997
   104  C    6.000006
   105  C    5.999950
   106  C    6.000035
   107  C    6.000043
   108  C    5.999993
   109  C    6.000020
   110  C    6.000011
   111  N    7.000052
   112  C    5.999869
   113  C    5.999907
   114  C    5.999994
   115  C    5.999937
   116  C    6.000036
   117  C    5.999947
   118  O    7.999849
   119  C    6.000006
   120  C    5.999990
   121  O    8.000000
   122  O    7.999996
   123  C    6.000030
   124  H    1.000003
   125  H    0.999998
   126  H    0.999996
   127  H    1.000010
   128  H    1.000025
   129  H    1.000053
   130  H    0.999986
   131  H    1.000020
   132  H    0.999969
   133  H    1.000015
   134  H    1.000007
   135  H    0.999993
   136  H    1.000076
   137  H    1.000076
   138  H    1.000066
   139  H    1.000087
   140  H    1.000064
   141  H    1.000036
   142  H    1.000020
   143  H    0.999998
   144  H    0.999991
   145  H    1.000043
   146  H    1.000020
   147  H    0.999973
   148  H    0.999994
   149  H    0.999982
   150  H    1.000000
   151  H    0.999975
   152  H    0.999920
   153  H    0.999926
   154  H    0.999934
   155  H    0.999945
   156  H    0.999972
   157  H    0.999950
   158  H    0.999989
 Sum of Mulliken charges = 624.00000

 Dipole moment (field-independent basis, Debye):
    X=             -4.8233    Y=              8.7359    Z=              1.3485  Tot=             10.0697
 Quadrupole moment (field-independent basis, Debye-Ang):
   XX=           -254.6133   YY=              7.9017   ZZ=             -0.7499
   XY=            229.2082   XZ=             36.9172   YZ=              1.3241

 Normal termination of Gaussian 16 at Fri Oct 15 08:32:14 2021.
