 Gaussian 16, Revision A.03,
 Gaussian 16:  ES64L-G16RevA.03 25-Dec-2016

 --------------------------------------------------------
 #p PBE1PBE/Def2SVP td=(nstates=5) density=(transition=1)
 --------------------------------------------------------

 --------------------------------
 TDDFT excited states in gaussian
 --------------------------------
 Symbolic Z-matrix:
 Charge =  0 Multiplicity = 1

                         Standard orientation:
 ---------------------------------------------------------------------
 Center     Atomic      Atomic             Coordinates (Angstroms)
 Number     Number       Type             X           Y           Z
 ---------------------------------------------------------------------
      1         12           0       19.563954   -0.810331   -0.003246
      2          6           0       21.758284    2.016056   -0.096356
      3          6           0       18.069197    0.627226    2.706403
      4          6           0       17.919380   -3.494930    0.377443
      5          6           0       21.907366   -2.507474   -1.945870
      6          7           0       19.953101    1.084355    1.073497
      7          6           0       20.784291    2.107271    0.900471
      8          6           0       20.474497    3.319036    1.829462
      9          6           0       19.709678    2.550836    2.998615
     10          6           0       19.181644    1.367493    2.206906
     11          6           0       20.635172    2.034302    4.095500
     12          6           0       19.549785    4.376871    1.138358
     13          6           0       19.465066    5.732340    1.846087
     14          1           0       19.350451    6.937736    1.039098
     15          7           0       17.903578   -1.163287    1.007409
     16          6           0       17.440631   -0.466737    2.073141
     17          6           0       16.173532   -1.119255    2.467299
     18          6           0       16.034424   -2.365580    1.663919
     19          6           0       17.309354   -2.405236    0.994323
     20          6           0       15.223899   -0.535474    3.467872
     21          6           0       14.932146   -3.368190    1.530173
     22          8           0       15.106098   -4.497944    0.957486
     23          6           0       13.650773   -3.025466    2.173341
     24          7           0       19.959370   -2.799887   -0.496142
     25          6           0       19.053696   -3.758834   -0.274422
     26          6           0       19.434926   -5.038481   -0.957873
     27          6           0       20.674981   -4.684327   -1.899463
     28          6           0       20.850850   -3.196252   -1.508345
     29          6           0       19.812613   -6.204169   -0.033463
     30          6           0       20.542195   -5.041517   -3.401196
     31          6           0       19.479407   -4.177411   -4.042211
     32          7           0       21.409586   -0.305726   -1.027972
     33          6           0       22.233199   -1.174611   -1.758295
     34          6           0       23.419153   -0.401400   -2.170273
     35          6           0       23.209530    0.867329   -1.633401
     36          6           0       21.983727    0.878235   -0.908433
     37          6           0       24.533711   -0.907998   -2.895222
     38          6           0       23.747871    2.209479   -1.482806
     39          8           0       24.710593    2.815699   -1.955202
     40          6           0       22.889669    2.972722   -0.379730
     41          6           0       22.542541    4.328485   -0.931744
     42          8           0       21.774292    4.444023   -1.908376
     43          8           0       22.973481    5.276616   -0.085647
     44          6           0       22.634765    6.645076   -0.559718
     45          1           0       17.678987    0.865443    3.697831
     46          1           0       17.330756   -4.414588    0.391169
     47          1           0       22.639883   -2.947119   -2.625270
     48          1           0       21.355171    3.822484    2.228683
     49          1           0       18.883401    3.138024    3.398864
     50          1           0       21.683294    2.167164    3.827716
     51          1           0       20.400189    0.974849    4.199593
     52          1           0       20.391235    2.491007    5.055027
     53          1           0       18.511258    4.057349    1.224538
     54          1           0       19.847465    4.530063    0.100453
     55          1           0       20.255013    5.843957    2.589346
     56          1           0       18.542220    5.757934    2.425657
     57          1           0       15.673363    0.296461    4.008622
     58          1           0       15.056980   -1.296353    4.230046
     59          1           0       14.273048   -0.253628    3.015347
     60          1           0       13.812936   -2.874492    3.240796
     61          1           0       12.954802   -3.817000    1.897753
     62          1           0       13.301568   -2.071029    1.778304
     63          1           0       18.616392   -5.413226   -1.571057
     64          1           0       21.586162   -5.193527   -1.584600
     65          1           0       19.211003   -7.099850   -0.190070
     66          1           0       19.735421   -5.856339    0.996269
     67          1           0       20.858521   -6.505989   -0.082422
     68          1           0       20.226583   -6.077707   -3.518011
     69          1           0       21.470504   -4.912805   -3.957905
     70          1           0       18.558204   -4.708371   -3.804935
     71          1           0       19.632323   -4.123582   -5.120603
     72          1           0       19.422632   -3.197940   -3.566922
     73          1           0       24.775749   -0.156661   -3.646808
     74          1           0       24.303308   -1.868645   -3.355302
     75          1           0       25.271534   -0.993268   -2.097599
     76          1           0       23.513457    3.040828    0.510984
     77          1           0       23.567171    7.207571   -0.609223
     78          1           0       21.853447    7.017979    0.102770
     79          1           0       22.290364    6.726375   -1.591279
     80         12           0      -20.328878   -0.506997    0.068009
     81          6           0      -19.632398    2.655282   -1.258474
     82          6           0      -20.068369    0.768855    3.227906
     83          6           0      -20.652145   -3.583001    1.240564
     84          6           0      -20.383011   -1.744441   -3.284934
     85          7           0      -19.846254    1.503301    0.866481
     86          6           0      -19.660963    2.682617    0.179767
     87          6           0      -19.692878    3.863351    1.132555
     88          6           0      -19.548630    3.179856    2.549560
     89          6           0      -19.941484    1.711970    2.167818
     90          6           0      -18.143709    3.270797    3.131494
     91          6           0      -20.942594    4.766879    0.826412
     92          6           0      -21.174979    5.879366    1.886172
     93          1           0      -19.945464    6.416844    2.588562
     94          7           0      -20.372037   -1.266252    1.908162
     95          6           0      -20.142560   -0.610723    3.111262
     96          6           0      -20.168704   -1.541424    4.253320
     97          6           0      -20.382568   -2.816103    3.644107
     98          6           0      -20.467578   -2.582636    2.204864
     99          6           0      -20.045307   -1.100971    5.663817
    100          6           0      -20.481404   -4.137546    4.361733
    101          8           0      -20.717910   -5.214964    3.748105
    102          6           0      -20.381650   -4.221963    5.860732
    103          7           0      -20.552034   -2.404736   -0.907896
    104          6           0      -20.666063   -3.495726   -0.150090
    105          6           0      -20.672071   -4.802789   -1.058756
    106          6           0      -20.540671   -4.197171   -2.565708
    107          6           0      -20.472607   -2.702960   -2.247235
    108          6           0      -19.468844   -5.730690   -0.612503
    109          6           0      -21.790250   -4.487640   -3.502367
    110          6           0      -21.767877   -5.846436   -4.259612
    111          7           0      -20.012258    0.206669   -1.858378
    112          6           0      -20.175628   -0.360638   -3.149776
    113          6           0      -19.970761    0.719234   -4.211458
    114          6           0      -19.684052    1.896771   -3.528297
    115          6           0      -19.803217    1.541802   -2.091055
    116          6           0      -20.096982    0.581199   -5.696356
    117          6           0      -19.411256    3.310703   -3.638123
    118          8           0      -19.269111    4.053995   -4.614190
    119          6           0      -19.545682    3.915428   -2.153408
    120          6           0      -18.400832    4.832873   -1.789488
    121          8           0      -17.360623    4.457226   -1.320306
    122          8           0      -18.796096    6.188489   -1.846692
    123          6           0      -17.976191    7.160943   -1.108578
    124          1           0      -19.907427    1.313035    4.161258
    125          1           0      -20.742862   -4.597956    1.633505
    126          1           0      -20.282729   -2.069402   -4.322717
    127          1           0      -18.817826    4.476605    0.921161
    128          1           0      -20.260626    3.510382    3.306502
    129          1           0      -18.259085    3.756177    4.100497
    130          1           0      -17.504119    3.778411    2.409811
    131          1           0      -17.752500    2.302691    3.443359
    132          1           0      -21.695011    4.014908    0.590743
    133          1           0      -20.727307    5.235685   -0.133195
    134          1           0      -21.859299    5.406534    2.590670
    135          1           0      -21.661316    6.719315    1.390330
    136          1           0      -19.110708   -1.569107    5.972325
    137          1           0      -20.902756   -1.376040    6.277418
    138          1           0      -19.903757   -0.042294    5.884972
    139          1           0      -21.219069   -3.682444    6.301036
    140          1           0      -19.397170   -3.767560    5.978934
    141          1           0      -20.313289   -5.222402    6.287092
    142          1           0      -21.674785   -5.174403   -0.844081
    143          1           0      -19.581352   -4.310630   -3.072406
    144          1           0      -18.853862   -5.320410    0.188292
    145          1           0      -18.804538   -5.907130   -1.458899
    146          1           0      -19.932332   -6.623802   -0.194461
    147          1           0      -22.046623   -3.632851   -4.127582
    148          1           0      -22.646854   -4.556023   -2.832589
    149          1           0      -22.691934   -6.362291   -4.001036
    150          1           0      -20.852059   -6.374649   -3.994023
    151          1           0      -21.764047   -5.711978   -5.341543
    152          1           0      -21.024224    1.085839   -5.968637
    153          1           0      -20.108758   -0.472421   -5.977976
    154          1           0      -19.337431    1.054941   -6.317900
    155          1           0      -20.500017    4.440743   -2.129953
    156          1           0      -17.105764    7.326892   -1.742779
    157          1           0      -17.795663    6.819942   -0.088952
    158          1           0      -18.588524    8.056602   -1.007449
 ---------------------------------------------------------------------

 SCF Done:  E(RPBE1PBE) =  -4067.39422832     A.U. after   16 cycles

 Excitation energies and oscillator strengths:

 Excited State   1:      Singlet-A      1.8076 eV  685.92 nm  f=0.0000  <S**2>=0.000
     312 -> 313        0.70710
 This state for optimization and/or second-order correction.
 Total Energy, E(TD-HF/TD-DFT) =  -4067.32780169
 Copying the excited state density for this state as the 1-particle RhoCI density.

 Excited State   2:      Singlet-A      1.8414 eV  673.30 nm  f=0.3698  <S**2>=0.000
     309 -> 316        0.16206
     311 -> 313        0.69317
     311 <- 313       -0.11104

 Excited State   3:      Singlet-A      1.8621 eV  665.84 nm  f=0.3801  <S**2>=0.000
     310 -> 315        0.19119
     312 -> 314        0.68813
     312 <- 314       -0.10016

 Excited State   4:      Singlet-A      2.1530 eV  575.86 nm  f=0.0000  <S**2>=0.000
     311 -> 314        0.70711

 Excited State   5:      Singlet-A      2.1930 eV  565.37 nm  f=0.0921  <S**2>=0.000
     309 -> 313        0.65172
     311 -> 316       -0.24145

 The electronic state is 1-A.
 Alpha  occ. eigenvalues --  -46.91512 -46.91168 -19.26902 -19.24650 -19.20482
 Alpha  occ. eigenvalues --  -19.19429 -19.19282 -19.18987 -19.18606 -19.18393
 Alpha  occ. eigenvalues --  -14.41923 -14.41616 -14.41152 -14.40936 -14.39664
 Alpha  occ. eigenvalues --  -14.39534 -14.39028 -14.38233 -10.36427 -10.36085
 Alpha  occ. eigenvalues --  -10.32700 -10.32469 -10.32350 -10.31550 -10.29124
 Alpha  occ. eigenvalues --  -10.28985 -10.28885 -10.28785 -10.28613 -10.28602
 Alpha  occ. eigenvalues --  -10.28468 -10.28196 -10.28114 -10.28097 -10.28087
 Alpha  occ. eigenvalues --  -10.27979 -10.27928 -10.27768 -10.27522 -10.27302
 Alpha  occ. eigenvalues --  -10.27236 -10.27158 -10.27014 -10.26869 -10.26781
 Alpha  occ. eigenvalues --  -10.26546 -10.26191 -10.26185 -10.26124 -10.26040
 Alpha  occ. eigenvalues --  -10.25997 -10.25962 -10.25879 -10.25609 -10.25528
 Alpha  occ. eigenvalues --  -10.25431 -10.25353 -10.25327 -10.25250 -10.25248
 Alpha  occ. eigenvalues --  -10.25232 -10.25189 -10.24975 -10.24830 -10.24796
 Alpha  occ. eigenvalues --  -10.24754 -10.24487 -10.24365 -10.24260 -10.24146
 Alpha  occ. eigenvalues --  -10.23781 -10.23771 -10.23689 -10.23667 -10.23663
 Alpha  occ. eigenvalues --  -10.23591 -10.23590 -10.23255 -10.23253 -10.23091
 Alpha  occ. eigenvalues --  -10.22903 -10.22892 -10.22857 -10.22572 -10.22379
 Alpha  occ. eigenvalues --  -10.22067  -3.13770  -3.13485  -1.86617  -1.86308
 Alpha  occ. eigenvalues --   -1.86130  -1.86025  -1.85873  -1.85719  -1.11400
 Alpha  occ. eigenvalues --   -1.10207  -1.03866  -1.03345  -1.02615  -1.02468
 Alpha  occ. eigenvalues --   -1.01814  -1.01428  -0.99149  -0.98942  -0.98345
 Alpha  occ. eigenvalues --   -0.98115  -0.97877  -0.97465  -0.97066  -0.96091
 Alpha  occ. eigenvalues --   -0.86308  -0.85970  -0.83810  -0.83431  -0.83176
 Alpha  occ. eigenvalues --   -0.82849  -0.82569  -0.82181  -0.82117  -0.81952
 Alpha  occ. eigenvalues --   -0.81884  -0.81415  -0.81063  -0.80677  -0.79211
 Alpha  occ. eigenvalues --   -0.78524  -0.78202  -0.77253  -0.77133  -0.76850
 Alpha  occ. eigenvalues --   -0.76343  -0.76191  -0.75871  -0.75064  -0.74920
 Alpha  occ. eigenvalues --   -0.74351  -0.73228  -0.73081  -0.71780  -0.71522
 Alpha  occ. eigenvalues --   -0.71293  -0.71208  -0.70219  -0.70098  -0.69203
 Alpha  occ. eigenvalues --   -0.68924  -0.67219  -0.66544  -0.66066  -0.65928
 Alpha  occ. eigenvalues --   -0.64196  -0.63732  -0.63210  -0.62996  -0.62792
 Alpha  occ. eigenvalues --   -0.62096  -0.61531  -0.61504  -0.59950  -0.59684
 Alpha  occ. eigenvalues --   -0.59668  -0.59396  -0.59074  -0.58744  -0.58484
 Alpha  occ. eigenvalues --   -0.58307  -0.56852  -0.55867  -0.55208  -0.54922
 Alpha  occ. eigenvalues --   -0.54284  -0.54083  -0.53600  -0.53279  -0.53096
 Alpha  occ. eigenvalues --   -0.52218  -0.52197  -0.52082  -0.51779  -0.51373
 Alpha  occ. eigenvalues --   -0.50850  -0.50767  -0.50351  -0.50329  -0.50031
 Alpha  occ. eigenvalues --   -0.49812  -0.49177  -0.49057  -0.48758  -0.48487
 Alpha  occ. eigenvalues --   -0.48437  -0.47986  -0.47930  -0.47867  -0.47730
 Alpha  occ. eigenvalues --   -0.47532  -0.47160  -0.47079  -0.46955  -0.46798
 Alpha  occ. eigenvalues --   -0.46523  -0.46394  -0.46364  -0.46162  -0.45994
 Alpha  occ. eigenvalues --   -0.45836  -0.45755  -0.45365  -0.45059  -0.45057
 Alpha  occ. eigenvalues --   -0.44611  -0.44608  -0.44460  -0.44112  -0.44106
 Alpha  occ. eigenvalues --   -0.44056  -0.43902  -0.43840  -0.43686  -0.43657
 Alpha  occ. eigenvalues --   -0.43534  -0.43197  -0.43181  -0.43093  -0.42988
 Alpha  occ. eigenvalues --   -0.42803  -0.42716  -0.42314  -0.42038  -0.41927
 Alpha  occ. eigenvalues --   -0.41546  -0.41542  -0.41223  -0.41048  -0.40943
 Alpha  occ. eigenvalues --   -0.40852  -0.40787  -0.40532  -0.40481  -0.40342
 Alpha  occ. eigenvalues --   -0.39995  -0.39918  -0.39879  -0.39674  -0.39449
 Alpha  occ. eigenvalues --   -0.39280  -0.39200  -0.38994  -0.38877  -0.38830
 Alpha  occ. eigenvalues --   -0.38816  -0.38721  -0.38322  -0.38260  -0.38217
 Alpha  occ. eigenvalues --   -0.37997  -0.37848  -0.37837  -0.37746  -0.37495
 Alpha  occ. eigenvalues --   -0.37468  -0.37423  -0.37188  -0.37048  -0.36836
 Alpha  occ. eigenvalues --   -0.36541  -0.36347  -0.36288  -0.36089  -0.35940
 Alpha  occ. eigenvalues --   -0.35774  -0.35755  -0.35570  -0.35459  -0.35295
 Alpha  occ. eigenvalues --   -0.35090  -0.34988  -0.34312  -0.34150  -0.34070
 Alpha  occ. eigenvalues --   -0.33485  -0.33395  -0.33260  -0.33017  -0.32703
 Alpha  occ. eigenvalues --   -0.32359  -0.32233  -0.31771  -0.31684  -0.31234
 Alpha  occ. eigenvalues --   -0.31213  -0.30948  -0.29487  -0.29406  -0.29379
 Alpha  occ. eigenvalues --   -0.28895  -0.28708  -0.28392  -0.26854  -0.26698
 Alpha  occ. eigenvalues --   -0.26406  -0.25979  -0.25778  -0.25611  -0.25211
 Alpha  occ. eigenvalues --   -0.25093  -0.24930  -0.24806  -0.20954  -0.20904
 Alpha  occ. eigenvalues --   -0.18737  -0.18176
 Alpha virt. eigenvalues --   -0.11201  -0.10495  -0.05556  -0.05322  -0.04421
 Alpha virt. eigenvalues --   -0.04132  -0.02209  -0.02153  -0.00209   0.00376
 Alpha virt. eigenvalues --    0.00445   0.00474   0.00594   0.01077   0.01706

 Mulliken charges:
               1
     1  Mg  12.000000
     2  C    6.000000
     3  C    6.000000
     4  C    6.000000
     5  C    6.000000
     6  N    7.000000
     7  C    6.000000
     8  C    6.000000
     9  C    6.000000
    10  C    6.000000
    11  C    6.000000
    12  C    6.000000
    13  C    6.000000
    14  H    1.000000
    15  N    7.000000
    16  C    6.000000
    17  C    6.000000
    18  C    6.000000
    19  C    6.000000
    20  C    6.000000
    21  C    6.000000
    22  O    8.000000
    23  C    6.000000
    24  N    7.000000
    25  C    6.000000
    26  C    6.000000
    27  C    6.000000
    28  C    6.000000
    29  C    6.000000
    30  C    6.000000
    31  C    6.000000
    32  N    7.000000
    33  C    6.000000
    34  C    6.000000
    35  C    6.000000
    36  C    6.000000
    37  C    6.000000
    38  C    6.000000
    39  O    8.000000
    40  C    6.000000
    41  C    6.000000
    42  O    8.000000
    43  O    8.000000
    44  C    6.000000
    45  H    1.000000
    46  H    1.000000
    47  H    1.000000
    48  H    1.000000
    49  H    1.000000
    50  H    1.000000
    51  H    1.000000
    52  H    1.000000
    53  H    1.000000
    54  H    1.000000
    55  H    1.000000
    56  H    1.000000
    57  H    1.000000
    58  H    1.000000
    59  H    1.000000
    60  H    1.000000
    61  H    1.000000
    62  H    1.000000
    63  H    1.000000
    64  H    1.000000
    65  H    1.000000
    66  H    1.000000
    67  H    1.000000
    68  H    1.000000
    69  H    1.000000
    70  H    1.000000
    71  H    1.000000
    72  H    1.000000
    73  H    1.000000
    74  H    1.000000
    75  H    1.000000
    76  H    1.000000
    77  H    1.000000
    78  H    1.000000
    79  H    1.000000
    80  Mg  12.000000
    81  C    6.000000
    82  C    6.000000
    83  C    6.000000
    84  C    6.000000
    85  N    7.000000
    86  C    6.000000
    87  C    6.000000
    88  C    6.000000
    89  C    6.000000
    90  C    6.000000
    91  C    6.000000
    92  C    6.000000
    93  H    1.000000
    94  N    7.000000
    95  C    6.000000
    96  C    6.000000
    97  C    6.000000
    98  C    6.000000
    99  C    6.000000
   100  C    6.000000
   101  O    8.000000
   102  C    6.000000
   103  N    7.000000
   104  C    6.000000
   105  C    6.000000
   106  C    6.000000
   107  C    6.000000
   108  C    6.000000
   109  C    6.000000
   110  C    6.000000
   111  N    7.000000
   112  C    6.000000
   113  C    6.000000
   114  C    6.000000
   115  C    6.000000
   116  C    6.000000
   117  C    6.000000
   118  O    8.000000
   119  C    6.000000
   120  C    6.000000
   121  O    8.000000
   122  O    8.000000
   123  C    6.000000
   124  H    1.000000
   125  H    1.000000
   126  H    1.000000
   127  H    1.000000
   128  H    1.000000
   129  H    1.000000
   130  H    1.000000
   131  H    1.000000
   132  H    1.000000
   133  H    1.000000
   134  H    1.000000
   135  H    1.000000
   136  H    1.000000
   137  H    1.000000
   138  H    1.000000
   139  H    1.000000
   140  H    1.000000
   141  H    1.000000
   142  H    1.000000
   143  H    1.000000
   144  H    1.000000
   145  H    1.000000
   146  H    1.000000
   147  H    1.000000
   148  H    1.000000
   149  H    1.000000
   150  H    1.000000
   151  H    1.000000
   152  H    1.000000
   153  H    1.000000
   154  H    1.000000
   155  H    1.000000
   156  H    1.000000
   157  H    1.000000
   158  H    1.000000
 Sum of Mulliken charges = 624.00000

 Dipole moment (field-independent basis, Debye):
    X=              0.0000    Y=              0.0000    Z=             -0.0000  Tot=              0.0000
 Quadrupole moment (field-independent basis, Debye-Ang):
   XX=              0.0000   YY=              0.0000   ZZ=             -0.0000
   XY=              0.0000   XZ=             -0.0000   YZ=              0.0000

 Normal termination of Gaussian 16 at Thu Oct 14 15:00:54 2021.
