 Gaussian 16, Revision A.03,
 Gaussian 16:  ES64L-G16RevA.03 25-Dec-2016

 --------------------------------------------------------
 #p PBE1PBE/Def2SVP td=(nstates=5) density=(transition=1)
 --------------------------------------------------------

 --------------------------------
 TDDFT excited states in gaussian
 --------------------------------
 Symbolic Z-matrix:
 Charge =  0 Multiplicity = 1

                         Standard orientation:
 ---------------------------------------------------------------------
 Center     Atomic      Atomic             Coordinates (Angstroms)
 Number     Number       Type             X           Y           Z
 ---------------------------------------------------------------------
      1         12           0       18.802874   -0.366218   -0.517436
      2          6           0       16.270275    1.840323    0.369275
      3          6           0       20.541253    0.830636    2.373433
      4          6           0       21.046518   -2.731361   -0.938683
      5          6           0       16.604919   -1.842257   -2.830017
      6          7           0       18.373210    1.067514    1.221848
      7          6           0       17.285250    1.909914    1.271667
      8          6           0       17.355890    2.787986    2.523973
      9          6           0       18.841474    2.616975    2.945903
     10          6           0       19.294471    1.405569    2.174155
     11          6           0       19.837679    3.817824    2.702365
     12          6           0       16.357132    2.365732    3.614017
     13          6           0       16.256478    3.275096    4.778524
     14          1           0       14.934032    3.203519    5.633572
     15          7           0       20.575463   -0.911612    0.575064
     16          6           0       21.125597   -0.284773    1.704012
     17          6           0       22.337630   -0.974053    2.048932
     18          6           0       22.434666   -2.114144    1.168653
     19          6           0       21.316377   -1.935049    0.179344
     20          6           0       23.209272   -0.588186    3.275816
     21          6           0       23.552790   -3.155175    1.282876
     22          8           0       24.505301   -2.999366    2.028837
     23          6           0       23.478418   -4.382088    0.456655
     24          7           0       18.895275   -1.915727   -1.880646
     25          6           0       19.959044   -2.726138   -1.870329
     26          6           0       19.725088   -3.926851   -2.873975
     27          6           0       18.280203   -3.716419   -3.469984
     28          6           0       17.845884   -2.398972   -2.622849
     29          6           0       20.821805   -4.196854   -3.937443
     30          6           0       17.384519   -4.929920   -3.141099
     31          6           0       16.275516   -5.218428   -4.160201
     32          7           0       16.822313   -0.116496   -1.169015
     33          6           0       16.109443   -0.689297   -2.184813
     34          6           0       14.854567    0.054487   -2.347747
     35          6           0       14.932565    1.081647   -1.445951
     36          6           0       16.083161    0.921846   -0.707548
     37          6           0       13.786226   -0.201297   -3.415724
     38          6           0       14.221905    2.207527   -0.918701
     39          8           0       13.172225    2.717505   -1.224435
     40          6           0       15.070890    2.757366    0.275847
     41          6           0       15.516861    4.130949   -0.085853
     42          8           0       16.039123    4.478849   -1.108427
     43          8           0       15.357581    4.961788    1.036762
     44          6           0       15.818776    6.311852    0.880023
     45          1           0       21.032055    1.325360    3.213606
     46          1           0       21.711839   -3.553631   -1.211799
     47          1           0       15.923769   -2.231612   -3.589716
     48          1           0       17.223086    3.811345    2.175596
     49          1           0       19.011970    2.330905    3.983194
     50          1           0       20.317593    3.959683    3.670460
     51          1           0       19.488586    4.655020    2.097339
     52          1           0       20.635704    3.428217    2.070504
     53          1           0       16.583466    1.428344    4.122853
     54          1           0       15.367705    2.232198    3.176494
     55          1           0       16.388048    4.286937    4.395161
     56          1           0       17.111394    3.104384    5.432568
     57          1           0       22.905601   -1.414984    3.918706
     58          1           0       22.893108    0.297514    3.827258
     59          1           0       24.295920   -0.508018    3.241049
     60          1           0       22.468270   -4.758602    0.617665
     61          1           0       24.173490   -5.114817    0.866955
     62          1           0       23.668605   -4.017557   -0.553123
     63          1           0       19.731515   -4.824570   -2.255139
     64          1           0       18.246038   -3.488686   -4.534908
     65          1           0       21.362963   -5.096007   -3.641158
     66          1           0       21.430746   -3.299522   -4.042263
     67          1           0       20.356123   -4.470296   -4.884242
     68          1           0       16.962749   -4.705579   -2.161693
     69          1           0       17.935377   -5.852290   -2.955921
     70          1           0       16.483387   -6.246340   -4.459307
     71          1           0       16.226934   -4.513525   -4.990267
     72          1           0       15.303044   -5.227473   -3.667793
     73          1           0       12.750269   -0.181546   -3.078962
     74          1           0       14.083293   -1.178796   -3.796394
     75          1           0       14.035737    0.454345   -4.250126
     76          1           0       14.407673    2.769048    1.140863
     77          1           0       14.927218    6.938124    0.846968
     78          1           0       16.455946    6.565542    0.032477
     79          1           0       16.418682    6.551571    1.757529
     80         12           0      -18.856165   -0.497286    0.032629
     81          6           0      -15.901728    1.436605   -0.007294
     82          6           0      -19.993609    1.199912   -2.706696
     83          6           0      -21.813225   -1.857247    0.558354
     84          6           0      -17.785550   -1.834750    3.139207
     85          7           0      -17.956265    1.062212   -1.269319
     86          6           0      -16.790103    1.649893   -1.088025
     87          6           0      -16.423593    2.383753   -2.365334
     88          6           0      -17.825833    2.689544   -3.019542
     89          6           0      -18.683894    1.587815   -2.292835
     90          6           0      -18.242968    4.194594   -2.808422
     91          6           0      -15.589258    1.508157   -3.335222
     92          6           0      -14.742969    2.300528   -4.426023
     93          1           0      -14.782829    3.827544   -4.529900
     94          7           0      -20.557118   -0.510426   -1.034735
     95          6           0      -20.861417    0.205188   -2.221088
     96          6           0      -22.211863   -0.202484   -2.674092
     97          6           0      -22.778428   -1.047264   -1.653222
     98          6           0      -21.733814   -1.203521   -0.617866
     99          6           0      -22.816638    0.224107   -3.964976
    100          6           0      -24.171634   -1.775740   -1.514585
    101          8           0      -24.460630   -2.552327   -0.594031
    102          6           0      -25.265350   -1.406316   -2.474298
    103          7           0      -19.737462   -1.604442    1.701817
    104          6           0      -20.947434   -2.094458    1.647000
    105          6           0      -21.350537   -2.941700    2.821224
    106          6           0      -20.042998   -2.941542    3.688775
    107          6           0      -19.071817   -2.150713    2.755742
    108          6           0      -22.656472   -2.452888    3.454552
    109          6           0      -19.491966   -4.324704    4.011839
    110          6           0      -18.920503   -4.535677    5.459641
    111          7           0      -17.141094   -0.353355    1.354173
    112          6           0      -16.843487   -1.003834    2.567705
    113          6           0      -15.500452   -0.704015    2.928152
    114          6           0      -15.124751    0.379061    2.071068
    115          6           0      -16.109931    0.513814    1.125903
    116          6           0      -14.686921   -1.430774    3.960350
    117          6           0      -14.081135    1.326874    1.611765
    118          8           0      -12.981856    1.558998    2.070200
    119          6           0      -14.700399    2.193156    0.414329
    120          6           0      -13.632567    2.609531   -0.543513
    121          8           0      -12.933099    1.888255   -1.191723
    122          8           0      -13.455558    4.005768   -0.537073
    123          6           0      -12.092786    4.500875   -0.825465
    124          1           0      -20.499962    1.822692   -3.447682
    125          1           0      -22.699141   -2.463795    0.754554
    126          1           0      -17.456713   -2.323654    4.058686
    127          1           0      -15.775600    3.183412   -2.006670
    128          1           0      -17.819619    2.492370   -4.092070
    129          1           0      -17.480810    4.720351   -2.234248
    130          1           0      -19.092471    4.127152   -2.128757
    131          1           0      -18.388095    4.761733   -3.727959
    132          1           0      -16.332898    0.897189   -3.848536
    133          1           0      -14.951579    0.871542   -2.721984
    134          1           0      -15.054944    1.866932   -5.377382
    135          1           0      -13.715328    1.972456   -4.267860
    136          1           0      -22.193210    0.726700   -4.703584
    137          1           0      -23.626752    0.939456   -3.826027
    138          1           0      -23.150203   -0.711973   -4.413541
    139          1           0      -25.257472   -1.981484   -3.400037
    140          1           0      -25.033397   -0.348288   -2.602309
    141          1           0      -26.197694   -1.519374   -1.921758
    142          1           0      -21.499504   -3.913695    2.351151
    143          1           0      -20.142966   -2.419633    4.639673
    144          1           0      -22.858246   -1.394007    3.289909
    145          1           0      -22.517207   -2.582616    4.527080
    146          1           0      -23.526749   -3.011688    3.109664
    147          1           0      -18.686226   -4.595583    3.329767
    148          1           0      -20.286339   -5.001413    3.697335
    149          1           0      -18.870321   -3.596233    6.009857
    150          1           0      -17.905849   -4.898947    5.297846
    151          1           0      -19.407574   -5.255804    6.117942
    152          1           0      -15.330964   -1.478515    4.838566
    153          1           0      -13.758959   -0.932218    4.240996
    154          1           0      -14.509360   -2.457130    3.637581
    155          1           0      -15.002813    3.161876    0.810821
    156          1           0      -12.134415    5.064749   -1.757470
    157          1           0      -11.362527    3.693236   -0.886748
    158          1           0      -11.847726    5.159616    0.007627
 ---------------------------------------------------------------------

 SCF Done:  E(RPBE1PBE) =  -4067.36800092     A.U. after   16 cycles

 Excitation energies and oscillator strengths:

 Excited State   1:      Singlet-A      1.8893 eV  656.23 nm  f=0.4006  <S**2>=0.000
     310 -> 315        0.18705
     312 -> 314        0.68466
 This state for optimization and/or second-order correction.
 Total Energy, E(TD-HF/TD-DFT) =  -4067.29856887
 Copying the excited state density for this state as the 1-particle RhoCI density.

 Excited State   2:      Singlet-A      1.9035 eV  651.34 nm  f=0.3453  <S**2>=0.000
     309 -> 316        0.17000
     311 -> 313        0.69243
     311 <- 313       -0.10633

 Excited State   3:      Singlet-A      1.9163 eV  646.99 nm  f=0.0000  <S**2>=0.000
     312 -> 313        0.70710

 Excited State   4:      Singlet-A      2.1349 eV  580.75 nm  f=0.0939  <S**2>=0.000
     310 -> 314        0.65947
     312 -> 315       -0.23129

 Excited State   5:      Singlet-A      2.1402 eV  579.30 nm  f=0.0000  <S**2>=0.000
     311 -> 314        0.70710

 The electronic state is 1-A.
 Alpha  occ. eigenvalues --  -46.93000 -46.91912 -19.25625 -19.24033 -19.20700
 Alpha  occ. eigenvalues --  -19.20174 -19.19850 -19.18908 -19.18886 -19.18675
 Alpha  occ. eigenvalues --  -14.42183 -14.41750 -14.41455 -14.41113 -14.39692
 Alpha  occ. eigenvalues --  -14.39286 -14.38856 -14.37890 -10.36530 -10.35662
 Alpha  occ. eigenvalues --  -10.33605 -10.32255 -10.31770 -10.31441 -10.29852
 Alpha  occ. eigenvalues --  -10.29629 -10.29025 -10.28888 -10.28780 -10.28568
 Alpha  occ. eigenvalues --  -10.28495 -10.28451 -10.28410 -10.28166 -10.28155
 Alpha  occ. eigenvalues --  -10.28023 -10.27976 -10.27829 -10.27755 -10.27258
 Alpha  occ. eigenvalues --  -10.26861 -10.26481 -10.26288 -10.26251 -10.26112
 Alpha  occ. eigenvalues --  -10.26046 -10.26024 -10.25943 -10.25923 -10.25914
 Alpha  occ. eigenvalues --  -10.25867 -10.25833 -10.25751 -10.25710 -10.25515
 Alpha  occ. eigenvalues --  -10.25512 -10.25432 -10.25427 -10.25418 -10.25409
 Alpha  occ. eigenvalues --  -10.25216 -10.25201 -10.25158 -10.25142 -10.25082
 Alpha  occ. eigenvalues --  -10.24639 -10.24560 -10.24196 -10.23945 -10.23930
 Alpha  occ. eigenvalues --  -10.23921 -10.23892 -10.23887 -10.23807 -10.23706
 Alpha  occ. eigenvalues --  -10.23671 -10.23641 -10.23459 -10.23377 -10.23305
 Alpha  occ. eigenvalues --  -10.23231 -10.23214 -10.23079 -10.22854 -10.22559
 Alpha  occ. eigenvalues --  -10.21890  -3.15004  -3.13956  -1.87850  -1.87382
 Alpha  occ. eigenvalues --   -1.87212  -1.86809  -1.86329  -1.86176  -1.11378
 Alpha  occ. eigenvalues --   -1.10035  -1.05234  -1.04859  -1.04632  -1.04574
 Alpha  occ. eigenvalues --   -1.03677  -1.01930  -0.99683  -0.99252  -0.99105
 Alpha  occ. eigenvalues --   -0.98399  -0.98254  -0.97415  -0.96657  -0.95271
 Alpha  occ. eigenvalues --   -0.87716  -0.86341  -0.83615  -0.83553  -0.83441
 Alpha  occ. eigenvalues --   -0.83080  -0.83071  -0.82411  -0.81972  -0.81594
 Alpha  occ. eigenvalues --   -0.81468  -0.80833  -0.80155  -0.80047  -0.79380
 Alpha  occ. eigenvalues --   -0.78315  -0.78169  -0.78099  -0.77294  -0.76777
 Alpha  occ. eigenvalues --   -0.76731  -0.75909  -0.75642  -0.75191  -0.75041
 Alpha  occ. eigenvalues --   -0.74201  -0.72707  -0.72055  -0.71668  -0.71498
 Alpha  occ. eigenvalues --   -0.71233  -0.70781  -0.70505  -0.69797  -0.69750
 Alpha  occ. eigenvalues --   -0.69400  -0.67745  -0.67000  -0.66448  -0.66136
 Alpha  occ. eigenvalues --   -0.64197  -0.63738  -0.63384  -0.62976  -0.62268
 Alpha  occ. eigenvalues --   -0.61749  -0.61017  -0.60953  -0.60460  -0.60408
 Alpha  occ. eigenvalues --   -0.60077  -0.59574  -0.59388  -0.59079  -0.59041
 Alpha  occ. eigenvalues --   -0.58044  -0.57271  -0.55713  -0.54669  -0.54510
 Alpha  occ. eigenvalues --   -0.54503  -0.53830  -0.53743  -0.53296  -0.53091
 Alpha  occ. eigenvalues --   -0.53074  -0.52657  -0.52205  -0.52192  -0.51484
 Alpha  occ. eigenvalues --   -0.51068  -0.50909  -0.50371  -0.50029  -0.49900
 Alpha  occ. eigenvalues --   -0.49727  -0.49446  -0.48926  -0.48757  -0.48567
 Alpha  occ. eigenvalues --   -0.48113  -0.47788  -0.47761  -0.47723  -0.47652
 Alpha  occ. eigenvalues --   -0.47493  -0.47366  -0.47292  -0.46762  -0.46608
 Alpha  occ. eigenvalues --   -0.46525  -0.46304  -0.46277  -0.46096  -0.45921
 Alpha  occ. eigenvalues --   -0.45705  -0.45425  -0.45341  -0.45289  -0.45033
 Alpha  occ. eigenvalues --   -0.44936  -0.44837  -0.44829  -0.44506  -0.44482
 Alpha  occ. eigenvalues --   -0.44008  -0.43926  -0.43722  -0.43699  -0.43323
 Alpha  occ. eigenvalues --   -0.42962  -0.42938  -0.42837  -0.42735  -0.42657
 Alpha  occ. eigenvalues --   -0.42456  -0.42207  -0.42149  -0.41992  -0.41940
 Alpha  occ. eigenvalues --   -0.41881  -0.41746  -0.41730  -0.41092  -0.41066
 Alpha  occ. eigenvalues --   -0.41062  -0.41032  -0.40898  -0.40832  -0.40530
 Alpha  occ. eigenvalues --   -0.40371  -0.40289  -0.40088  -0.39843  -0.39826
 Alpha  occ. eigenvalues --   -0.39737  -0.39329  -0.39117  -0.39002  -0.38643
 Alpha  occ. eigenvalues --   -0.38614  -0.38518  -0.38356  -0.38153  -0.38017
 Alpha  occ. eigenvalues --   -0.37987  -0.37949  -0.37761  -0.37597  -0.37505
 Alpha  occ. eigenvalues --   -0.37384  -0.37219  -0.37128  -0.36968  -0.36844
 Alpha  occ. eigenvalues --   -0.36791  -0.36648  -0.36555  -0.36431  -0.36360
 Alpha  occ. eigenvalues --   -0.36270  -0.36016  -0.35839  -0.35433  -0.35187
 Alpha  occ. eigenvalues --   -0.35104  -0.34891  -0.34710  -0.34615  -0.33950
 Alpha  occ. eigenvalues --   -0.33700  -0.33639  -0.33008  -0.32736  -0.32648
 Alpha  occ. eigenvalues --   -0.32513  -0.31917  -0.31473  -0.31443  -0.31101
 Alpha  occ. eigenvalues --   -0.30805  -0.30381  -0.30110  -0.29532  -0.29373
 Alpha  occ. eigenvalues --   -0.29217  -0.29011  -0.28418  -0.27359  -0.26643
 Alpha  occ. eigenvalues --   -0.26352  -0.25988  -0.25769  -0.25751  -0.25561
 Alpha  occ. eigenvalues --   -0.25331  -0.25090  -0.24239  -0.21520  -0.20565
 Alpha  occ. eigenvalues --   -0.19237  -0.18871
 Alpha virt. eigenvalues --   -0.11474  -0.11017  -0.05484  -0.05443  -0.04171
 Alpha virt. eigenvalues --   -0.03281  -0.01738  -0.01686  -0.00700   0.00008
 Alpha virt. eigenvalues --    0.00276   0.00332   0.00711   0.01349   0.01863

 Mulliken charges:
               1
     1  Mg  11.999938
     2  C    6.000779
     3  C    5.999392
     4  C    5.998793
     5  C    6.000712
     6  N    7.000176
     7  C    5.998634
     8  C    6.000373
     9  C    5.999696
    10  C    6.001639
    11  C    5.999918
    12  C    6.000164
    13  C    6.000070
    14  H    0.999772
    15  N    6.999589
    16  C    6.002397
    17  C    6.000694
    18  C    6.000985
    19  C    6.001905
    20  C    5.999883
    21  C    6.000603
    22  O    8.001209
    23  C    5.999920
    24  N    7.000121
    25  C    6.001930
    26  C    5.999537
    27  C    6.000438
    28  C    5.998288
    29  C    5.999908
    30  C    6.000206
    31  C    6.000100
    32  N    7.000004
    33  C    5.997902
    34  C    5.998331
    35  C    5.999875
    36  C    5.998315
    37  C    6.000031
    38  C    5.999163
    39  O    7.998368
    40  C    5.999921
    41  C    5.999763
    42  O    7.999898
    43  O    7.999789
    44  C    6.000157
    45  H    1.000674
    46  H    1.000394
    47  H    0.999522
    48  H    1.000045
    49  H    0.999950
    50  H    1.000174
    51  H    1.000784
    52  H    0.999838
    53  H    0.999522
    54  H    1.000357
    55  H    1.000033
    56  H    0.999666
    57  H    1.000777
    58  H    1.000928
    59  H    1.000946
    60  H    1.000448
    61  H    1.000739
    62  H    1.000513
    63  H    0.999929
    64  H    0.999946
    65  H    0.999956
    66  H    0.999973
    67  H    1.000540
    68  H    0.999909
    69  H    0.999464
    70  H    0.999748
    71  H    1.000128
    72  H    1.000027
    73  H    0.998932
    74  H    0.999120
    75  H    0.999007
    76  H    0.999448
    77  H    0.999797
    78  H    0.999859
    79  H    0.999619
    80  Mg  12.003783
    81  C    5.985070
    82  C    6.016180
    83  C    6.006481
    84  C    5.986847
    85  N    6.996650
    86  C    6.029573
    87  C    5.995771
    88  C    6.010476
    89  C    5.967099
    90  C    5.999495
    91  C    5.996651
    92  C    6.000011
    93  H    1.003775
    94  N    7.004468
    95  C    5.964042
    96  C    5.978987
    97  C    5.982571
    98  C    5.981536
    99  C    6.004500
   100  C    5.985343
   101  O    7.972273
   102  C    6.002649
   103  N    6.995858
   104  C    5.973917
   105  C    6.005489
   106  C    5.991191
   107  C    6.032764
   108  C    6.005090
   109  C    5.994549
   110  C    5.999966
   111  N    7.000162
   112  C    6.032313
   113  C    6.029880
   114  C    6.004438
   115  C    6.023414
   116  C    6.000347
   117  C    6.014395
   118  O    8.027300
   119  C    6.002903
   120  C    6.005500
   121  O    8.005021
   122  O    8.002385
   123  C    5.998717
   124  H    0.995150
   125  H    0.992814
   126  H    1.007256
   127  H    0.994558
   128  H    0.998407
   129  H    0.988764
   130  H    1.002063
   131  H    0.997890
   132  H    1.012248
   133  H    0.993261
   134  H    1.004693
   135  H    0.997487
   136  H    0.982355
   137  H    0.981052
   138  H    0.985246
   139  H    0.989745
   140  H    0.997920
   141  H    0.986816
   142  H    1.003067
   143  H    1.003211
   144  H    1.001236
   145  H    0.988931
   146  H    1.003036
   147  H    0.999407
   148  H    1.010791
   149  H    0.998299
   150  H    0.997278
   151  H    1.005305
   152  H    1.016325
   153  H    1.013447
   154  H    1.018856
   155  H    1.004479
   156  H    1.005911
   157  H    1.000690
   158  H    1.002177
 Sum of Mulliken charges = 624.00000

 Dipole moment (field-independent basis, Debye):
    X=              9.0882    Y=              0.2836    Z=              5.3996  Tot=             10.5750
 Quadrupole moment (field-independent basis, Debye-Ang):
   XX=           -305.7863   YY=              1.2123   ZZ=              2.3179
   XY=            -13.3488   XZ=            -93.3623   YZ=             -3.3838

 Normal termination of Gaussian 16 at Fri Oct 15 15:33:55 2021.
