 Gaussian 16, Revision A.03,
 Gaussian 16:  ES64L-G16RevA.03 25-Dec-2016

 --------------------------------------------------------
 #p PBE1PBE/Def2SVP td=(nstates=5) density=(transition=1)
 --------------------------------------------------------

 --------------------------------
 TDDFT excited states in gaussian
 --------------------------------
 Symbolic Z-matrix:
 Charge =  0 Multiplicity = 1

                         Standard orientation:
 ---------------------------------------------------------------------
 Center     Atomic      Atomic             Coordinates (Angstroms)
 Number     Number       Type             X           Y           Z
 ---------------------------------------------------------------------
      1         12           0      -13.578300   -0.518139    0.305727
      2          6           0      -13.176508    2.677072   -1.112780
      3          6           0      -12.160783    0.745118    3.218702
      4          6           0      -13.677175   -3.620743    1.485406
      5          6           0      -14.191996   -1.835428   -2.977353
      6          7           0      -12.751679    1.446538    0.958095
      7          6           0      -12.820384    2.637330    0.221367
      8          6           0      -12.657018    3.815329    1.163920
      9          6           0      -12.063094    3.208955    2.467099
     10          6           0      -12.346887    1.699333    2.203767
     11          6           0      -10.585980    3.589138    2.799263
     12          6           0      -13.957241    4.664234    1.382032
     13          6           0      -13.688136    6.207947    1.663560
     14          1           0      -12.232917    6.676729    1.744742
     15          7           0      -13.131559   -1.267454    2.088073
     16          6           0      -12.633519   -0.584764    3.184449
     17          6           0      -12.565160   -1.444791    4.330489
     18          6           0      -12.876106   -2.751169    3.834227
     19          6           0      -13.276237   -2.568447    2.450421
     20          6           0      -12.058347   -0.981203    5.730285
     21          6           0      -12.823054   -4.061215    4.549989
     22          8           0      -12.973460   -5.147348    3.941163
     23          6           0      -12.509855   -4.351017    6.047474
     24          7           0      -13.618675   -2.491667   -0.635322
     25          6           0      -13.756685   -3.612335    0.098123
     26          6           0      -14.219703   -4.791056   -0.794567
     27          6           0      -14.363836   -4.239996   -2.217706
     28          6           0      -14.077000   -2.704493   -1.909398
     29          6           0      -13.370238   -6.009264   -0.596223
     30          6           0      -15.708175   -4.486345   -2.935622
     31          6           0      -16.955894   -3.912568   -2.219970
     32          7           0      -13.620042    0.203251   -1.706581
     33          6           0      -14.028803   -0.409294   -2.842135
     34          6           0      -14.209057    0.641053   -3.843125
     35          6           0      -13.921932    1.901722   -3.248801
     36          6           0      -13.510379    1.583310   -1.931741
     37          6           0      -14.758072    0.442210   -5.253424
     38          6           0      -13.854675    3.312064   -3.462926
     39          8           0      -14.182219    4.050535   -4.387989
     40          6           0      -13.274081    3.907245   -2.020671
     41          6           0      -12.037957    4.744897   -2.288954
     42          8           0      -10.932682    4.273356   -2.471229
     43          8           0      -12.325787    6.087548   -2.194550
     44          6           0      -11.399584    7.051119   -2.780410
     45          1           0      -11.827314    1.274986    4.113198
     46          1           0      -13.784110   -4.600991    1.953986
     47          1           0      -14.515063   -2.291612   -3.915108
     48          1           0      -11.932166    4.513228    0.745094
     49          1           0      -12.698280    3.540479    3.288014
     50          1           0      -10.109510    2.613251    2.886412
     51          1           0      -10.519483    4.047899    3.786515
     52          1           0      -10.008412    4.184722    2.092340
     53          1           0      -14.497867    4.342876    2.271746
     54          1           0      -14.614913    4.516749    0.526364
     55          1           0      -14.051219    6.420992    2.669107
     56          1           0      -14.222298    6.772533    0.899739
     57          1           0      -11.469492   -1.796717    6.151924
     58          1           0      -12.872664   -0.786181    6.427292
     59          1           0      -11.463470   -0.075416    5.846674
     60          1           0      -13.185926   -3.793541    6.696357
     61          1           0      -11.467518   -4.157931    6.301010
     62          1           0      -12.844378   -5.327858    6.394713
     63          1           0      -15.153052   -5.137662   -0.352779
     64          1           0      -13.459587   -4.567047   -2.732212
     65          1           0      -13.847881   -6.760475    0.033052
     66          1           0      -12.396128   -5.722005   -0.200049
     67          1           0      -13.099560   -6.520725   -1.520605
     68          1           0      -15.790742   -5.573404   -2.937570
     69          1           0      -15.659535   -4.119049   -3.961150
     70          1           0      -17.393749   -3.211359   -2.930098
     71          1           0      -16.598852   -3.413391   -1.319125
     72          1           0      -17.652462   -4.667940   -1.855898
     73          1           0      -15.478847    1.209450   -5.534704
     74          1           0      -15.351017   -0.469075   -5.325914
     75          1           0      -13.912019    0.340840   -5.933698
     76          1           0      -14.057370    4.584310   -1.678917
     77          1           0      -10.395507    6.686480   -2.562094
     78          1           0      -11.475181    8.061614   -2.378658
     79          1           0      -11.663474    7.101246   -3.836825
     80         12           0       12.765287   -0.796992   -0.148940
     81          6           0       14.946320    1.875284    0.496898
     82          6           0       10.258746    0.788790    1.375545
     83          6           0       10.929650   -3.390174   -0.764947
     84          6           0       15.748273   -2.735168   -0.807688
     85          7           0       12.701754    1.080531    0.906122
     86          6           0       13.596200    2.076819    0.919791
     87          6           0       13.111541    3.258801    1.719076
     88          6           0       11.761420    2.717744    2.339715
     89          6           0       11.538963    1.475997    1.498184
     90          6           0       11.710462    2.428294    3.875025
     91          6           0       12.804774    4.510593    0.748335
     92          6           0       13.420794    5.855985    1.254486
     93          1           0       13.359786    7.007815    0.111703
     94          7           0       10.856680   -1.125713    0.019429
     95          6           0        9.920180   -0.328229    0.654840
     96          6           0        8.609649   -0.829035    0.343771
     97          6           0        8.722448   -2.103662   -0.348492
     98          6           0       10.221017   -2.234004   -0.511748
     99          6           0        7.366653   -0.085918    0.912168
    100          6           0        7.748180   -3.144289   -0.888688
    101          8           0        8.041023   -4.157517   -1.548896
    102          6           0        6.327297   -2.775131   -0.647575
    103          7           0       13.352330   -2.779043   -0.547733
    104          6           0       12.308316   -3.646754   -0.753534
    105          6           0       12.816965   -5.071386   -0.976856
    106          6           0       14.311150   -4.813153   -1.304160
    107          6           0       14.525658   -3.381726   -0.808472
    108          6           0       12.457995   -5.974960    0.268872
    109          6           0       14.733415   -4.990816   -2.824257
    110          6           0       16.212207   -5.307289   -3.099250
    111          7           0       14.922579   -0.526150   -0.203561
    112          6           0       15.936275   -1.391655   -0.483422
    113          6           0       17.210110   -0.709086   -0.525191
    114          6           0       16.823680    0.606081   -0.208285
    115          6           0       15.444863    0.661062    0.040814
    116          6           0       18.643141   -1.205081   -0.826187
    117          6           0       17.344578    1.934911   -0.047508
    118          8           0       18.405978    2.443311   -0.297601
    119          6           0       16.128801    2.785294    0.593104
    120          6           0       16.223430    4.023468   -0.184744
    121          8           0       15.766406    4.277216   -1.327893
    122          8           0       16.935643    4.863171    0.586298
    123          6           0       17.240180    6.195324    0.062199
    124          1           0        9.411290    1.338076    1.791300
    125          1           0       10.308661   -4.243620   -1.045758
    126          1           0       16.603074   -3.344569   -1.108350
    127          1           0       13.809216    3.628393    2.471089
    128          1           0       10.873166    3.321966    2.154301
    129          1           0       11.647772    1.348011    4.005904
    130          1           0       10.790813    2.900372    4.220253
    131          1           0       12.545145    2.751644    4.496009
    132          1           0       11.754715    4.679840    0.507027
    133          1           0       13.169582    4.223493   -0.237927
    134          1           0       14.462896    5.715619    1.540834
    135          1           0       12.894898    6.323280    2.086706
    136          1           0        7.062123    0.662537    0.181907
    137          1           0        7.598980    0.588518    1.737256
    138          1           0        6.586621   -0.697861    1.364530
    139          1           0        6.013616   -1.844030   -1.118218
    140          1           0        6.281652   -2.757557    0.442011
    141          1           0        5.616827   -3.543490   -0.953771
    142          1           0       12.261585   -5.440280   -1.839263
    143          1           0       14.925841   -5.530186   -0.760067
    144          1           0       13.354842   -6.188709    0.850180
    145          1           0       12.015616   -6.955373    0.094170
    146          1           0       11.824994   -5.525636    1.034349
    147          1           0       14.601104   -3.985842   -3.225952
    148          1           0       14.166169   -5.700886   -3.426417
    149          1           0       16.714505   -4.496129   -3.627931
    150          1           0       16.468076   -6.205145   -3.662194
    151          1           0       16.690185   -5.311846   -2.120654
    152          1           0       18.642571   -2.268531   -0.587068
    153          1           0       19.378705   -0.669479   -0.224580
    154          1           0       18.794812   -1.067021   -1.896666
    155          1           0       16.355876    3.020448    1.633081
    156          1           0       16.669799    6.928581    0.632108
    157          1           0       17.126673    6.249042   -1.020020
    158          1           0       18.278327    6.424653    0.302212
 ---------------------------------------------------------------------

 SCF Done:  E(RPBE1PBE) =  -4067.37646992     A.U. after   16 cycles

 Excitation energies and oscillator strengths:

 Excited State   1:      Singlet-A      1.7852 eV  694.50 nm  f=0.0000  <S**2>=0.000
     312 -> 313        0.70710
 This state for optimization and/or second-order correction.
 Total Energy, E(TD-HF/TD-DFT) =  -4067.31086411
 Copying the excited state density for this state as the 1-particle RhoCI density.

 Excited State   2:      Singlet-A      1.8182 eV  681.91 nm  f=0.3839  <S**2>=0.000
     309 -> 316       -0.16264
     311 -> 313        0.69660
     311 <- 313       -0.11884

 Excited State   3:      Singlet-A      1.8757 eV  661.02 nm  f=0.3733  <S**2>=0.000
     310 -> 315       -0.18978
     312 -> 314        0.68791

 Excited State   4:      Singlet-A      2.0595 eV  602.00 nm  f=0.0000  <S**2>=0.000
     311 -> 314        0.70709

 Excited State   5:      Singlet-A      2.1901 eV  566.10 nm  f=0.1383  <S**2>=0.000
     309 -> 313        0.66504
     311 -> 316        0.21991

 The electronic state is 1-A.
 Alpha  occ. eigenvalues --  -46.92375 -46.90948 -19.25484 -19.24973 -19.19761
 Alpha  occ. eigenvalues --  -19.19733 -19.19511 -19.19257 -19.18650 -19.18576
 Alpha  occ. eigenvalues --  -14.42026 -14.41980 -14.41246 -14.41129 -14.39935
 Alpha  occ. eigenvalues --  -14.39186 -14.39078 -14.38055 -10.36163 -10.35523
 Alpha  occ. eigenvalues --  -10.32974 -10.32859 -10.32603 -10.31806 -10.29405
 Alpha  occ. eigenvalues --  -10.29142 -10.28946 -10.28685 -10.28674 -10.28591
 Alpha  occ. eigenvalues --  -10.28448 -10.28435 -10.28268 -10.28198 -10.28179
 Alpha  occ. eigenvalues --  -10.28063 -10.28031 -10.27780 -10.27682 -10.27561
 Alpha  occ. eigenvalues --  -10.27030 -10.26985 -10.26977 -10.26930 -10.26861
 Alpha  occ. eigenvalues --  -10.26537 -10.26173 -10.26146 -10.25983 -10.25964
 Alpha  occ. eigenvalues --  -10.25956 -10.25930 -10.25629 -10.25615 -10.25566
 Alpha  occ. eigenvalues --  -10.25540 -10.25505 -10.25469 -10.25390 -10.25384
 Alpha  occ. eigenvalues --  -10.25186 -10.25159 -10.25155 -10.25014 -10.25003
 Alpha  occ. eigenvalues --  -10.24896 -10.24734 -10.24459 -10.24445 -10.24413
 Alpha  occ. eigenvalues --  -10.24098 -10.24066 -10.23949 -10.23908 -10.23901
 Alpha  occ. eigenvalues --  -10.23748 -10.23565 -10.23455 -10.23338 -10.23205
 Alpha  occ. eigenvalues --  -10.23192 -10.23192 -10.23110 -10.22800 -10.22425
 Alpha  occ. eigenvalues --  -10.22195  -3.14523  -3.13362  -1.87333  -1.86897
 Alpha  occ. eigenvalues --   -1.86760  -1.86189  -1.85749  -1.85601  -1.10676
 Alpha  occ. eigenvalues --   -1.10264  -1.05530  -1.04323  -1.03972  -1.03089
 Alpha  occ. eigenvalues --   -1.02328  -1.00282  -0.99811  -0.98949  -0.98938
 Alpha  occ. eigenvalues --   -0.98233  -0.98115  -0.97936  -0.96996  -0.96930
 Alpha  occ. eigenvalues --   -0.87067  -0.86640  -0.83565  -0.83386  -0.82843
 Alpha  occ. eigenvalues --   -0.82498  -0.82461  -0.82316  -0.81773  -0.81755
 Alpha  occ. eigenvalues --   -0.81127  -0.81051  -0.80580  -0.79781  -0.78778
 Alpha  occ. eigenvalues --   -0.78112  -0.78081  -0.77715  -0.76650  -0.76506
 Alpha  occ. eigenvalues --   -0.76413  -0.75593  -0.75391  -0.75025  -0.74587
 Alpha  occ. eigenvalues --   -0.74182  -0.72918  -0.72416  -0.71596  -0.71333
 Alpha  occ. eigenvalues --   -0.71175  -0.71113  -0.70204  -0.70204  -0.69700
 Alpha  occ. eigenvalues --   -0.69391  -0.67209  -0.67084  -0.66561  -0.65555
 Alpha  occ. eigenvalues --   -0.64298  -0.63592  -0.63554  -0.63168  -0.62898
 Alpha  occ. eigenvalues --   -0.62270  -0.61966  -0.61580  -0.60444  -0.59967
 Alpha  occ. eigenvalues --   -0.59813  -0.59394  -0.59355  -0.58975  -0.58800
 Alpha  occ. eigenvalues --   -0.58662  -0.56321  -0.56292  -0.55458  -0.54733
 Alpha  occ. eigenvalues --   -0.54340  -0.54117  -0.53723  -0.53431  -0.53228
 Alpha  occ. eigenvalues --   -0.52797  -0.52587  -0.52085  -0.51527  -0.51510
 Alpha  occ. eigenvalues --   -0.50868  -0.50541  -0.50358  -0.50337  -0.50004
 Alpha  occ. eigenvalues --   -0.49419  -0.49380  -0.48845  -0.48540  -0.48454
 Alpha  occ. eigenvalues --   -0.48068  -0.47899  -0.47752  -0.47617  -0.47417
 Alpha  occ. eigenvalues --   -0.47357  -0.47206  -0.47056  -0.46755  -0.46725
 Alpha  occ. eigenvalues --   -0.46558  -0.46188  -0.45966  -0.45913  -0.45700
 Alpha  occ. eigenvalues --   -0.45555  -0.45378  -0.45174  -0.45001  -0.44721
 Alpha  occ. eigenvalues --   -0.44522  -0.44521  -0.44196  -0.43992  -0.43920
 Alpha  occ. eigenvalues --   -0.43898  -0.43760  -0.43680  -0.43492  -0.43484
 Alpha  occ. eigenvalues --   -0.43261  -0.43044  -0.42885  -0.42670  -0.42600
 Alpha  occ. eigenvalues --   -0.42527  -0.42393  -0.42141  -0.42083  -0.41926
 Alpha  occ. eigenvalues --   -0.41558  -0.41462  -0.41161  -0.41128  -0.41065
 Alpha  occ. eigenvalues --   -0.41017  -0.40639  -0.40555  -0.40438  -0.40233
 Alpha  occ. eigenvalues --   -0.40231  -0.40014  -0.39905  -0.39614  -0.39489
 Alpha  occ. eigenvalues --   -0.39325  -0.39042  -0.38913  -0.38876  -0.38851
 Alpha  occ. eigenvalues --   -0.38542  -0.38355  -0.38261  -0.38237  -0.38043
 Alpha  occ. eigenvalues --   -0.37896  -0.37725  -0.37670  -0.37607  -0.37509
 Alpha  occ. eigenvalues --   -0.37389  -0.37335  -0.37007  -0.36846  -0.36826
 Alpha  occ. eigenvalues --   -0.36803  -0.36634  -0.36548  -0.36349  -0.36192
 Alpha  occ. eigenvalues --   -0.35982  -0.35655  -0.35626  -0.35485  -0.35480
 Alpha  occ. eigenvalues --   -0.35162  -0.35064  -0.34641  -0.34478  -0.34182
 Alpha  occ. eigenvalues --   -0.33703  -0.33639  -0.32865  -0.32788  -0.32688
 Alpha  occ. eigenvalues --   -0.32400  -0.31978  -0.31966  -0.31421  -0.30929
 Alpha  occ. eigenvalues --   -0.30442  -0.30323  -0.29416  -0.29256  -0.29142
 Alpha  occ. eigenvalues --   -0.28962  -0.28478  -0.27834  -0.27125  -0.26938
 Alpha  occ. eigenvalues --   -0.26352  -0.26344  -0.25927  -0.25865  -0.25534
 Alpha  occ. eigenvalues --   -0.25314  -0.25172  -0.25013  -0.21115  -0.21069
 Alpha  occ. eigenvalues --   -0.19042  -0.18749
 Alpha virt. eigenvalues --   -0.11686  -0.10965  -0.05702  -0.05077  -0.04422
 Alpha virt. eigenvalues --   -0.04330  -0.02371  -0.01909  -0.01327   0.00209
 Alpha virt. eigenvalues --    0.00539   0.00878   0.00996   0.01012   0.01526

 Mulliken charges:
               1
     1  Mg  12.000000
     2  C    6.000000
     3  C    6.000000
     4  C    6.000000
     5  C    6.000000
     6  N    7.000000
     7  C    6.000000
     8  C    6.000000
     9  C    6.000000
    10  C    6.000000
    11  C    6.000000
    12  C    6.000000
    13  C    6.000000
    14  H    1.000000
    15  N    7.000000
    16  C    6.000000
    17  C    6.000000
    18  C    6.000000
    19  C    6.000000
    20  C    6.000000
    21  C    6.000000
    22  O    8.000000
    23  C    6.000000
    24  N    7.000000
    25  C    6.000000
    26  C    6.000000
    27  C    6.000000
    28  C    6.000000
    29  C    6.000000
    30  C    6.000000
    31  C    6.000000
    32  N    7.000000
    33  C    6.000000
    34  C    6.000000
    35  C    6.000000
    36  C    6.000000
    37  C    6.000000
    38  C    6.000000
    39  O    8.000000
    40  C    6.000000
    41  C    6.000000
    42  O    8.000000
    43  O    8.000000
    44  C    6.000000
    45  H    1.000000
    46  H    1.000000
    47  H    1.000000
    48  H    1.000000
    49  H    1.000000
    50  H    1.000000
    51  H    1.000000
    52  H    1.000000
    53  H    1.000000
    54  H    1.000000
    55  H    1.000000
    56  H    1.000000
    57  H    1.000000
    58  H    1.000000
    59  H    1.000000
    60  H    1.000000
    61  H    1.000000
    62  H    1.000000
    63  H    1.000000
    64  H    1.000000
    65  H    1.000000
    66  H    1.000000
    67  H    1.000000
    68  H    1.000000
    69  H    1.000000
    70  H    1.000000
    71  H    1.000000
    72  H    1.000000
    73  H    1.000000
    74  H    1.000000
    75  H    1.000000
    76  H    1.000000
    77  H    1.000000
    78  H    1.000000
    79  H    1.000000
    80  Mg  12.000000
    81  C    6.000000
    82  C    6.000000
    83  C    6.000000
    84  C    6.000000
    85  N    7.000000
    86  C    6.000000
    87  C    6.000000
    88  C    6.000000
    89  C    6.000000
    90  C    6.000000
    91  C    6.000000
    92  C    6.000000
    93  H    1.000000
    94  N    7.000000
    95  C    6.000000
    96  C    6.000000
    97  C    6.000000
    98  C    6.000000
    99  C    6.000000
   100  C    6.000000
   101  O    8.000000
   102  C    6.000000
   103  N    7.000000
   104  C    6.000000
   105  C    6.000000
   106  C    6.000000
   107  C    6.000000
   108  C    6.000000
   109  C    6.000000
   110  C    6.000000
   111  N    7.000000
   112  C    6.000000
   113  C    6.000000
   114  C    6.000000
   115  C    6.000000
   116  C    6.000000
   117  C    6.000000
   118  O    8.000000
   119  C    6.000000
   120  C    6.000000
   121  O    8.000000
   122  O    8.000000
   123  C    6.000000
   124  H    1.000000
   125  H    1.000000
   126  H    1.000000
   127  H    1.000000
   128  H    1.000000
   129  H    1.000000
   130  H    1.000000
   131  H    1.000000
   132  H    1.000000
   133  H    1.000000
   134  H    1.000000
   135  H    1.000000
   136  H    1.000000
   137  H    1.000000
   138  H    1.000000
   139  H    1.000000
   140  H    1.000000
   141  H    1.000000
   142  H    1.000000
   143  H    1.000000
   144  H    1.000000
   145  H    1.000000
   146  H    1.000000
   147  H    1.000000
   148  H    1.000000
   149  H    1.000000
   150  H    1.000000
   151  H    1.000000
   152  H    1.000000
   153  H    1.000000
   154  H    1.000000
   155  H    1.000000
   156  H    1.000000
   157  H    1.000000
   158  H    1.000000
 Sum of Mulliken charges = 624.00000

 Dipole moment (field-independent basis, Debye):
    X=             -0.0000    Y=              0.0000    Z=             -0.0000  Tot=              0.0000
 Quadrupole moment (field-independent basis, Debye-Ang):
   XX=              0.0000   YY=             -0.0000   ZZ=             -0.0000
   XY=             -0.0000   XZ=              0.0000   YZ=              0.0000

 Normal termination of Gaussian 16 at Thu Oct 14 11:35:00 2021.
