 Gaussian 16, Revision A.03,
 Gaussian 16:  ES64L-G16RevA.03 25-Dec-2016

 --------------------------------------------------------
 #p PBE1PBE/Def2SVP td=(nstates=5) density=(transition=1)
 --------------------------------------------------------

 --------------------------------
 TDDFT excited states in gaussian
 --------------------------------
 Symbolic Z-matrix:
 Charge =  0 Multiplicity = 1

                         Standard orientation:
 ---------------------------------------------------------------------
 Center     Atomic      Atomic             Coordinates (Angstroms)
 Number     Number       Type             X           Y           Z
 ---------------------------------------------------------------------
      1         12           0      -33.061616   -0.017455   -0.108153
      2          6           0      -29.741497    0.879409   -0.028704
      3          6           0      -32.310117   -3.272406    0.645472
      4          6           0      -36.459972   -0.860948   -0.002751
      5          6           0      -33.984156    3.309259   -0.018121
      6          7           0      -31.197061   -0.962170    0.468245
      7          6           0      -29.897713   -0.487484    0.269613
      8          6           0      -28.852883   -1.533526    0.666352
      9          6           0      -29.750224   -2.797144    0.674583
     10          6           0      -31.222047   -2.335815    0.680527
     11          6           0      -29.377647   -3.812273   -0.428044
     12          6           0      -28.199978   -1.219707    2.027084
     13          6           0      -26.651674   -1.440029    2.136411
     14          1           0      -26.141766   -1.841899    3.465102
     15          7           0      -34.178090   -1.793707    0.209833
     16          6           0      -33.690476   -3.038960    0.413300
     17          6           0      -34.693365   -4.056043    0.307632
     18          6           0      -35.893936   -3.403153   -0.016680
     19          6           0      -35.541128   -1.923692    0.023951
     20          6           0      -34.410798   -5.558492    0.369495
     21          6           0      -37.293425   -4.067432   -0.282033
     22          8           0      -37.405960   -5.309326   -0.118516
     23          6           0      -38.557965   -3.274231   -0.827378
     24          7           0      -34.952972    1.077645    0.279552
     25          6           0      -36.177078    0.517258    0.123853
     26          6           0      -37.284099    1.536838    0.043195
     27          6           0      -36.525888    2.881127    0.085414
     28          6           0      -35.066642    2.418640    0.075670
     29          6           0      -38.252421    1.355685   -1.172525
     30          6           0      -36.978519    3.825710    1.298491
     31          6           0      -37.858249    5.013233    0.890824
     32          7           0      -32.102923    1.757202   -0.094369
     33          6           0      -32.581320    3.085989   -0.089554
     34          6           0      -31.463453    4.003787   -0.345609
     35          6           0      -30.365652    3.156262   -0.399238
     36          6           0      -30.811473    1.854463   -0.117370
     37          6           0      -31.450631    5.483876   -0.486361
     38          6           0      -28.906039    3.133246   -0.570956
     39          8           0      -28.107915    3.991411   -0.982298
     40          6           0      -28.439877    1.634308   -0.380246
     41          6           0      -27.780344    1.093335   -1.641702
     42          8           0      -28.171836    1.210532   -2.807199
     43          8           0      -26.633629    0.519414   -1.178944
     44          6           0      -25.688143    0.058634   -2.181877
     45          1           0      -32.082962   -4.314478    0.879475
     46          1           0      -37.541409   -0.998748   -0.066544
     47          1           0      -34.207301    4.377944   -0.002943
     48          1           0      -28.059971   -1.559481   -0.081861
     49          1           0      -29.519169   -3.259520    1.634181
     50          1           0      -28.383077   -3.781269   -0.872930
     51          1           0      -30.047544   -3.595790   -1.260057
     52          1           0      -29.507802   -4.843260   -0.099900
     53          1           0      -28.691025   -1.724250    2.858752
     54          1           0      -28.484442   -0.189253    2.241391
     55          1           0      -26.142785   -0.523153    1.839096
     56          1           0      -26.373632   -2.261197    1.474271
     57          1           0      -34.793775   -5.965730   -0.565959
     58          1           0      -34.751722   -5.957391    1.324953
     59          1           0      -33.324984   -5.630743    0.307775
     60          1           0      -39.037848   -2.836238    0.047036
     61          1           0      -39.212831   -4.021287   -1.275278
     62          1           0      -38.199243   -2.662684   -1.655727
     63          1           0      -37.899478    1.433731    0.937031
     64          1           0      -36.530292    3.469298   -0.831969
     65          1           0      -38.446085    2.302673   -1.675569
     66          1           0      -39.214320    0.932787   -0.883259
     67          1           0      -37.838228    0.607772   -1.847409
     68          1           0      -36.131944    4.296518    1.798076
     69          1           0      -37.452414    3.229699    2.078347
     70          1           0      -38.632390    5.171299    1.641913
     71          1           0      -38.330035    4.808393   -0.069954
     72          1           0      -37.311668    5.948664    0.772588
     73          1           0      -32.487169    5.820875   -0.473678
     74          1           0      -30.785015    5.774466   -1.299384
     75          1           0      -31.046054    5.867776    0.450757
     76          1           0      -27.775179    1.511307    0.475240
     77          1           0      -26.148751   -0.487178   -3.006284
     78          1           0      -24.855531   -0.553158   -1.834699
     79          1           0      -25.172776    0.913856   -2.619769
     80         12           0       32.982427    0.327732   -0.640900
     81          6           0       30.309532   -1.392749    0.978133
     82          6           0       31.972334    3.024801    1.007590
     83          6           0       35.975152    1.763103   -1.277146
     84          6           0       34.259924   -2.909981   -1.406021
     85          7           0       31.322243    0.774495    0.676611
     86          6           0       30.277346   -0.044019    1.157486
     87          6           0       29.271309    0.720591    2.074334
     88          6           0       29.835679    2.167659    2.000293
     89          6           0       31.079701    2.021163    1.098678
     90          6           0       28.706443    3.077475    1.488650
     91          6           0       29.107630    0.215051    3.572493
     92          6           0       27.752010   -0.367302    3.955484
     93          1           0       27.018837    0.268911    5.154049
     94          7           0       33.827061    2.127222   -0.302340
     95          6           0       33.217074    3.141933    0.434912
     96          6           0       33.985754    4.319303    0.384107
     97          6           0       35.100425    4.069916   -0.395072
     98          6           0       35.046996    2.652762   -0.692040
     99          6           0       33.683684    5.722973    1.028583
    100          6           0       36.114513    5.133239   -0.746160
    101          8           0       35.989021    6.293266   -0.487812
    102          6           0       37.354040    4.636726   -1.640997
    103          7           0       34.882014   -0.453715   -1.185905
    104          6           0       35.946343    0.372275   -1.424663
    105          6           0       37.195275   -0.557047   -1.714205
    106          6           0       36.670622   -1.992360   -1.885784
    107          6           0       35.168234   -1.798958   -1.449869
    108          6           0       38.117830   -0.059990   -2.790687
    109          6           0       37.369665   -2.910960   -0.891317
    110          6           0       37.408984   -4.380252   -1.217840
    111          7           0       32.305526   -1.743308   -0.519259
    112          6           0       32.920727   -2.914055   -0.893549
    113          6           0       32.061492   -4.016883   -0.657773
    114          6           0       30.934499   -3.510779    0.032128
    115          6           0       31.219845   -2.124390    0.183390
    116          6           0       32.339616   -5.444465   -0.909586
    117          6           0       29.652743   -3.763096    0.704323
    118          8           0       29.021934   -4.825293    0.789987
    119          6           0       29.163624   -2.402055    1.332797
    120          6           0       27.997421   -1.947280    0.623701
    121          8           0       28.089760   -1.447279   -0.522356
    122          8           0       26.927031   -2.219061    1.395865
    123          6           0       25.600884   -1.677145    0.991295
    124          1           0       31.646626    3.941414    1.504466
    125          1           0       36.904947    2.276795   -1.530694
    126          1           0       34.545013   -3.913770   -1.726854
    127          1           0       28.278081    0.701115    1.625865
    128          1           0       30.190347    2.546202    2.958466
    129          1           0       29.154780    4.049371    1.284498
    130          1           0       27.870413    3.229295    2.171237
    131          1           0       28.261993    2.707523    0.564008
    132          1           0       29.162028    1.130421    4.161803
    133          1           0       29.924514   -0.458578    3.831610
    134          1           0       27.898759   -1.431893    4.140920
    135          1           0       27.064042   -0.251801    3.117210
    136          1           0       34.570192    5.973760    1.611445
    137          1           0       32.815412    5.691605    1.686595
    138          1           0       33.393210    6.512302    0.335317
    139          1           0       37.910940    5.538308   -1.894414
    140          1           0       36.864557    4.148185   -2.483849
    141          1           0       37.857393    3.948212   -0.962325
    142          1           0       37.766582   -0.496927   -0.787201
    143          1           0       36.763255   -2.435299   -2.877363
    144          1           0       38.586977   -0.922461   -3.263340
    145          1           0       38.846760    0.575488   -2.287372
    146          1           0       37.651197    0.612146   -3.509872
    147          1           0       36.977247   -2.822370    0.122143
    148          1           0       38.401176   -2.609889   -0.708563
    149          1           0       37.095715   -4.596893   -2.238966
    150          1           0       36.735939   -4.891076   -0.528940
    151          1           0       38.374298   -4.809418   -0.949530
    152          1           0       33.034762   -5.579659   -1.738803
    153          1           0       31.373465   -5.891130   -1.145664
    154          1           0       32.806753   -5.812750    0.004074
    155          1           0       29.045102   -2.415590    2.416260
    156          1           0       24.953102   -2.479908    1.346511
    157          1           0       25.511902   -1.471198   -0.074962
    158          1           0       25.295616   -0.848644    1.631323
 ---------------------------------------------------------------------

 SCF Done:  E(RPBE1PBE) =  -4067.39277394     A.U. after   16 cycles

 Excitation energies and oscillator strengths:

 Excited State   1:      Singlet-A      1.8386 eV  674.35 nm  f=0.3505  <S**2>=0.000
     310 -> 315        0.16803
     312 -> 314        0.69271
     312 <- 314       -0.10468
 This state for optimization and/or second-order correction.
 Total Energy, E(TD-HF/TD-DFT) =  -4067.32520792
 Copying the excited state density for this state as the 1-particle RhoCI density.

 Excited State   2:      Singlet-A      1.8689 eV  663.41 nm  f=0.3706  <S**2>=0.000
     309 -> 316       -0.16693
     311 -> 313        0.69417
     311 <- 313       -0.10955

 Excited State   3:      Singlet-A      1.9860 eV  624.29 nm  f=0.0000  <S**2>=0.000
     312 -> 313        0.70711

 Excited State   4:      Singlet-A      2.0530 eV  603.93 nm  f=0.0000  <S**2>=0.000
     311 -> 314        0.70711

 Excited State   5:      Singlet-A      2.2418 eV  553.06 nm  f=0.0974  <S**2>=0.000
     310 -> 314        0.64073
     312 -> 315       -0.28288

 The electronic state is 1-A.
 Alpha  occ. eigenvalues --  -46.92584 -46.91944 -19.27164 -19.27083 -19.20584
 Alpha  occ. eigenvalues --  -19.19937 -19.19730 -19.19703 -19.19145 -19.18916
 Alpha  occ. eigenvalues --  -14.42003 -14.41971 -14.41777 -14.41644 -14.39726
 Alpha  occ. eigenvalues --  -14.39097 -14.38891 -14.38248 -10.37056 -10.36513
 Alpha  occ. eigenvalues --  -10.33702 -10.32705 -10.32510 -10.32121 -10.30071
 Alpha  occ. eigenvalues --  -10.29725 -10.29483 -10.29310 -10.29249 -10.29019
 Alpha  occ. eigenvalues --  -10.29014 -10.28732 -10.28504 -10.28481 -10.28446
 Alpha  occ. eigenvalues --  -10.27976 -10.27809 -10.27725 -10.27040 -10.26685
 Alpha  occ. eigenvalues --  -10.26523 -10.26382 -10.26356 -10.26178 -10.25973
 Alpha  occ. eigenvalues --  -10.25959 -10.25936 -10.25933 -10.25868 -10.25867
 Alpha  occ. eigenvalues --  -10.25815 -10.25758 -10.25729 -10.25711 -10.25668
 Alpha  occ. eigenvalues --  -10.25648 -10.25630 -10.25455 -10.25397 -10.25257
 Alpha  occ. eigenvalues --  -10.25075 -10.25042 -10.25034 -10.24816 -10.24731
 Alpha  occ. eigenvalues --  -10.24715 -10.24641 -10.24621 -10.24547 -10.24349
 Alpha  occ. eigenvalues --  -10.24224 -10.24192 -10.23846 -10.23592 -10.23591
 Alpha  occ. eigenvalues --  -10.23558 -10.23529 -10.23463 -10.23445 -10.23440
 Alpha  occ. eigenvalues --  -10.23268 -10.23242 -10.23038 -10.22836 -10.22653
 Alpha  occ. eigenvalues --  -10.22613  -3.14695  -3.14115  -1.87500  -1.87056
 Alpha  occ. eigenvalues --   -1.86948  -1.86932  -1.86469  -1.86365  -1.11692
 Alpha  occ. eigenvalues --   -1.11425  -1.06608  -1.03551  -1.03262  -1.03139
 Alpha  occ. eigenvalues --   -1.02676  -1.02202  -0.99430  -0.98740  -0.98681
 Alpha  occ. eigenvalues --   -0.98023  -0.97873  -0.97485  -0.96748  -0.96382
 Alpha  occ. eigenvalues --   -0.86633  -0.85881  -0.83974  -0.83570  -0.83182
 Alpha  occ. eigenvalues --   -0.83106  -0.82977  -0.82976  -0.81778  -0.81647
 Alpha  occ. eigenvalues --   -0.81260  -0.81028  -0.80834  -0.80587  -0.79054
 Alpha  occ. eigenvalues --   -0.78581  -0.78577  -0.78227  -0.77535  -0.76796
 Alpha  occ. eigenvalues --   -0.76161  -0.75796  -0.75503  -0.75324  -0.74531
 Alpha  occ. eigenvalues --   -0.74518  -0.72337  -0.72094  -0.71732  -0.71655
 Alpha  occ. eigenvalues --   -0.70989  -0.70912  -0.70572  -0.70249  -0.69622
 Alpha  occ. eigenvalues --   -0.69442  -0.67265  -0.67213  -0.66174  -0.66155
 Alpha  occ. eigenvalues --   -0.63548  -0.63548  -0.63376  -0.63033  -0.62351
 Alpha  occ. eigenvalues --   -0.62226  -0.61625  -0.61579  -0.60578  -0.60076
 Alpha  occ. eigenvalues --   -0.60003  -0.59679  -0.59521  -0.59438  -0.59155
 Alpha  occ. eigenvalues --   -0.59136  -0.57342  -0.56853  -0.54651  -0.54501
 Alpha  occ. eigenvalues --   -0.54229  -0.54193  -0.53910  -0.53557  -0.53207
 Alpha  occ. eigenvalues --   -0.53032  -0.52828  -0.52352  -0.51828  -0.51775
 Alpha  occ. eigenvalues --   -0.50941  -0.50566  -0.50512  -0.50427  -0.49817
 Alpha  occ. eigenvalues --   -0.49584  -0.49582  -0.49286  -0.48895  -0.48438
 Alpha  occ. eigenvalues --   -0.48416  -0.47959  -0.47855  -0.47759  -0.47447
 Alpha  occ. eigenvalues --   -0.47286  -0.46981  -0.46937  -0.46747  -0.46608
 Alpha  occ. eigenvalues --   -0.46253  -0.46150  -0.46109  -0.45909  -0.45845
 Alpha  occ. eigenvalues --   -0.45750  -0.45563  -0.45479  -0.45185  -0.45046
 Alpha  occ. eigenvalues --   -0.44818  -0.44593  -0.44491  -0.44357  -0.44118
 Alpha  occ. eigenvalues --   -0.43976  -0.43759  -0.43687  -0.43574  -0.43214
 Alpha  occ. eigenvalues --   -0.43070  -0.42946  -0.42862  -0.42774  -0.42696
 Alpha  occ. eigenvalues --   -0.42515  -0.42249  -0.42210  -0.42121  -0.42002
 Alpha  occ. eigenvalues --   -0.41994  -0.41666  -0.41515  -0.41305  -0.41161
 Alpha  occ. eigenvalues --   -0.41122  -0.41007  -0.40782  -0.40704  -0.40392
 Alpha  occ. eigenvalues --   -0.40317  -0.40075  -0.40046  -0.39908  -0.39569
 Alpha  occ. eigenvalues --   -0.39544  -0.39502  -0.39198  -0.39103  -0.38885
 Alpha  occ. eigenvalues --   -0.38751  -0.38691  -0.38577  -0.38391  -0.38318
 Alpha  occ. eigenvalues --   -0.38301  -0.38183  -0.38122  -0.37902  -0.37725
 Alpha  occ. eigenvalues --   -0.37666  -0.37375  -0.37329  -0.37164  -0.37139
 Alpha  occ. eigenvalues --   -0.36996  -0.36816  -0.36768  -0.36591  -0.36526
 Alpha  occ. eigenvalues --   -0.36509  -0.36086  -0.35761  -0.35553  -0.35532
 Alpha  occ. eigenvalues --   -0.35195  -0.35095  -0.34678  -0.34250  -0.34080
 Alpha  occ. eigenvalues --   -0.33660  -0.33388  -0.33376  -0.33171  -0.33120
 Alpha  occ. eigenvalues --   -0.32621  -0.32386  -0.32206  -0.31928  -0.31770
 Alpha  occ. eigenvalues --   -0.31477  -0.31065  -0.30058  -0.29761  -0.29420
 Alpha  occ. eigenvalues --   -0.29110  -0.28675  -0.28586  -0.27391  -0.26964
 Alpha  occ. eigenvalues --   -0.26265  -0.26152  -0.25777  -0.25777  -0.25620
 Alpha  occ. eigenvalues --   -0.25518  -0.25407  -0.24752  -0.21171  -0.21092
 Alpha  occ. eigenvalues --   -0.18875  -0.18735
 Alpha virt. eigenvalues --   -0.11236  -0.11131  -0.05541  -0.05251  -0.04001
 Alpha virt. eigenvalues --   -0.03716  -0.02502  -0.01682  -0.01124  -0.00518
 Alpha virt. eigenvalues --    0.00005   0.00228   0.00560   0.00685   0.01388

 Mulliken charges:
               1
     1  Mg  12.001011
     2  C    5.973083
     3  C    6.009249
     4  C    6.024404
     5  C    6.000574
     6  N    6.984169
     7  C    6.034640
     8  C    5.992617
     9  C    6.008351
    10  C    5.969579
    11  C    6.002950
    12  C    6.000410
    13  C    5.998656
    14  H    1.003700
    15  N    7.004458
    16  C    5.967340
    17  C    5.979718
    18  C    5.987804
    19  C    5.962562
    20  C    6.001724
    21  C    5.988917
    22  O    7.979256
    23  C    5.997994
    24  N    7.006902
    25  C    5.965211
    26  C    6.010703
    27  C    5.992259
    28  C    6.031601
    29  C    6.000637
    30  C    5.996886
    31  C    5.999431
    32  N    7.000041
    33  C    6.035651
    34  C    6.024101
    35  C    6.003038
    36  C    6.026518
    37  C    5.998229
    38  C    6.017300
    39  O    8.030315
    40  C    6.000486
    41  C    6.005703
    42  O    8.001965
    43  O    8.001762
    44  C    5.998389
    45  H    0.989711
    46  H    0.994655
    47  H    1.012742
    48  H    0.998186
    49  H    0.995018
    50  H    0.987304
    51  H    0.999258
    52  H    1.000797
    53  H    1.008317
    54  H    0.992703
    55  H    0.995275
    56  H    1.003858
    57  H    0.986313
    58  H    0.983834
    59  H    0.985156
    60  H    0.990100
    61  H    0.989422
    62  H    0.991736
    63  H    0.999265
    64  H    0.997527
    65  H    0.990448
    66  H    1.002390
    67  H    1.003442
    68  H    0.996872
    69  H    1.011023
    70  H    1.005268
    71  H    1.005261
    72  H    0.997989
    73  H    1.014716
    74  H    1.015005
    75  H    1.018336
    76  H    1.007392
    77  H    1.004859
    78  H    1.005087
    79  H    1.000438
    80  Mg  12.000003
    81  C    6.000055
    82  C    6.000040
    83  C    5.999997
    84  C    5.999974
    85  N    7.000042
    86  C    6.000000
    87  C    5.999976
    88  C    6.000029
    89  C    5.999885
    90  C    6.000011
    91  C    6.000002
    92  C    6.000001
    93  H    0.999995
    94  N    6.999983
    95  C    5.999904
    96  C    5.999968
    97  C    5.999953
    98  C    5.999952
    99  C    6.000014
   100  C    5.999997
   101  O    7.999948
   102  C    5.999997
   103  N    6.999939
   104  C    6.000002
   105  C    6.000004
   106  C    6.000003
   107  C    6.000086
   108  C    5.999996
   109  C    5.999970
   110  C    5.999996
   111  N    7.000036
   112  C    6.000083
   113  C    6.000044
   114  C    6.000027
   115  C    5.999993
   116  C    5.999995
   117  C    6.000041
   118  O    8.000073
   119  C    5.999980
   120  C    6.000001
   121  O    8.000009
   122  O    8.000001
   123  C    6.000002
   124  H    0.999955
   125  H    1.000010
   126  H    1.000033
   127  H    0.999988
   128  H    0.999992
   129  H    1.000002
   130  H    0.999958
   131  H    0.999971
   132  H    1.000010
   133  H    1.000006
   134  H    0.999999
   135  H    0.999988
   136  H    0.999969
   137  H    0.999960
   138  H    0.999950
   139  H    0.999983
   140  H    0.999982
   141  H    0.999990
   142  H    1.000007
   143  H    1.000012
   144  H    0.999998
   145  H    1.000014
   146  H    1.000000
   147  H    1.000006
   148  H    1.000036
   149  H    1.000002
   150  H    0.999992
   151  H    1.000028
   152  H    1.000040
   153  H    1.000033
   154  H    1.000055
   155  H    1.000022
   156  H    1.000002
   157  H    0.999999
   158  H    1.000001
 Sum of Mulliken charges = 624.00000

 Dipole moment (field-independent basis, Debye):
    X=              4.4822    Y=              8.9521    Z=             -0.5612  Tot=             10.0272
 Quadrupole moment (field-independent basis, Debye-Ang):
   XX=           -295.3675   YY=             -0.5181   ZZ=              0.4410
   XY=           -299.5795   XZ=             15.4700   YZ=             -0.4449

 Normal termination of Gaussian 16 at Fri Oct 15 16:24:25 2021.
