 Gaussian 16, Revision A.03,
 Gaussian 16:  ES64L-G16RevA.03 25-Dec-2016

 ---------------------------------------------------------
 #p PBE1PBE/Def2SVP td=(nstates=5, root=1) density=current
 ---------------------------------------------------------

 --------------------------------
 TDDFT excited states in gaussian
 --------------------------------
 Symbolic Z-matrix:
 Charge =  0 Multiplicity = 1

                         Standard orientation:
 ---------------------------------------------------------------------
 Center     Atomic      Atomic             Coordinates (Angstroms)
 Number     Number       Type             X           Y           Z
 ---------------------------------------------------------------------
      1         12           0       -0.769893    0.028382   -0.536872
      2          6           0        2.706398    0.184291    0.248483
      3          6           0       -0.584781   -3.199103    0.212169
      4          6           0       -4.137394   -0.038244   -0.259381
      5          6           0       -0.720146    3.583561   -0.295156
      6          7           0        0.835792   -1.318294    0.010744
      7          6           0        2.215073   -1.083973    0.199672
      8          6           0        3.012238   -2.375222    0.566488
      9          6           0        1.894468   -3.453134    0.484635
     10          6           0        0.635190   -2.636580    0.124885
     11          6           0        2.350965   -4.514778   -0.529879
     12          6           0        3.771809   -2.401616    1.962624
     13          6           0        5.294270   -2.458809    1.914022
     14          1           0        5.985381   -3.619853    2.657805
     15          7           0       -2.167115   -1.383760   -0.190723
     16          6           0       -1.866707   -2.710771    0.115966
     17          6           0       -3.041583   -3.483066    0.169599
     18          6           0       -4.112449   -2.653819   -0.108612
     19          6           0       -3.549992   -1.320927   -0.188675
     20          6           0       -3.196591   -5.025089    0.443496
     21          6           0       -5.533003   -3.154385   -0.225880
     22          8           0       -5.842753   -4.308449   -0.207284
     23          6           0       -6.639233   -2.028169   -0.528501
     24          7           0       -2.233137    1.540000   -0.236786
     25          6           0       -3.566928    1.237555   -0.196926
     26          6           0       -4.335475    2.583785    0.126039
     27          6           0       -3.323453    3.734124   -0.005689
     28          6           0       -1.986118    2.917106   -0.174841
     29          6           0       -5.634557    2.762315   -0.607105
     30          6           0       -3.273216    4.518414    1.299614
     31          6           0       -2.777113    5.938450    1.233590
     32          7           0        0.720815    1.612062   -0.358146
     33          6           0        0.579703    2.978267   -0.305385
     34          6           0        1.851625    3.600372   -0.232543
     35          6           0        2.800968    2.562327   -0.079479
     36          6           0        2.011255    1.378450   -0.045362
     37          6           0        2.143597    5.044909   -0.149976
     38          6           0        4.198753    2.154068    0.115285
     39          8           0        5.215199    2.861345    0.126155
     40          6           0        4.219323    0.589791    0.313432
     41          6           0        4.845971   -0.021991   -0.827928
     42          8           0        4.245702   -0.114543   -1.924780
     43          8           0        6.095960   -0.367656   -0.462030
     44          6           0        6.906757   -1.198640   -1.393744
     45          1           0       -0.554223   -4.272037    0.414725
     46          1           0       -5.227247   -0.103814   -0.234773
     47          1           0       -0.631243    4.670819   -0.337199
     48          1           0        3.759192   -2.576110   -0.201437
     49          1           0        1.687105   -3.938546    1.437817
     50          1           0        1.498489   -5.171213   -0.702052
     51          1           0        3.195513   -5.132867   -0.225536
     52          1           0        2.641518   -4.077643   -1.485836
     53          1           0        3.498758   -3.367590    2.387458
     54          1           0        3.418081   -1.588528    2.596645
     55          1           0        5.665432   -1.507714    2.297341
     56          1           0        5.614703   -2.564776    0.876988
     57          1           0       -3.912162   -5.106006    1.261988
     58          1           0       -2.253665   -5.483563    0.741076
     59          1           0       -3.464749   -5.636796   -0.417863
     60          1           0       -7.569435   -2.570163   -0.696356
     61          1           0       -6.237657   -1.523598   -1.407598
     62          1           0       -6.601780   -1.428687    0.381020
     63          1           0       -4.604823    2.467177    1.176371
     64          1           0       -3.485322    4.441743   -0.818757
     65          1           0       -5.805554    3.829759   -0.743787
     66          1           0       -6.397111    2.304979    0.023649
     67          1           0       -5.707865    2.201634   -1.538235
     68          1           0       -2.696707    4.017629    2.077942
     69          1           0       -4.243686    4.555489    1.794461
     70          1           0       -2.690762    6.311114    0.213083
     71          1           0       -1.793073    5.967942    1.701895
     72          1           0       -3.359772    6.581747    1.892896
     73          1           0        1.374394    5.640535   -0.642584
     74          1           0        3.104336    5.175777   -0.648518
     75          1           0        2.141157    5.279175    0.914796
     76          1           0        4.620584    0.255684    1.270242
     77          1           0        7.901582   -0.805249   -1.179746
     78          1           0        6.608833   -1.113506   -2.438363
     79          1           0        6.995407   -2.225967   -1.038809
 ---------------------------------------------------------------------

 SCF Done:  E(RPBE1PBE) =  -2033.68745771     A.U. after   15 cycles

 Excitation energies and oscillator strengths:

 Excited State   1:      Singlet-A      1.8689 eV  663.42 nm  f=0.3694  <S**2>=0.000
     155 ->158         0.16693
     156 ->157         0.69418
     156 <-157        -0.10955
 This state for optimization and/or second-order correction.
 Total Energy, E(TD-HF/TD-DFT) =  -2033.61877786
 Copying the excited state density for this state as the 1-particle RhoCI density.

 Excited State   2:      Singlet-A      2.2657 eV  547.23 nm  f=0.1128  <S**2>=0.000
     155 ->157         0.64679
     156 ->158        -0.26719

 Excited State   3:      Singlet-A      2.8943 eV  428.37 nm  f=0.0075  <S**2>=0.000
     152 ->157        -0.13114
     154 ->157         0.67885

 Excited State   4:      Singlet-A      3.0556 eV  405.76 nm  f=0.0002  <S**2>=0.000
     152 ->157         0.14216
     153 ->157         0.66597
     153 ->160         0.10943

 Excited State   5:      Singlet-A      3.0810 eV  402.41 nm  f=0.0001  <S**2>=0.000
     152 ->157         0.64664
     152 ->159        -0.15690
     153 ->157        -0.14078
     154 ->157         0.14139

 The electronic state is 1-A.
 Alpha  occ. eigenvalues --  -46.91947 -19.27168 -19.19941 -19.19734 -19.19149
 Alpha  occ. eigenvalues --  -14.41975 -14.41781 -14.39101 -14.38252 -10.36517
 Alpha  occ. eigenvalues --  -10.32709 -10.32513 -10.30075 -10.29487 -10.29252
 Alpha  occ. eigenvalues --  -10.28507 -10.28450 -10.27980 -10.27044 -10.26689
 Alpha  occ. eigenvalues --  -10.26527 -10.26182 -10.25936 -10.25871 -10.25671
 Alpha  occ. eigenvalues --  -10.25652 -10.25634 -10.25400 -10.25079 -10.25045
 Alpha  occ. eigenvalues --  -10.25038 -10.24735 -10.24550 -10.24353 -10.23850
 Alpha  occ. eigenvalues --  -10.23595 -10.23562 -10.23448 -10.23443 -10.23272
 Alpha  occ. eigenvalues --  -10.23041 -10.22840 -10.22656  -3.14119  -1.86935
 Alpha  occ. eigenvalues --   -1.86473  -1.86369  -1.11429  -1.06611  -1.03555
 Alpha  occ. eigenvalues --   -1.02206  -0.98685  -0.97877  -0.97489  -0.96385
 Alpha  occ. eigenvalues --   -0.86637  -0.83977  -0.83574  -0.82981  -0.81651
 Alpha  occ. eigenvalues --   -0.81031  -0.80838  -0.79057  -0.78581  -0.77539
 Alpha  occ. eigenvalues --   -0.76165  -0.75506  -0.74521  -0.72097  -0.71659
 Alpha  occ. eigenvalues --   -0.70916  -0.70576  -0.69446  -0.67269  -0.66177
 Alpha  occ. eigenvalues --   -0.63552  -0.63036  -0.62230  -0.61629  -0.60080
 Alpha  occ. eigenvalues --   -0.60007  -0.59524  -0.59159  -0.56857  -0.54655
 Alpha  occ. eigenvalues --   -0.54232  -0.53914  -0.53036  -0.52832  -0.51832
 Alpha  occ. eigenvalues --   -0.50945  -0.50570  -0.49585  -0.49290  -0.48899
 Alpha  occ. eigenvalues --   -0.48442  -0.47762  -0.47450  -0.46941  -0.46751
 Alpha  occ. eigenvalues --   -0.46257  -0.46113  -0.45849  -0.45188  -0.45050
 Alpha  occ. eigenvalues --   -0.44822  -0.44495  -0.44360  -0.43762  -0.43577
 Alpha  occ. eigenvalues --   -0.43074  -0.42950  -0.42700  -0.42214  -0.42006
 Alpha  occ. eigenvalues --   -0.41670  -0.41126  -0.41011  -0.40786  -0.40320
 Alpha  occ. eigenvalues --   -0.40050  -0.39912  -0.39573  -0.39506  -0.39107
 Alpha  occ. eigenvalues --   -0.38889  -0.38395  -0.38321  -0.38126  -0.37905
 Alpha  occ. eigenvalues --   -0.37670  -0.37379  -0.37168  -0.36820  -0.36595
 Alpha  occ. eigenvalues --   -0.36530  -0.35536  -0.35199  -0.35099  -0.34084
 Alpha  occ. eigenvalues --   -0.33392  -0.33175  -0.32625  -0.32210  -0.31774
 Alpha  occ. eigenvalues --   -0.31069  -0.29424  -0.29114  -0.28589  -0.27394
 Alpha  occ. eigenvalues --   -0.26156  -0.25781  -0.25522  -0.24755  -0.21175
 Alpha  occ. eigenvalues --   -0.18879
 Alpha virt. eigenvalues --   -0.11240  -0.05254  -0.03720  -0.01685  -0.00523
 Alpha virt. eigenvalues --    0.00001   0.00556   0.01384   0.03480   0.04254
 Alpha virt. eigenvalues --    0.05121   0.05774   0.06068   0.06400   0.06957

 Mulliken charges:
               1
     1  Mg   0.982742
     2  C   -0.063450
     3  C   -0.122690
     4  C   -0.103004
     5  C   -0.057890
     6  N   -0.425380
     7  C    0.062392
     8  C   -0.075954
     9  C   -0.155491
    10  C    0.148508
    11  C    0.004092
    12  C    0.001256
    13  C   -0.160651
    14  H    0.040796
    15  N   -0.535624
    16  C    0.216901
    17  C   -0.179903
    18  C   -0.058651
    19  C    0.159237
    20  C    0.093639
    21  C    0.010514
    22  O   -0.205420
    23  C   -0.049762
    24  N   -0.436059
    25  C    0.137551
    26  C   -0.109830
    27  C   -0.118417
    28  C    0.139067
    29  C    0.019596
    30  C   -0.058752
    31  C   -0.039537
    32  N   -0.422865
    33  C    0.110693
    34  C   -0.230144
    35  C    0.005467
    36  C    0.146458
    37  C    0.069079
    38  C    0.141431
    39  O   -0.234985
    40  C   -0.116368
    41  C    0.318499
    42  O   -0.286435
    43  O   -0.353017
    44  C    0.110205
    45  H   -0.006907
    46  H   -0.026352
    47  H   -0.001985
    48  H    0.049530
    49  H    0.057354
    50  H    0.035883
    51  H    0.048037
    52  H    0.048805
    53  H    0.051493
    54  H    0.056101
    55  H    0.075093
    56  H    0.050976
    57  H    0.065652
    58  H    0.013774
    59  H    0.064199
    60  H    0.057501
    61  H    0.072319
    62  H    0.073391
    63  H    0.062666
    64  H    0.052448
    65  H    0.047002
    66  H    0.039438
    67  H    0.046819
    68  H    0.040315
    69  H    0.034200
    70  H    0.042919
    71  H    0.037390
    72  H    0.038703
    73  H    0.037122
    74  H    0.072877
    75  H    0.067422
    76  H    0.066554
    77  H    0.065100
    78  H    0.087338
    79  H    0.058981
 Sum of Mulliken charges =  -0.00000

 Dipole moment (field-independent basis, Debye):
    X=             -0.9913    Y=             -0.0027    Z=              0.8927  Tot=              1.3340
 Quadrupole moment (field-independent basis, Debye-Ang):
   XX=           -260.8046   YY=           -248.1859   ZZ=           -256.2262
   XY=            -52.7365   XZ=             -2.5812   YZ=              1.3003

 Normal termination of Gaussian 16 at Wed Oct 13 14:09:22 2021.
