 Gaussian 16, Revision A.03,
 Gaussian 16:  ES64L-G16RevA.03 25-Dec-2016

 --------------------------------------------------------
 #p PBE1PBE/Def2SVP td=(nstates=5) density=(transition=1)
 --------------------------------------------------------

 --------------------------------
 TDDFT excited states in gaussian
 --------------------------------
 Symbolic Z-matrix:
 Charge =  0 Multiplicity = 1

                         Standard orientation:
 ---------------------------------------------------------------------
 Center     Atomic      Atomic             Coordinates (Angstroms)
 Number     Number       Type             X           Y           Z
 ---------------------------------------------------------------------
      1         12           0      -29.685542    0.107617    0.379242
      2          6           0      -26.952681   -1.454206   -0.865305
      3          6           0      -31.079109    0.203492   -2.800934
      4          6           0      -32.416105    1.675316    1.623355
      5          6           0      -28.098497    0.451812    3.436343
      6          7           0      -29.093353   -0.648019   -1.494759
      7          6           0      -27.917167   -1.236268   -1.829328
      8          6           0      -27.926735   -1.785045   -3.232237
      9          6           0      -29.121047   -1.013017   -3.911281
     10          6           0      -29.837828   -0.465741   -2.633599
     11          6           0      -28.840148    0.065395   -5.039503
     12          6           0      -28.209320   -3.354606   -3.251685
     13          6           0      -27.654928   -4.044541   -4.532886
     14          1           0      -27.492825   -3.283870   -5.859629
     15          7           0      -31.503036    0.934007   -0.458716
     16          6           0      -31.862612    0.833985   -1.828349
     17          6           0      -33.148612    1.431195   -2.027949
     18          6           0      -33.570217    1.896390   -0.731494
     19          6           0      -32.463805    1.477694    0.201486
     20          6           0      -33.886564    1.444018   -3.320618
     21          6           0      -34.852734    2.618676   -0.334211
     22          8           0      -35.104795    3.100852    0.808922
     23          6           0      -35.945269    2.820442   -1.370483
     24          7           0      -30.167178    1.003050    2.224594
     25          6           0      -31.448738    1.432392    2.573083
     26          6           0      -31.675848    1.622783    4.100644
     27          6           0      -30.209785    1.147442    4.632140
     28          6           0      -29.442816    0.820035    3.403620
     29          6           0      -32.005889    3.095019    4.378198
     30          6           0      -30.248164    0.048231    5.652526
     31          6           0      -29.544290    0.394692    6.933340
     32          7           0      -27.931862   -0.241530    1.174910
     33          6           0      -27.378558   -0.095937    2.440978
     34          6           0      -26.052152   -0.591335    2.454189
     35          6           0      -25.777959   -1.113622    1.161640
     36          6           0      -26.981056   -0.981430    0.436643
     37          6           0      -25.084876   -0.640596    3.573952
     38          6           0      -24.749604   -1.654700    0.300156
     39          8           0      -23.565562   -1.900478    0.423026
     40          6           0      -25.556086   -1.955999   -1.050894
     41          6           0      -24.765266   -1.630812   -2.266645
     42          8           0      -24.091204   -0.648651   -2.445013
     43          8           0      -24.823118   -2.584812   -3.208848
     44          6           0      -24.050243   -2.276970   -4.445744
     45          1           0      -31.342533    0.335764   -3.852514
     46          1           0      -33.240059    2.295993    1.981327
     47          1           0      -27.571246    0.418236    4.391950
     48          1           0      -27.051679   -1.478701   -3.805168
     49          1           0      -29.812837   -1.748461   -4.320694
     50          1           0      -27.772490    0.033672   -5.257074
     51          1           0      -29.130272    1.095369   -4.838078
     52          1           0      -29.447039   -0.221817   -5.898371
     53          1           0      -29.292201   -3.431513   -3.152372
     54          1           0      -27.726017   -3.778869   -2.371531
     55          1           0      -28.350430   -4.873476   -4.665477
     56          1           0      -26.722068   -4.524123   -4.237632
     57          1           0      -34.436169    0.534286   -3.562529
     58          1           0      -33.136510    1.675174   -4.075943
     59          1           0      -34.521306    2.321065   -3.443541
     60          1           0      -35.662668    3.711763   -1.930442
     61          1           0      -36.844084    3.027998   -0.790356
     62          1           0      -36.059668    1.987240   -2.064098
     63          1           0      -32.552035    1.024095    4.349869
     64          1           0      -29.729579    1.996294    5.120088
     65          1           0      -31.890736    3.776331    3.534936
     66          1           0      -31.478254    3.410468    5.277994
     67          1           0      -33.076834    3.123546    4.581176
     68          1           0      -29.745016   -0.861367    5.324276
     69          1           0      -31.249332   -0.289869    5.920128
     70          1           0      -30.138167    0.177198    7.820634
     71          1           0      -29.294306    1.454488    6.974991
     72          1           0      -28.590486   -0.128739    6.860927
     73          1           0      -25.164672    0.158476    4.311585
     74          1           0      -24.146967   -0.345911    3.102339
     75          1           0      -25.111987   -1.622274    4.047017
     76          1           0      -25.565959   -3.041701   -0.950398
     77          1           0      -22.979316   -2.434683   -4.310236
     78          1           0      -24.319922   -1.307245   -4.864417
     79          1           0      -24.352723   -2.984555   -5.218099
     80         12           0       29.767772    0.124823   -0.564387
     81          6           0       26.852484   -1.184390    0.795795
     82          6           0       28.148021    3.265979   -0.825358
     83          6           0       32.736249    1.645770   -0.761926
     84          6           0       31.400173   -2.848857    0.395384
     85          7           0       27.767749    1.038124    0.282891
     86          6           0       26.707191    0.204458    0.544717
     87          6           0       25.432736    0.971928    0.706980
     88          6           0       25.780231    2.332473   -0.054955
     89          6           0       27.341244    2.266888   -0.205687
     90          6           0       25.041831    2.557024   -1.469529
     91          6           0       25.010625    1.052175    2.263522
     92          6           0       23.595794    1.222389    2.499094
     93          1           0       23.257297    2.449817    3.371417
     94          7           0       30.376123    2.115555   -0.942270
     95          6           0       29.550895    3.271995   -1.023915
     96          6           0       30.410157    4.400657   -1.339319
     97          6           0       31.757421    3.964641   -1.351755
     98          6           0       31.666661    2.488290   -1.093171
     99          6           0       29.886693    5.785231   -1.434457
    100          6           0       33.005395    4.922984   -1.550437
    101          8           0       32.767263    6.117441   -1.722350
    102          6           0       34.401885    4.382992   -1.839054
    103          7           0       31.731551   -0.524091   -0.124947
    104          6           0       32.772476    0.294590   -0.421759
    105          6           0       34.236591   -0.366924   -0.034207
    106          6           0       33.802819   -1.901697    0.132848
    107          6           0       32.243572   -1.819695    0.118837
    108          6           0       35.365400   -0.223534   -1.124094
    109          6           0       34.319186   -2.535069    1.426151
    110          6           0       35.224606   -3.789522    1.388814
    111          7           0       29.201895   -1.738560    0.122216
    112          6           0       29.960090   -2.832929    0.422034
    113          6           0       29.092402   -3.930060    0.751070
    114          6           0       27.827983   -3.261652    0.961678
    115          6           0       27.997138   -1.915469    0.595462
    116          6           0       29.513131   -5.328106    1.101365
    117          6           0       26.484734   -3.461530    1.464227
    118          8           0       25.905325   -4.471945    1.724487
    119          6           0       25.705695   -2.094825    1.335802
    120          6           0       24.537869   -2.109514    0.324961
    121          8           0       24.618674   -2.512921   -0.815345
    122          8           0       23.355541   -1.680613    0.962694
    123          6           0       22.140157   -1.799186    0.215199
    124          1           0       27.574058    4.185978   -0.948078
    125          1           0       33.702524    2.120833   -0.580982
    126          1           0       31.945647   -3.756384    0.660546
    127          1           0       24.636667    0.596254    0.063306
    128          1           0       25.522713    3.161946    0.604636
    129          1           0       24.468090    3.475621   -1.347302
    130          1           0       24.398695    1.723273   -1.749492
    131          1           0       25.833084    2.708573   -2.204301
    132          1           0       25.535799    1.938646    2.618743
    133          1           0       25.498682    0.159456    2.655547
    134          1           0       23.262143    0.311185    2.994118
    135          1           0       23.075777    1.380548    1.554322
    136          1           0       28.798648    5.800625   -1.495344
    137          1           0       30.211100    6.241739   -2.369917
    138          1           0       30.169069    6.376282   -0.562922
    139          1           0       34.840257    3.830810   -1.007177
    140          1           0       35.029979    5.232343   -2.109756
    141          1           0       34.325684    3.747588   -2.721486
    142          1           0       34.457665    0.074740    0.937086
    143          1           0       34.013353   -2.535093   -0.729162
    144          1           0       36.154187    0.429682   -0.752100
    145          1           0       34.942543    0.214747   -2.028881
    146          1           0       35.748644   -1.227740   -1.308350
    147          1           0       33.511240   -2.718141    2.134172
    148          1           0       34.870392   -1.856489    2.076953
    149          1           0       34.800828   -4.727540    1.748504
    150          1           0       36.041626   -3.563598    2.074466
    151          1           0       35.591183   -3.982894    0.379965
    152          1           0       28.632675   -5.961564    0.990726
    153          1           0       29.642789   -5.518710    2.166245
    154          1           0       30.403587   -5.685291    0.584730
    155          1           0       25.294335   -1.957061    2.336147
    156          1           0       21.555491   -1.000917    0.673551
    157          1           0       21.591813   -2.706613    0.467566
    158          1           0       22.334183   -1.743088   -0.855178
 ---------------------------------------------------------------------

 SCF Done:  E(RPBE1PBE) =  -4067.34963702     A.U. after   16 cycles

 Excitation energies and oscillator strengths:

 Excited State   1:      Singlet-A      1.8022 eV  687.95 nm  f=0.3706  <S**2>=0.000
     310 -> 316       -0.16351
     312 -> 313        0.69742
     312 <- 313       -0.11962
 This state for optimization and/or second-order correction.
 Total Energy, E(TD-HF/TD-DFT) =  -4067.28340599
 Copying the excited state density for this state as the 1-particle RhoCI density.

 Excited State   2:      Singlet-A      1.8323 eV  676.66 nm  f=0.3814  <S**2>=0.000
     309 -> 315       -0.16910
     311 -> 314        0.69536
     311 <- 314       -0.11107

 Excited State   3:      Singlet-A      1.9495 eV  635.96 nm  f=0.0000  <S**2>=0.000
     311 -> 313        0.70711

 Excited State   4:      Singlet-A      1.9626 eV  631.72 nm  f=0.0000  <S**2>=0.000
     312 -> 314        0.70711

 Excited State   5:      Singlet-A      2.2176 eV  559.08 nm  f=0.1185  <S**2>=0.000
     310 -> 313        0.65155
     312 -> 316        0.25911

 The electronic state is 1-A.
 Alpha  occ. eigenvalues --  -46.93178 -46.90562 -19.25808 -19.25774 -19.20957
 Alpha  occ. eigenvalues --  -19.19728 -19.19431 -19.18974 -19.18721 -19.18620
 Alpha  occ. eigenvalues --  -14.42286 -14.41696 -14.41641 -14.41297 -14.39734
 Alpha  occ. eigenvalues --  -14.39131 -14.38821 -14.38492 -10.37135 -10.35576
 Alpha  occ. eigenvalues --  -10.33389 -10.32335 -10.32263 -10.31293 -10.29384
 Alpha  occ. eigenvalues --  -10.29273 -10.29174 -10.29114 -10.28688 -10.28667
 Alpha  occ. eigenvalues --  -10.28532 -10.28454 -10.28452 -10.28406 -10.28395
 Alpha  occ. eigenvalues --  -10.28242 -10.27728 -10.27650 -10.27556 -10.27088
 Alpha  occ. eigenvalues --  -10.26867 -10.26675 -10.26545 -10.26514 -10.26323
 Alpha  occ. eigenvalues --  -10.26242 -10.26227 -10.26081 -10.26023 -10.26003
 Alpha  occ. eigenvalues --  -10.25958 -10.25864 -10.25855 -10.25673 -10.25622
 Alpha  occ. eigenvalues --  -10.25584 -10.25485 -10.25480 -10.25477 -10.25460
 Alpha  occ. eigenvalues --  -10.25361 -10.25354 -10.25330 -10.25215 -10.25069
 Alpha  occ. eigenvalues --  -10.24566 -10.24303 -10.24290 -10.24221 -10.24199
 Alpha  occ. eigenvalues --  -10.24125 -10.24119 -10.24113 -10.23897 -10.23646
 Alpha  occ. eigenvalues --  -10.23335 -10.23327 -10.23268 -10.23224 -10.23101
 Alpha  occ. eigenvalues --  -10.23002 -10.22992 -10.22982 -10.22690 -10.22606
 Alpha  occ. eigenvalues --  -10.22561  -3.15178  -3.12991  -1.87965  -1.87606
 Alpha  occ. eigenvalues --   -1.87366  -1.85825  -1.85346  -1.85262  -1.12076
 Alpha  occ. eigenvalues --   -1.10849  -1.05706  -1.04871  -1.04853  -1.03581
 Alpha  occ. eigenvalues --   -1.02084  -1.02074  -0.99805  -0.99096  -0.98232
 Alpha  occ. eigenvalues --   -0.97388  -0.97346  -0.96931  -0.96166  -0.96043
 Alpha  occ. eigenvalues --   -0.87728  -0.86678  -0.84016  -0.83513  -0.83096
 Alpha  occ. eigenvalues --   -0.82830  -0.82595  -0.82414  -0.82020  -0.81525
 Alpha  occ. eigenvalues --   -0.81171  -0.80794  -0.80710  -0.80072  -0.78655
 Alpha  occ. eigenvalues --   -0.78299  -0.78076  -0.77663  -0.76897  -0.76753
 Alpha  occ. eigenvalues --   -0.76355  -0.75881  -0.75475  -0.75386  -0.74751
 Alpha  occ. eigenvalues --   -0.74617  -0.72601  -0.72212  -0.72105  -0.71640
 Alpha  occ. eigenvalues --   -0.71569  -0.71011  -0.70836  -0.70478  -0.69587
 Alpha  occ. eigenvalues --   -0.69262  -0.67336  -0.67140  -0.66290  -0.65771
 Alpha  occ. eigenvalues --   -0.63605  -0.63500  -0.63049  -0.62923  -0.62573
 Alpha  occ. eigenvalues --   -0.61848  -0.61105  -0.60826  -0.60305  -0.60271
 Alpha  occ. eigenvalues --   -0.59787  -0.59331  -0.59316  -0.58867  -0.58690
 Alpha  occ. eigenvalues --   -0.58673  -0.57412  -0.56895  -0.54874  -0.54440
 Alpha  occ. eigenvalues --   -0.54217  -0.54065  -0.53541  -0.53538  -0.53055
 Alpha  occ. eigenvalues --   -0.52996  -0.52618  -0.52533  -0.52308  -0.52030
 Alpha  occ. eigenvalues --   -0.50832  -0.50679  -0.49947  -0.49865  -0.49738
 Alpha  occ. eigenvalues --   -0.49576  -0.49557  -0.49250  -0.48601  -0.48514
 Alpha  occ. eigenvalues --   -0.47957  -0.47847  -0.47605  -0.47472  -0.47331
 Alpha  occ. eigenvalues --   -0.47125  -0.47089  -0.46942  -0.46892  -0.46668
 Alpha  occ. eigenvalues --   -0.46600  -0.46580  -0.46294  -0.46180  -0.45888
 Alpha  occ. eigenvalues --   -0.45737  -0.45647  -0.45460  -0.44978  -0.44764
 Alpha  occ. eigenvalues --   -0.44645  -0.44481  -0.44421  -0.44269  -0.44234
 Alpha  occ. eigenvalues --   -0.44170  -0.43888  -0.43824  -0.43581  -0.43462
 Alpha  occ. eigenvalues --   -0.43409  -0.43119  -0.43073  -0.42846  -0.42687
 Alpha  occ. eigenvalues --   -0.42680  -0.42521  -0.42371  -0.42048  -0.41997
 Alpha  occ. eigenvalues --   -0.41827  -0.41667  -0.41557  -0.41393  -0.41331
 Alpha  occ. eigenvalues --   -0.41131  -0.41045  -0.40861  -0.40674  -0.40609
 Alpha  occ. eigenvalues --   -0.40391  -0.39978  -0.39953  -0.39735  -0.39732
 Alpha  occ. eigenvalues --   -0.39554  -0.39549  -0.39356  -0.39330  -0.38858
 Alpha  occ. eigenvalues --   -0.38825  -0.38701  -0.38664  -0.38440  -0.38393
 Alpha  occ. eigenvalues --   -0.38217  -0.38112  -0.37990  -0.37911  -0.37554
 Alpha  occ. eigenvalues --   -0.37456  -0.37305  -0.37235  -0.37140  -0.37041
 Alpha  occ. eigenvalues --   -0.36798  -0.36775  -0.36371  -0.36268  -0.35954
 Alpha  occ. eigenvalues --   -0.35910  -0.35873  -0.35735  -0.35333  -0.35331
 Alpha  occ. eigenvalues --   -0.35285  -0.35262  -0.34960  -0.34771  -0.33602
 Alpha  occ. eigenvalues --   -0.33234  -0.33140  -0.32982  -0.32742  -0.32648
 Alpha  occ. eigenvalues --   -0.32235  -0.32070  -0.32045  -0.31628  -0.31593
 Alpha  occ. eigenvalues --   -0.31243  -0.30679  -0.29824  -0.29766  -0.29401
 Alpha  occ. eigenvalues --   -0.29395  -0.28871  -0.28420  -0.26997  -0.26884
 Alpha  occ. eigenvalues --   -0.26184  -0.25938  -0.25582  -0.25519  -0.25432
 Alpha  occ. eigenvalues --   -0.25192  -0.25090  -0.24957  -0.21194  -0.21194
 Alpha  occ. eigenvalues --   -0.18789  -0.18700
 Alpha virt. eigenvalues --   -0.11400  -0.11264  -0.05147  -0.05130  -0.04085
 Alpha virt. eigenvalues --   -0.03760  -0.02310  -0.02132  -0.01439  -0.00114
 Alpha virt. eigenvalues --    0.00116   0.00392   0.00845   0.01198   0.01252

 Mulliken charges:
               1
     1  Mg  12.004251
     2  C    5.978545
     3  C    5.999522
     4  C    6.030854
     5  C    6.015483
     6  N    6.985636
     7  C    6.031706
     8  C    5.988178
     9  C    6.009561
    10  C    5.968566
    11  C    6.004444
    12  C    5.997428
    13  C    5.999933
    14  H    1.005867
    15  N    7.003520
    16  C    5.961987
    17  C    5.986273
    18  C    5.978845
    19  C    5.970012
    20  C    6.003560
    21  C    5.986475
    22  O    7.962597
    23  C    6.004859
    24  N    7.019718
    25  C    5.967187
    26  C    6.009367
    27  C    5.988557
    28  C    6.018056
    29  C    5.999823
    30  C    5.993729
    31  C    5.999744
    32  N    6.997305
    33  C    6.019432
    34  C    6.034867
    35  C    6.000716
    36  C    6.029281
    37  C    5.997068
    38  C    6.013784
    39  O    8.023474
    40  C    6.003507
    41  C    6.003274
    42  O    8.002102
    43  O    8.001978
    44  C    5.998590
    45  H    0.985267
    46  H    1.001386
    47  H    1.014916
    48  H    0.999185
    49  H    0.996505
    50  H    0.985136
    51  H    1.000535
    52  H    0.996770
    53  H    1.011076
    54  H    0.992810
    55  H    1.002260
    56  H    0.995675
    57  H    0.981812
    58  H    0.987201
    59  H    0.986262
    60  H    0.989901
    61  H    0.985672
    62  H    0.993042
    63  H    1.003691
    64  H    1.004135
    65  H    1.004916
    66  H    0.992576
    67  H    1.005122
    68  H    0.998224
    69  H    1.012418
    70  H    1.007106
    71  H    1.003889
    72  H    0.995988
    73  H    1.016611
    74  H    1.015387
    75  H    1.021218
    76  H    1.003552
    77  H    1.000417
    78  H    1.004964
    79  H    1.004711
    80  Mg  11.999998
    81  C    6.000059
    82  C    5.999883
    83  C    5.999969
    84  C    6.000117
    85  N    6.999935
    86  C    5.999843
    87  C    6.000073
    88  C    5.999953
    89  C    6.000195
    90  C    5.999995
    91  C    5.999990
    92  C    6.000040
    93  H    0.999906
    94  N    6.999999
    95  C    6.000253
    96  C    6.000085
    97  C    6.000116
    98  C    6.000145
    99  C    5.999932
   100  C    6.000095
   101  O    8.000126
   102  C    5.999966
   103  N    7.000099
   104  C    6.000141
   105  C    5.999945
   106  C    6.000031
   107  C    5.999839
   108  C    5.999994
   109  C    6.000008
   110  C    5.999999
   111  N    6.999967
   112  C    5.999789
   113  C    5.999871
   114  C    5.999948
   115  C    5.999838
   116  C    6.000059
   117  C    5.999886
   118  O    7.999804
   119  C    6.000020
   120  C    5.999959
   121  O    7.999972
   122  O    7.999980
   123  C    6.000032
   124  H    1.000039
   125  H    1.000063
   126  H    0.999977
   127  H    0.999965
   128  H    1.000003
   129  H    0.999998
   130  H    1.000048
   131  H    0.999987
   132  H    0.999947
   133  H    1.000056
   134  H    0.999996
   135  H    0.999967
   136  H    1.000086
   137  H    1.000098
   138  H    1.000102
   139  H    1.000069
   140  H    1.000094
   141  H    1.000052
   142  H    1.000024
   143  H    1.000010
   144  H    1.000016
   145  H    0.999984
   146  H    1.000069
   147  H    1.000019
   148  H    0.999969
   149  H    1.000015
   150  H    0.999997
   151  H    0.999998
   152  H    0.999920
   153  H    0.999879
   154  H    0.999922
   155  H    0.999920
   156  H    0.999938
   157  H    0.999947
   158  H    0.999974
 Sum of Mulliken charges = 624.00000

 Dipole moment (field-independent basis, Debye):
    X=              8.5780    Y=             -2.6051    Z=              5.2992  Tot=             10.4139
 Quadrupole moment (field-independent basis, Debye-Ang):
   XX=           -507.2192   YY=             -2.7399   ZZ=              5.8212
   XY=             85.5306   XZ=           -157.3121   YZ=              2.2334

 Normal termination of Gaussian 16 at Fri Oct 15 01:38:43 2021.
