 Gaussian 16, Revision A.03,
 Gaussian 16:  ES64L-G16RevA.03 25-Dec-2016

 --------------------------------------------------------
 #p PBE1PBE/Def2SVP td=(nstates=5) density=(transition=1)
 --------------------------------------------------------

 --------------------------------
 TDDFT excited states in gaussian
 --------------------------------
 Symbolic Z-matrix:
 Charge =  0 Multiplicity = 1

                         Standard orientation:
 ---------------------------------------------------------------------
 Center     Atomic      Atomic             Coordinates (Angstroms)
 Number     Number       Type             X           Y           Z
 ---------------------------------------------------------------------
      1         12           0      -13.086867   -0.412051    0.402878
      2          6           0      -13.299308    2.666164   -1.211740
      3          6           0      -11.915461    1.174834    3.221468
      4          6           0      -12.678612   -3.491028    1.727861
      5          6           0      -13.926720   -1.972215   -2.700386
      6          7           0      -12.570778    1.650838    0.860738
      7          6           0      -12.757391    2.751621    0.082999
      8          6           0      -12.440833    4.040936    0.851858
      9          6           0      -11.863672    3.462091    2.218664
     10          6           0      -12.159026    1.964921    2.080354
     11          6           0      -10.370877    3.728985    2.369313
     12          6           0      -13.672412    4.946627    1.210444
     13          6           0      -13.423374    6.424591    1.363818
     14          1           0      -12.053288    6.915109    1.515432
     15          7           0      -12.489511   -1.040903    2.221401
     16          6           0      -12.028980   -0.209923    3.262248
     17          6           0      -11.873132   -1.058276    4.414658
     18          6           0      -12.131096   -2.404426    4.051867
     19          6           0      -12.451698   -2.366174    2.603750
     20          6           0      -11.281197   -0.577913    5.722427
     21          6           0      -12.149897   -3.639387    4.851243
     22          8           0      -12.194559   -4.748324    4.362745
     23          6           0      -11.945338   -3.582179    6.408610
     24          7           0      -13.435317   -2.509804   -0.307575
     25          6           0      -13.166313   -3.549967    0.423455
     26          6           0      -13.403444   -4.875078   -0.361651
     27          6           0      -13.868302   -4.424759   -1.734636
     28          6           0      -13.703439   -2.864529   -1.651403
     29          6           0      -12.102328   -5.805539   -0.294143
     30          6           0      -15.290302   -4.912670   -2.083559
     31          6           0      -15.409966   -6.228704   -2.939495
     32          7           0      -13.759053    0.141028   -1.425807
     33          6           0      -14.062433   -0.590775   -2.600716
     34          6           0      -14.452537    0.268234   -3.652969
     35          6           0      -14.072024    1.579723   -3.137815
     36          6           0      -13.699518    1.393232   -1.775867
     37          6           0      -14.753517   -0.149610   -5.080710
     38          6           0      -13.977773    2.928260   -3.560620
     39          8           0      -14.261246    3.481680   -4.615626
     40          6           0      -13.516075    3.754915   -2.187873
     41          6           0      -12.311827    4.550815   -2.597623
     42          8           0      -11.270408    4.062059   -3.048193
     43          8           0      -12.537850    5.958177   -2.541890
     44          6           0      -11.383204    6.818905   -2.948341
     45          1           0      -11.547213    1.744004    4.078402
     46          1           0      -12.345409   -4.435114    2.163075
     47          1           0      -14.238300   -2.394539   -3.657624
     48          1           0      -11.675906    4.558488    0.272528
     49          1           0      -12.337761    3.897736    3.098087
     50          1           0      -10.030681    4.481283    1.658198
     51          1           0       -9.772855    2.818301    2.326117
     52          1           0      -10.107447    4.248379    3.290718
     53          1           0      -14.113395    4.550548    2.124523
     54          1           0      -14.436798    4.737412    0.461764
     55          1           0      -13.895537    6.728244    2.297881
     56          1           0      -13.856754    6.948043    0.511560
     57          1           0      -10.309656   -1.020423    5.942150
     58          1           0      -12.004310   -0.781147    6.513412
     59          1           0      -11.064815    0.488234    5.788384
     60          1           0      -10.868365   -3.510025    6.562544
     61          1           0      -12.203086   -4.542269    6.855911
     62          1           0      -12.419994   -2.697589    6.831480
     63          1           0      -14.197077   -5.356262    0.210239
     64          1           0      -13.152572   -4.689784   -2.511311
     65          1           0      -11.755278   -6.052811   -1.297299
     66          1           0      -12.291132   -6.787879    0.139276
     67          1           0      -11.361166   -5.196871    0.225476
     68          1           0      -15.756512   -4.100378   -2.642282
     69          1           0      -15.824444   -5.012275   -1.138522
     70          1           0      -15.335212   -5.945763   -3.990068
     71          1           0      -16.261799   -6.889218   -2.776501
     72          1           0      -14.463005   -6.707749   -2.693033
     73          1           0      -15.804723   -0.433419   -5.037870
     74          1           0      -14.157779   -1.012079   -5.377267
     75          1           0      -14.437309    0.539063   -5.865245
     76          1           0      -14.351516    4.370803   -1.852680
     77          1           0      -11.116335    6.665185   -3.993308
     78          1           0      -10.454688    6.743203   -2.381829
     79          1           0      -11.859016    7.794745   -2.851198
     80         12           0       12.670423   -0.854714   -0.237640
     81          6           0       14.899713    1.871762   -0.062247
     82          6           0       10.186540    1.204512    0.946139
     83          6           0       10.503140   -3.419760   -0.300424
     84          6           0       15.338274   -3.025833   -0.879511
     85          7           0       12.617040    1.284680    0.211170
     86          6           0       13.542585    2.239429    0.235908
     87          6           0       13.066999    3.650653    0.639434
     88          6           0       11.630763    3.214517    1.207962
     89          6           0       11.479938    1.770354    0.796503
     90          6           0       11.489104    3.391106    2.700304
     91          6           0       12.962308    4.702414   -0.598469
     92          6           0       13.122406    6.161661   -0.162100
     93          1           0       14.335144    6.885491   -0.801792
     94          7           0       10.550684   -1.071080    0.099736
     95          6           0        9.720869   -0.061514    0.647252
     96          6           0        8.359036   -0.529680    0.520902
     97          6           0        8.413218   -1.866784    0.137741
     98          6           0        9.859167   -2.194664   -0.066026
     99          6           0        7.147407    0.260053    0.978850
    100          6           0        7.322697   -2.877655   -0.133668
    101          8           0        7.609538   -3.966910   -0.536871
    102          6           0        5.872261   -2.541160    0.013119
    103          7           0       12.890910   -2.943961   -0.344937
    104          6           0       11.832267   -3.801079   -0.424603
    105          6           0       12.429057   -5.206169   -0.714983
    106          6           0       13.752053   -4.965161   -1.419627
    107          6           0       14.076114   -3.563018   -0.852398
    108          6           0       12.684762   -5.929734    0.606346
    109          6           0       13.688155   -5.030692   -2.900718
    110          6           0       12.581264   -4.300638   -3.620371
    111          7           0       14.708878   -0.676444   -0.473549
    112          6           0       15.685730   -1.622827   -0.719718
    113          6           0       16.988550   -0.945909   -0.812219
    114          6           0       16.704506    0.412114   -0.586015
    115          6           0       15.354049    0.518008   -0.393582
    116          6           0       18.289887   -1.586416   -1.036312
    117          6           0       17.236148    1.748286   -0.615996
    118          8           0       18.404391    2.169736   -0.862075
    119          6           0       16.026002    2.747807   -0.297317
    120          6           0       16.399483    3.477104    0.967183
    121          8           0       16.810759    2.919439    1.941125
    122          8           0       16.174325    4.880342    0.954797
    123          6           0       16.233380    5.544598    2.292369
    124          1           0        9.397298    1.828072    1.369887
    125          1           0        9.852848   -4.294826   -0.232895
    126          1           0       16.184164   -3.611030   -1.246935
    127          1           0       13.769139    4.092916    1.347290
    128          1           0       10.934647    3.871315    0.684833
    129          1           0       10.976375    4.342005    2.844320
    130          1           0       12.436851    3.294565    3.230403
    131          1           0       10.743365    2.646945    2.979750
    132          1           0       11.988141    4.610992   -1.079825
    133          1           0       13.687379    4.455300   -1.374172
    134          1           0       13.181866    6.056784    0.921408
    135          1           0       12.213481    6.740832   -0.323816
    136          1           0        7.503371    1.288340    1.029654
    137          1           0        7.003258   -0.093220    1.999492
    138          1           0        6.312583    0.184263    0.281828
    139          1           0        5.755046   -1.885437   -0.849832
    140          1           0        5.624055   -1.983728    0.915910
    141          1           0        5.264342   -3.443607   -0.059701
    142          1           0       11.784499   -5.877117   -1.281794
    143          1           0       14.541556   -5.678779   -1.186312
    144          1           0       13.697339   -5.984956    1.006153
    145          1           0       12.316700   -6.949378    0.492989
    146          1           0       12.056854   -5.466622    1.368354
    147          1           0       13.697833   -6.058902   -3.263142
    148          1           0       14.631161   -4.587869   -3.220723
    149          1           0       13.068374   -3.487157   -4.158794
    150          1           0       11.729460   -3.844042   -3.115463
    151          1           0       12.178155   -4.967375   -4.382482
    152          1           0       18.548648   -2.149348   -0.139573
    153          1           0       18.952972   -0.750900   -1.260373
    154          1           0       18.241517   -2.317641   -1.844321
    155          1           0       15.934242    3.358078   -1.195978
    156          1           0       17.269717    5.680385    2.601509
    157          1           0       15.703647    4.992610    3.070104
    158          1           0       15.858034    6.566664    2.334552
 ---------------------------------------------------------------------

 SCF Done:  E(RPBE1PBE) =  -4067.40014671     A.U. after   16 cycles

 Excitation energies and oscillator strengths:

 Excited State   1:      Singlet-A      1.8248 eV  679.44 nm  f=0.3662  <S**2>=0.000
     310 -> 316       -0.17162
     312 -> 314        0.69318
     312 <- 314       -0.10895
 This state for optimization and/or second-order correction.
 Total Energy, E(TD-HF/TD-DFT) =  -4067.33308637
 Copying the excited state density for this state as the 1-particle RhoCI density.

 Excited State   2:      Singlet-A      1.8459 eV  671.68 nm  f=0.3531  <S**2>=0.000
     309 -> 315        0.17432
     311 -> 313        0.69104
     311 <- 313       -0.10431

 Excited State   3:      Singlet-A      1.8552 eV  668.32 nm  f=0.0000  <S**2>=0.000
     312 -> 313        0.70710

 Excited State   4:      Singlet-A      1.9823 eV  625.45 nm  f=0.0000  <S**2>=0.000
     311 -> 314        0.70710

 Excited State   5:      Singlet-A      2.1781 eV  569.24 nm  f=0.1088  <S**2>=0.000
     310 -> 314        0.65713
     312 -> 316        0.25110

 The electronic state is 1-A.
 Alpha  occ. eigenvalues --  -46.92037 -46.91498 -19.25190 -19.25013 -19.20265
 Alpha  occ. eigenvalues --  -19.19876 -19.19267 -19.19046 -19.18973 -19.18738
 Alpha  occ. eigenvalues --  -14.42725 -14.42237 -14.41299 -14.41076 -14.39830
 Alpha  occ. eigenvalues --  -14.39308 -14.39249 -14.38898 -10.36473 -10.36296
 Alpha  occ. eigenvalues --  -10.32384 -10.32124 -10.32066 -10.31907 -10.29352
 Alpha  occ. eigenvalues --  -10.29183 -10.29104 -10.29040 -10.28957 -10.28898
 Alpha  occ. eigenvalues --  -10.28873 -10.28829 -10.28596 -10.28518 -10.28487
 Alpha  occ. eigenvalues --  -10.28414 -10.28274 -10.27956 -10.27504 -10.27207
 Alpha  occ. eigenvalues --  -10.26988 -10.26952 -10.26733 -10.26686 -10.26389
 Alpha  occ. eigenvalues --  -10.26332 -10.26129 -10.26107 -10.26071 -10.25970
 Alpha  occ. eigenvalues --  -10.25951 -10.25890 -10.25839 -10.25726 -10.25592
 Alpha  occ. eigenvalues --  -10.25584 -10.25531 -10.25497 -10.25412 -10.25352
 Alpha  occ. eigenvalues --  -10.25255 -10.25235 -10.24990 -10.24918 -10.24908
 Alpha  occ. eigenvalues --  -10.24885 -10.24701 -10.24600 -10.24587 -10.24531
 Alpha  occ. eigenvalues --  -10.24181 -10.24026 -10.23799 -10.23683 -10.23670
 Alpha  occ. eigenvalues --  -10.23554 -10.23474 -10.23380 -10.23359 -10.23352
 Alpha  occ. eigenvalues --  -10.23076 -10.22867 -10.22821 -10.22584 -10.22418
 Alpha  occ. eigenvalues --  -10.21906  -3.14115  -3.13770  -1.86979  -1.86624
 Alpha  occ. eigenvalues --   -1.86466  -1.86354  -1.86137  -1.86014  -1.10379
 Alpha  occ. eigenvalues --   -1.08374  -1.06637  -1.05658  -1.03839  -1.02251
 Alpha  occ. eigenvalues --   -1.01577  -1.00850  -0.99900  -0.99840  -0.98836
 Alpha  occ. eigenvalues --   -0.98259  -0.97982  -0.97847  -0.96945  -0.96423
 Alpha  occ. eigenvalues --   -0.87426  -0.86716  -0.84269  -0.83728  -0.83667
 Alpha  occ. eigenvalues --   -0.83339  -0.83001  -0.82749  -0.82124  -0.82002
 Alpha  occ. eigenvalues --   -0.81845  -0.81304  -0.80840  -0.80806  -0.78902
 Alpha  occ. eigenvalues --   -0.78654  -0.77908  -0.77474  -0.76833  -0.76570
 Alpha  occ. eigenvalues --   -0.76569  -0.75820  -0.75508  -0.74697  -0.74399
 Alpha  occ. eigenvalues --   -0.74236  -0.72993  -0.72943  -0.71755  -0.71684
 Alpha  occ. eigenvalues --   -0.71511  -0.71289  -0.70590  -0.70317  -0.69509
 Alpha  occ. eigenvalues --   -0.69345  -0.67750  -0.67016  -0.66155  -0.65762
 Alpha  occ. eigenvalues --   -0.64059  -0.63929  -0.63465  -0.63303  -0.62692
 Alpha  occ. eigenvalues --   -0.62314  -0.61765  -0.61409  -0.60294  -0.60212
 Alpha  occ. eigenvalues --   -0.59823  -0.59580  -0.59451  -0.59339  -0.58842
 Alpha  occ. eigenvalues --   -0.57901  -0.56401  -0.56175  -0.54894  -0.54776
 Alpha  occ. eigenvalues --   -0.54467  -0.54371  -0.54041  -0.53766  -0.53624
 Alpha  occ. eigenvalues --   -0.53339  -0.53081  -0.52520  -0.52294  -0.51980
 Alpha  occ. eigenvalues --   -0.50924  -0.50921  -0.50337  -0.49640  -0.49316
 Alpha  occ. eigenvalues --   -0.49253  -0.49074  -0.48723  -0.48662  -0.48506
 Alpha  occ. eigenvalues --   -0.48117  -0.47955  -0.47942  -0.47822  -0.47707
 Alpha  occ. eigenvalues --   -0.47476  -0.47154  -0.47130  -0.46939  -0.46848
 Alpha  occ. eigenvalues --   -0.46758  -0.46528  -0.46319  -0.46052  -0.45954
 Alpha  occ. eigenvalues --   -0.45861  -0.45485  -0.45387  -0.45365  -0.44763
 Alpha  occ. eigenvalues --   -0.44742  -0.44612  -0.44539  -0.44311  -0.44291
 Alpha  occ. eigenvalues --   -0.43979  -0.43970  -0.43938  -0.43853  -0.43746
 Alpha  occ. eigenvalues --   -0.43730  -0.43265  -0.43133  -0.43031  -0.42960
 Alpha  occ. eigenvalues --   -0.42840  -0.42470  -0.42402  -0.42338  -0.42196
 Alpha  occ. eigenvalues --   -0.42002  -0.41935  -0.41883  -0.41760  -0.41667
 Alpha  occ. eigenvalues --   -0.41452  -0.41068  -0.40767  -0.40592  -0.40434
 Alpha  occ. eigenvalues --   -0.40152  -0.40090  -0.40016  -0.39953  -0.39618
 Alpha  occ. eigenvalues --   -0.39607  -0.39383  -0.39132  -0.38999  -0.38928
 Alpha  occ. eigenvalues --   -0.38875  -0.38827  -0.38578  -0.38401  -0.38375
 Alpha  occ. eigenvalues --   -0.38035  -0.38027  -0.37880  -0.37843  -0.37660
 Alpha  occ. eigenvalues --   -0.37654  -0.37330  -0.37292  -0.37131  -0.36957
 Alpha  occ. eigenvalues --   -0.36843  -0.36696  -0.36589  -0.36411  -0.36297
 Alpha  occ. eigenvalues --   -0.35891  -0.35836  -0.35815  -0.35274  -0.35208
 Alpha  occ. eigenvalues --   -0.35204  -0.34827  -0.34714  -0.34518  -0.34458
 Alpha  occ. eigenvalues --   -0.33697  -0.33296  -0.32910  -0.32708  -0.32395
 Alpha  occ. eigenvalues --   -0.32350  -0.32152  -0.32116  -0.31459  -0.31348
 Alpha  occ. eigenvalues --   -0.31226  -0.30896  -0.29819  -0.29819  -0.29544
 Alpha  occ. eigenvalues --   -0.29291  -0.28819  -0.28688  -0.27133  -0.27105
 Alpha  occ. eigenvalues --   -0.26139  -0.25987  -0.25812  -0.25601  -0.25589
 Alpha  occ. eigenvalues --   -0.25304  -0.25264  -0.25190  -0.21213  -0.21036
 Alpha  occ. eigenvalues --   -0.19245  -0.18966
 Alpha virt. eigenvalues --   -0.11642  -0.11442  -0.05340  -0.05256  -0.04084
 Alpha virt. eigenvalues --   -0.03822  -0.02239  -0.02141  -0.00112   0.00031
 Alpha virt. eigenvalues --    0.00728   0.00929   0.01034   0.01212   0.01341

 Mulliken charges:
               1
     1  Mg  11.999919
     2  C    5.998208
     3  C    6.000071
     4  C    6.001165
     5  C    5.999941
     6  N    6.999048
     7  C    6.002122
     8  C    5.999263
     9  C    6.000782
    10  C    5.998365
    11  C    6.000345
    12  C    5.999858
    13  C    5.999983
    14  H    1.000066
    15  N    7.000553
    16  C    5.997754
    17  C    5.998807
    18  C    5.998857
    19  C    5.998312
    20  C    6.000312
    21  C    5.999410
    22  O    7.998161
    23  C    6.000158
    24  N    7.000467
    25  C    5.998308
    26  C    6.000165
    27  C    5.999798
    28  C    6.001370
    29  C    6.000145
    30  C    5.999700
    31  C    6.000114
    32  N    7.000022
    33  C    6.001935
    34  C    6.001673
    35  C    6.000351
    36  C    6.001757
    37  C    5.999979
    38  C    6.000906
    39  O    8.002099
    40  C    6.000542
    41  C    6.000252
    42  O    7.999966
    43  O    8.000268
    44  C    5.999894
    45  H    0.999085
    46  H    0.999788
    47  H    1.000885
    48  H    0.999738
    49  H    0.999971
    50  H    0.998999
    51  H    0.999705
    52  H    0.999750
    53  H    1.000689
    54  H    0.999690
    55  H    1.000362
    56  H    0.999892
    57  H    0.998530
    58  H    0.999193
    59  H    0.998975
    60  H    0.999189
    61  H    0.999301
    62  H    0.999883
    63  H    1.000398
    64  H    0.999875
    65  H    0.999450
    66  H    1.000149
    67  H    1.000025
    68  H    0.999780
    69  H    1.000731
    70  H    0.999951
    71  H    1.000511
    72  H    1.000218
    73  H    1.001131
    74  H    1.000942
    75  H    1.000850
    76  H    1.000551
    77  H    1.000046
    78  H    1.000128
    79  H    1.000463
    80  Mg  11.995533
    81  C    6.017175
    82  C    5.987881
    83  C    5.986112
    84  C    6.009820
    85  N    7.011096
    86  C    5.962227
    87  C    6.013772
    88  C    5.983537
    89  C    6.037248
    90  C    5.996487
    91  C    6.001035
    92  C    6.000137
    93  H    1.003360
    94  N    6.992841
    95  C    6.042475
    96  C    6.012326
    97  C    6.021140
    98  C    6.027186
    99  C    5.999595
   100  C    6.011488
   101  O    8.027966
   102  C    5.997437
   103  N    6.999090
   104  C    6.025694
   105  C    5.996694
   106  C    6.004073
   107  C    5.973011
   108  C    6.001621
   109  C    6.006075
   110  C    5.999657
   111  N    6.998021
   112  C    5.962451
   113  C    5.967370
   114  C    5.999719
   115  C    5.973887
   116  C    6.000438
   117  C    5.986455
   118  O    7.971107
   119  C    5.996674
   120  C    5.994617
   121  O    7.997852
   122  O    7.997158
   123  C    6.002082
   124  H    1.010321
   125  H    1.004420
   126  H    0.992163
   127  H    1.002124
   128  H    1.005442
   129  H    1.007853
   130  H    1.013555
   131  H    0.994372
   132  H    0.989375
   133  H    1.005923
   134  H    0.997190
   135  H    0.994749
   136  H    1.013995
   137  H    1.014245
   138  H    1.013666
   139  H    1.007524
   140  H    1.007105
   141  H    1.013620
   142  H    0.998777
   143  H    0.999576
   144  H    1.011261
   145  H    1.001476
   146  H    0.993693
   147  H    0.992962
   148  H    1.006269
   149  H    1.005867
   150  H    0.984819
   151  H    0.997236
   152  H    0.979070
   153  H    0.987252
   154  H    0.980643
   155  H    0.994093
   156  H    0.998525
   157  H    0.994721
   158  H    0.994501
 Sum of Mulliken charges = 624.00000

 Dipole moment (field-independent basis, Debye):
    X=            -10.1941    Y=             -0.9978    Z=              0.9628  Tot=             10.2880
 Quadrupole moment (field-independent basis, Debye-Ang):
   XX=           -245.8566   YY=             -0.1181   ZZ=             -0.8397
   XY=             -8.5546   XZ=             29.0959   YZ=             -0.6500

 Normal termination of Gaussian 16 at Fri Oct 15 09:25:52 2021.
