 Gaussian 16, Revision A.03,
 Gaussian 16:  ES64L-G16RevA.03 25-Dec-2016

 --------------------------------------------------------
 #p PBE1PBE/Def2SVP td=(nstates=5) density=(transition=1)
 --------------------------------------------------------

 --------------------------------
 TDDFT excited states in gaussian
 --------------------------------
 Symbolic Z-matrix:
 Charge =  0 Multiplicity = 1

                         Standard orientation:
 ---------------------------------------------------------------------
 Center     Atomic      Atomic             Coordinates (Angstroms)
 Number     Number       Type             X           Y           Z
 ---------------------------------------------------------------------
      1         12           0      -28.116334    0.432731    0.136928
      2          6           0      -25.227702   -1.548043    0.379045
      3          6           0      -26.117981    3.179693    0.081142
      4          6           0      -30.847640    2.105274   -0.525613
      5          6           0      -29.816111   -2.648493   -0.626760
      6          7           0      -25.959131    0.742158    0.288947
      7          6           0      -24.966288   -0.193824    0.359897
      8          6           0      -23.624823    0.509287    0.104059
      9          6           0      -23.922053    1.929647    0.571951
     10          6           0      -25.416302    1.972649    0.198710
     11          6           0      -23.705267    2.120818    2.090863
     12          6           0      -23.226195    0.450675   -1.416971
     13          6           0      -21.935284   -0.410238   -1.835985
     14          1           0      -22.109859   -1.600526   -2.794530
     15          7           0      -28.435098    2.366117   -0.236169
     16          6           0      -27.484552    3.359994   -0.191612
     17          6           0      -28.149941    4.618512   -0.321326
     18          6           0      -29.565743    4.398515   -0.383680
     19          6           0      -29.695185    2.912495   -0.391958
     20          6           0      -27.396369    5.992439   -0.340269
     21          6           0      -30.652125    5.534189   -0.408321
     22          8           0      -30.327735    6.674412   -0.278856
     23          6           0      -32.054833    5.149922   -0.308027
     24          7           0      -29.988820   -0.169089   -0.799396
     25          6           0      -30.996877    0.706243   -0.572234
     26          6           0      -32.353506    0.035418   -0.436298
     27          6           0      -32.069779   -1.404278   -0.836790
     28          6           0      -30.503591   -1.431662   -0.760961
     29          6           0      -32.948289    0.142206    1.016525
     30          6           0      -32.621879   -1.959539   -2.233223
     31          6           0      -33.760309   -2.941426   -2.307012
     32          7           0      -27.719466   -1.659589    0.112407
     33          6           0      -28.491018   -2.783384   -0.210165
     34          6           0      -27.706385   -3.998523   -0.172647
     35          6           0      -26.432640   -3.553242    0.082450
     36          6           0      -26.442413   -2.127076    0.229954
     37          6           0      -28.213035   -5.353107   -0.447097
     38          6           0      -25.057209   -3.989939    0.267339
     39          8           0      -24.594017   -5.136097    0.317444
     40          6           0      -24.253795   -2.742853    0.570848
     41          6           0      -23.677061   -2.906544    1.972857
     42          8           0      -24.413356   -3.081347    2.941100
     43          8           0      -22.274725   -2.960999    1.951995
     44          6           0      -21.663980   -3.149164    3.240755
     45          1           0      -25.463070    4.041420    0.223781
     46          1           0      -31.756649    2.699167   -0.418518
     47          1           0      -30.362005   -3.586460   -0.749580
     48          1           0      -22.862727   -0.073816    0.621679
     49          1           0      -23.292845    2.611195    0.000867
     50          1           0      -23.087500    3.017417    2.054033
     51          1           0      -23.168013    1.226154    2.406814
     52          1           0      -24.597256    2.254553    2.703003
     53          1           0      -22.999033    1.469881   -1.729329
     54          1           0      -24.112378    0.156473   -1.978751
     55          1           0      -21.581221   -0.862630   -0.909348
     56          1           0      -21.100590    0.177617   -2.215971
     57          1           0      -27.632129    6.694272   -1.139640
     58          1           0      -26.336985    5.743078   -0.408722
     59          1           0      -27.526208    6.555977    0.583846
     60          1           0      -32.396479    4.482508   -1.099488
     61          1           0      -32.660441    6.056001   -0.325036
     62          1           0      -32.277071    4.802182    0.699896
     63          1           0      -33.117100    0.504340   -1.057791
     64          1           0      -32.408859   -2.086733   -0.057426
     65          1           0      -33.679904    0.942638    1.125417
     66          1           0      -32.135155    0.164868    1.742044
     67          1           0      -33.485701   -0.787527    1.208746
     68          1           0      -31.896192   -2.258265   -2.988923
     69          1           0      -33.004724   -0.998505   -2.577685
     70          1           0      -34.661055   -2.529429   -2.760904
     71          1           0      -34.027736   -3.265753   -1.301040
     72          1           0      -33.362673   -3.770115   -2.892448
     73          1           0      -29.088366   -5.255502   -1.089832
     74          1           0      -28.548130   -5.738553    0.516256
     75          1           0      -27.429389   -6.000386   -0.838170
     76          1           0      -23.454410   -2.794713   -0.167097
     77          1           0      -21.636705   -2.255721    3.865119
     78          1           0      -20.635160   -3.496315    3.149519
     79          1           0      -22.134983   -3.917266    3.853570
     80         12           0       28.212792    0.233483    0.327793
     81          6           0       24.790871   -0.448162   -0.140456
     82          6           0       28.803733   -3.061097   -0.615787
     83          6           0       31.482457    0.866077    0.301734
     84          6           0       27.426272    3.613534    0.321964
     85          7           0       26.884399   -1.478101   -0.462905
     86          6           0       25.509155   -1.606905   -0.460971
     87          6           0       24.989471   -3.025125   -0.568752
     88          6           0       26.281466   -3.866750   -0.697786
     89          6           0       27.404801   -2.782405   -0.608102
     90          6           0       26.434479   -4.999703    0.396545
     91          6           0       23.991105   -3.327608   -1.773704
     92          6           0       24.170896   -2.530877   -3.076202
     93          1           0       24.830076   -3.244242   -4.293645
     94          7           0       29.866954   -0.917180   -0.081379
     95          6           0       29.912237   -2.247357   -0.388474
     96          6           0       31.309272   -2.698896   -0.454687
     97          6           0       32.118380   -1.553431   -0.182721
     98          6           0       31.131853   -0.448286    0.019715
     99          6           0       31.718405   -4.138765   -0.741321
    100          6           0       33.684537   -1.681255   -0.277241
    101          8           0       34.151606   -2.759125   -0.617970
    102          6           0       34.606712   -0.414961   -0.025971
    103          7           0       29.266761    1.965509    0.187730
    104          6           0       30.648842    1.999818    0.358365
    105          6           0       31.174868    3.539083    0.486387
    106          6           0       29.773063    4.341491    0.321133
    107          6           0       28.773076    3.231048    0.282724
    108          6           0       31.908015    3.812844    1.832531
    109          6           0       29.668975    5.267984   -0.965343
    110          6           0       29.245732    6.735101   -0.793763
    111          7           0       26.457947    1.405893    0.256549
    112          6           0       26.258427    2.762651    0.249406
    113          6           0       24.808775    3.023066    0.124342
    114          6           0       24.201884    1.739007    0.088276
    115          6           0       25.277520    0.808212    0.123948
    116          6           0       24.118015    4.355452    0.032546
    117          6           0       22.894755    1.075269   -0.075129
    118          8           0       21.729861    1.499307   -0.083785
    119          6           0       23.246196   -0.404230   -0.026397
    120          6           0       22.695565   -1.068303    1.106747
    121          8           0       23.216281   -0.981629    2.248960
    122          8           0       21.560151   -1.827131    0.759811
    123          6           0       20.974012   -2.697108    1.774382
    124          1           0       29.042638   -4.119612   -0.735265
    125          1           0       32.541151    1.082065    0.457076
    126          1           0       27.259537    4.690289    0.388003
    127          1           0       24.475815   -3.159931    0.382380
    128          1           0       26.311402   -4.195671   -1.735914
    129          1           0       26.332165   -5.976407   -0.076324
    130          1           0       25.636817   -4.826105    1.119330
    131          1           0       27.413597   -4.961621    0.875172
    132          1           0       23.038785   -3.025250   -1.336239
    133          1           0       23.971645   -4.401878   -1.958617
    134          1           0       24.740244   -1.619052   -2.892830
    135          1           0       23.193959   -2.157635   -3.380572
    136          1           0       32.080031   -4.318131   -1.753844
    137          1           0       30.966617   -4.839606   -0.378148
    138          1           0       32.532918   -4.445995   -0.085598
    139          1           0       34.254253    0.052951    0.893543
    140          1           0       34.490789    0.246175   -0.884374
    141          1           0       35.674269   -0.622224   -0.099893
    142          1           0       31.945148    3.653398   -0.275725
    143          1           0       29.620821    4.903817    1.242668
    144          1           0       31.173376    4.222167    2.525659
    145          1           0       32.795235    4.434689    1.712596
    146          1           0       32.352212    2.926947    2.286078
    147          1           0       29.011205    4.752217   -1.665667
    148          1           0       30.698570    5.251366   -1.322755
    149          1           0       28.876135    7.166440   -1.724462
    150          1           0       30.177281    7.207783   -0.483308
    151          1           0       28.470317    6.699399   -0.028257
    152          1           0       24.875691    5.015870   -0.388343
    153          1           0       23.977799    4.614609    1.081948
    154          1           0       23.145009    4.343471   -0.459475
    155          1           0       22.800935   -0.759329   -0.955516
    156          1           0       20.535904   -2.220538    2.651373
    157          1           0       21.717994   -3.413061    2.124904
    158          1           0       20.285550   -3.358920    1.248651
 ---------------------------------------------------------------------

 SCF Done:  E(RPBE1PBE) =  -4067.37302326     A.U. after   16 cycles

 Excitation energies and oscillator strengths:

 Excited State   1:      Singlet-A      1.8697 eV  663.14 nm  f=0.3664  <S**2>=0.000
     310 -> 316        0.17509
     312 -> 314        0.69212
     312 <- 314       -0.10392
 This state for optimization and/or second-order correction.
 Total Energy, E(TD-HF/TD-DFT) =  -4067.30431487
 Copying the excited state density for this state as the 1-particle RhoCI density.

 Excited State   2:      Singlet-A      1.8785 eV  660.00 nm  f=0.3550  <S**2>=0.000
     309 -> 315       -0.18351
     311 -> 313        0.69002
     311 <- 313       -0.10094

 Excited State   3:      Singlet-A      2.0092 eV  617.08 nm  f=0.0000  <S**2>=0.000
     312 -> 313        0.70711

 Excited State   4:      Singlet-A      2.0880 eV  593.78 nm  f=0.0000  <S**2>=0.000
     311 -> 314        0.70711

 Excited State   5:      Singlet-A      2.2920 eV  540.95 nm  f=0.0588  <S**2>=0.000
     309 -> 313        0.62316
     311 -> 315        0.32270

 The electronic state is 1-A.
 Alpha  occ. eigenvalues --  -46.92352 -46.92068 -19.26651 -19.26413 -19.20762
 Alpha  occ. eigenvalues --  -19.20433 -19.19796 -19.19469 -19.19302 -19.18911
 Alpha  occ. eigenvalues --  -14.42060 -14.41724 -14.41630 -14.41582 -14.39530
 Alpha  occ. eigenvalues --  -14.39066 -14.39018 -14.38987 -10.37249 -10.36973
 Alpha  occ. eigenvalues --  -10.33644 -10.32537 -10.32207 -10.31636 -10.29559
 Alpha  occ. eigenvalues --  -10.29312 -10.29080 -10.28868 -10.28856 -10.28701
 Alpha  occ. eigenvalues --  -10.28520 -10.28459 -10.28440 -10.28439 -10.28388
 Alpha  occ. eigenvalues --  -10.28327 -10.27967 -10.27448 -10.27428 -10.27277
 Alpha  occ. eigenvalues --  -10.27153 -10.26799 -10.26494 -10.26244 -10.26218
 Alpha  occ. eigenvalues --  -10.26216 -10.26119 -10.26099 -10.25979 -10.25970
 Alpha  occ. eigenvalues --  -10.25934 -10.25928 -10.25907 -10.25703 -10.25676
 Alpha  occ. eigenvalues --  -10.25586 -10.25481 -10.25377 -10.25369 -10.25274
 Alpha  occ. eigenvalues --  -10.25175 -10.25020 -10.24872 -10.24738 -10.24657
 Alpha  occ. eigenvalues --  -10.24541 -10.24509 -10.24497 -10.24482 -10.24430
 Alpha  occ. eigenvalues --  -10.24416 -10.24369 -10.24266 -10.24258 -10.24072
 Alpha  occ. eigenvalues --  -10.24064 -10.23726 -10.23601 -10.23535 -10.23392
 Alpha  occ. eigenvalues --  -10.23341 -10.23111 -10.23026 -10.22993 -10.22843
 Alpha  occ. eigenvalues --  -10.22764  -3.14553  -3.14256  -1.87350  -1.87070
 Alpha  occ. eigenvalues --   -1.86944  -1.86780  -1.86646  -1.86479  -1.10693
 Alpha  occ. eigenvalues --   -1.09679  -1.06695  -1.05115  -1.03819  -1.03770
 Alpha  occ. eigenvalues --   -1.02985  -1.01776  -0.99367  -0.98880  -0.98861
 Alpha  occ. eigenvalues --   -0.98182  -0.97480  -0.97223  -0.96770  -0.96491
 Alpha  occ. eigenvalues --   -0.87525  -0.87363  -0.83488  -0.83439  -0.83254
 Alpha  occ. eigenvalues --   -0.83095  -0.82850  -0.82341  -0.81908  -0.81441
 Alpha  occ. eigenvalues --   -0.81132  -0.80453  -0.79813  -0.79315  -0.78841
 Alpha  occ. eigenvalues --   -0.78828  -0.78507  -0.78175  -0.77060  -0.76805
 Alpha  occ. eigenvalues --   -0.76748  -0.75864  -0.75366  -0.75237  -0.75172
 Alpha  occ. eigenvalues --   -0.74425  -0.72525  -0.72333  -0.71517  -0.71507
 Alpha  occ. eigenvalues --   -0.71011  -0.70840  -0.70697  -0.70573  -0.69440
 Alpha  occ. eigenvalues --   -0.69276  -0.67300  -0.66815  -0.66586  -0.66193
 Alpha  occ. eigenvalues --   -0.63650  -0.63398  -0.63341  -0.63016  -0.62839
 Alpha  occ. eigenvalues --   -0.62482  -0.61239  -0.61219  -0.60250  -0.60204
 Alpha  occ. eigenvalues --   -0.60073  -0.59684  -0.59395  -0.59113  -0.59017
 Alpha  occ. eigenvalues --   -0.58741  -0.57264  -0.57036  -0.54789  -0.54744
 Alpha  occ. eigenvalues --   -0.54601  -0.54141  -0.53726  -0.53618  -0.53471
 Alpha  occ. eigenvalues --   -0.53227  -0.52947  -0.52349  -0.52275  -0.51777
 Alpha  occ. eigenvalues --   -0.50837  -0.50668  -0.50664  -0.50075  -0.49788
 Alpha  occ. eigenvalues --   -0.49504  -0.49380  -0.48985  -0.48799  -0.48567
 Alpha  occ. eigenvalues --   -0.48395  -0.48127  -0.47680  -0.47610  -0.47599
 Alpha  occ. eigenvalues --   -0.47429  -0.47183  -0.47157  -0.46953  -0.46736
 Alpha  occ. eigenvalues --   -0.46679  -0.46304  -0.46169  -0.45805  -0.45598
 Alpha  occ. eigenvalues --   -0.45481  -0.45481  -0.45181  -0.45113  -0.44946
 Alpha  occ. eigenvalues --   -0.44736  -0.44558  -0.44448  -0.44142  -0.43950
 Alpha  occ. eigenvalues --   -0.43930  -0.43888  -0.43844  -0.43659  -0.43547
 Alpha  occ. eigenvalues --   -0.43289  -0.43226  -0.42994  -0.42933  -0.42846
 Alpha  occ. eigenvalues --   -0.42732  -0.42228  -0.42102  -0.41831  -0.41792
 Alpha  occ. eigenvalues --   -0.41355  -0.41291  -0.41140  -0.41016  -0.40990
 Alpha  occ. eigenvalues --   -0.40990  -0.40944  -0.40844  -0.40699  -0.40565
 Alpha  occ. eigenvalues --   -0.40117  -0.40085  -0.39995  -0.39760  -0.39536
 Alpha  occ. eigenvalues --   -0.39441  -0.39302  -0.39206  -0.39060  -0.38987
 Alpha  occ. eigenvalues --   -0.38935  -0.38706  -0.38630  -0.38370  -0.38126
 Alpha  occ. eigenvalues --   -0.38042  -0.37887  -0.37818  -0.37770  -0.37458
 Alpha  occ. eigenvalues --   -0.37381  -0.37261  -0.37225  -0.37073  -0.37017
 Alpha  occ. eigenvalues --   -0.36906  -0.36821  -0.36542  -0.36510  -0.36438
 Alpha  occ. eigenvalues --   -0.35999  -0.35972  -0.35794  -0.35581  -0.35534
 Alpha  occ. eigenvalues --   -0.35269  -0.35243  -0.34923  -0.34795  -0.34659
 Alpha  occ. eigenvalues --   -0.33884  -0.33860  -0.32971  -0.32611  -0.32524
 Alpha  occ. eigenvalues --   -0.32458  -0.32090  -0.32062  -0.32053  -0.31704
 Alpha  occ. eigenvalues --   -0.31607  -0.31585  -0.29990  -0.29901  -0.29692
 Alpha  occ. eigenvalues --   -0.29075  -0.28999  -0.28863  -0.26946  -0.26903
 Alpha  occ. eigenvalues --   -0.26211  -0.26106  -0.25984  -0.25840  -0.25621
 Alpha  occ. eigenvalues --   -0.25568  -0.25330  -0.25253  -0.21274  -0.21043
 Alpha  occ. eigenvalues --   -0.18659  -0.18490
 Alpha virt. eigenvalues --   -0.10869  -0.10749  -0.05633  -0.05281  -0.03981
 Alpha virt. eigenvalues --   -0.03693  -0.02398  -0.01868  -0.01174  -0.01034
 Alpha virt. eigenvalues --   -0.00861  -0.00340   0.00766   0.00811   0.01102

 Mulliken charges:
               1
     1  Mg  11.999995
     2  C    6.000018
     3  C    6.000004
     4  C    6.000160
     5  C    6.000098
     6  N    6.999977
     7  C    5.999999
     8  C    5.999973
     9  C    6.000025
    10  C    5.999900
    11  C    6.000003
    12  C    6.000016
    13  C    5.999991
    14  H    0.999995
    15  N    7.000094
    16  C    5.999906
    17  C    5.999924
    18  C    5.999954
    19  C    5.999770
    20  C    5.999990
    21  C    6.000049
    22  O    7.999925
    23  C    5.999987
    24  N    6.999978
    25  C    5.999897
    26  C    6.000019
    27  C    5.999993
    28  C    6.000109
    29  C    6.000016
    30  C    5.999967
    31  C    6.000010
    32  N    6.999985
    33  C    6.000008
    34  C    6.000123
    35  C    5.999987
    36  C    6.000111
    37  C    6.000014
    38  C    6.000076
    39  O    8.000055
    40  C    5.999975
    41  C    6.000008
    42  O    8.000018
    43  O    8.000003
    44  C    5.999996
    45  H    0.999920
    46  H    1.000002
    47  H    1.000068
    48  H    0.999976
    49  H    0.999964
    50  H    0.999970
    51  H    0.999937
    52  H    1.000017
    53  H    1.000017
    54  H    1.000021
    55  H    0.999985
    56  H    0.999975
    57  H    0.999949
    58  H    0.999920
    59  H    0.999938
    60  H    0.999988
    61  H    0.999974
    62  H    0.999978
    63  H    1.000020
    64  H    1.000018
    65  H    1.000019
    66  H    0.999978
    67  H    0.999989
    68  H    0.999997
    69  H    1.000049
    70  H    1.000035
    71  H    1.000011
    72  H    0.999998
    73  H    1.000073
    74  H    1.000072
    75  H    1.000036
    76  H    1.000005
    77  H    1.000001
    78  H    0.999979
    79  H    1.000021
    80  Mg  12.002860
    81  C    5.984891
    82  C    6.010297
    83  C    6.021120
    84  C    5.985818
    85  N    6.996267
    86  C    6.031377
    87  C    5.989020
    88  C    6.010758
    89  C    5.964458
    90  C    6.003552
    91  C    5.999096
    92  C    5.997498
    93  H    1.014189
    94  N    7.005793
    95  C    5.959855
    96  C    5.980393
    97  C    5.988129
    98  C    5.961806
    99  C    6.004063
   100  C    5.989204
   101  O    7.983487
   102  C    5.999827
   103  N    7.001209
   104  C    5.965643
   105  C    6.007552
   106  C    5.987804
   107  C    6.033037
   108  C    6.003632
   109  C    5.995486
   110  C    5.999596
   111  N    6.998996
   112  C    6.038350
   113  C    6.026612
   114  C    6.004547
   115  C    6.027842
   116  C    6.000988
   117  C    6.019177
   118  O    8.028317
   119  C    6.000066
   120  C    6.003316
   121  O    8.006639
   122  O    8.001800
   123  C    5.996292
   124  H    0.989345
   125  H    0.992651
   126  H    1.007341
   127  H    1.000010
   128  H    0.996016
   129  H    0.994832
   130  H    0.987800
   131  H    1.005965
   132  H    0.994686
   133  H    1.008131
   134  H    0.995231
   135  H    0.997600
   136  H    0.981174
   137  H    0.984351
   138  H    0.985374
   139  H    0.992864
   140  H    0.990557
   141  H    0.988264
   142  H    1.001059
   143  H    1.001235
   144  H    0.989735
   145  H    0.995525
   146  H    1.004816
   147  H    0.998235
   148  H    1.012043
   149  H    1.001204
   150  H    1.005760
   151  H    0.995870
   152  H    1.015542
   153  H    1.017924
   154  H    1.014234
   155  H    1.009782
   156  H    1.002539
   157  H    1.006758
   158  H    1.004888
 Sum of Mulliken charges = 624.00000

 Dipole moment (field-independent basis, Debye):
    X=             -8.7027    Y=              5.2407    Z=              0.3914  Tot=             10.1664
 Quadrupole moment (field-independent basis, Debye-Ang):
   XX=           -486.1095   YY=              1.7776   ZZ=              0.6791
   XY=            149.4790   XZ=             11.3657   YZ=             -1.3119

 Normal termination of Gaussian 16 at Fri Oct 15 16:48:06 2021.
