 Gaussian 16, Revision A.03,
 Gaussian 16:  ES64L-G16RevA.03 25-Dec-2016

 --------------------------------------------------------
 #p PBE1PBE/Def2SVP td=(nstates=5) density=(transition=1)
 --------------------------------------------------------

 --------------------------------
 TDDFT excited states in gaussian
 --------------------------------
 Symbolic Z-matrix:
 Charge =  0 Multiplicity = 1

                         Standard orientation:
 ---------------------------------------------------------------------
 Center     Atomic      Atomic             Coordinates (Angstroms)
 Number     Number       Type             X           Y           Z
 ---------------------------------------------------------------------
      1         12           0       -5.169734   -0.125525    0.920701
      2          6           0       -4.245143    3.265697   -0.286881
      3          6           0       -2.663900    0.341480    3.140300
      4          6           0       -5.851558   -3.127872    1.674793
      5          6           0       -7.070562   -0.411780   -2.075768
      6          7           0       -3.630190    1.584558    1.307876
      7          6           0       -3.588233    2.882381    0.827181
      8          6           0       -2.667676    3.824308    1.611635
      9          6           0       -1.847313    2.752834    2.394127
     10          6           0       -2.736619    1.453472    2.295100
     11          6           0       -0.461680    2.512214    1.883218
     12          6           0       -3.350713    4.932170    2.481698
     13          6           0       -2.619847    6.217518    2.682779
     14          1           0       -2.775176    6.847101    4.063472
     15          7           0       -4.389123   -1.276486    2.295336
     16          6           0       -3.370058   -0.903662    3.196628
     17          6           0       -3.241234   -1.953021    4.166224
     18          6           0       -4.301644   -2.893485    3.806053
     19          6           0       -4.865218   -2.436946    2.587124
     20          6           0       -2.284793   -1.918539    5.415175
     21          6           0       -4.684619   -4.107642    4.595655
     22          8           0       -5.564040   -4.910404    4.198672
     23          6           0       -4.101315   -4.433073    5.922097
     24          7           0       -6.150653   -1.644154   -0.090035
     25          6           0       -6.334145   -2.849909    0.451661
     26          6           0       -7.211317   -3.807966   -0.416533
     27          6           0       -7.907795   -2.730790   -1.328987
     28          6           0       -6.960566   -1.506319   -1.202661
     29          6           0       -6.346991   -4.803128   -1.255816
     30          6           0       -9.359146   -2.351144   -0.813083
     31          6           0      -10.394534   -3.469582   -0.571285
     32          7           0       -5.628541    1.149287   -0.809839
     33          6           0       -6.468104    0.883928   -1.885688
     34          6           0       -6.470111    2.011038   -2.788649
     35          6           0       -5.649343    2.972236   -2.184959
     36          6           0       -5.080702    2.385424   -1.021224
     37          6           0       -7.300602    2.172790   -4.017247
     38          6           0       -5.132118    4.326572   -2.330398
     39          8           0       -5.319106    5.225309   -3.139881
     40          6           0       -4.257581    4.544531   -0.989101
     41          6           0       -2.967198    5.036620   -1.440177
     42          8           0       -2.149853    4.437135   -2.156310
     43          8           0       -2.980532    6.397516   -1.329261
     44          6           0       -1.847774    7.147131   -1.769035
     45          1           0       -1.947091    0.616717    3.916985
     46          1           0       -6.116735   -4.162948    1.899249
     47          1           0       -7.683197   -0.553587   -2.968960
     48          1           0       -2.013411    4.308594    0.886405
     49          1           0       -1.847336    2.975178    3.460799
     50          1           0       -0.473937    1.547646    1.375676
     51          1           0        0.226873    2.413932    2.722342
     52          1           0       -0.050669    3.244103    1.188147
     53          1           0       -3.475889    4.514044    3.480093
     54          1           0       -4.348021    5.094051    2.073590
     55          1           0       -3.062324    6.879236    1.938440
     56          1           0       -1.594434    6.178777    2.314922
     57          1           0       -2.771637   -1.751696    6.375577
     58          1           0       -1.469575   -1.209844    5.271807
     59          1           0       -1.846692   -2.916474    5.372298
     60          1           0       -3.094029   -4.820075    5.766023
     61          1           0       -4.746546   -5.204010    6.344206
     62          1           0       -4.170758   -3.525400    6.520683
     63          1           0       -7.858767   -4.334434    0.285518
     64          1           0       -7.978722   -2.982418   -2.386737
     65          1           0       -6.539518   -5.795791   -0.848045
     66          1           0       -5.280854   -4.584037   -1.304817
     67          1           0       -6.809662   -4.713895   -2.239731
     68          1           0       -9.835361   -1.719083   -1.562250
     69          1           0       -9.210413   -1.718709    0.061954
     70          1           0      -10.665988   -3.369610    0.479521
     71          1           0       -9.828255   -4.389907   -0.717071
     72          1           0      -11.281333   -3.362801   -1.195832
     73          1           0       -8.040697    1.375291   -3.947361
     74          1           0       -6.627539    2.005969   -4.858186
     75          1           0       -7.729915    3.167498   -4.136892
     76          1           0       -4.750134    5.275504   -0.348134
     77          1           0       -1.049796    6.499076   -2.132135
     78          1           0       -1.483402    7.655934   -0.876506
     79          1           0       -2.139533    7.936023   -2.460844
     80         12           0        4.327086   -1.023292   -1.151416
     81          6           0        7.040168    0.804419    0.035118
     82          6           0        2.316249    1.643922   -0.711038
     83          6           0        1.690913   -3.008284   -1.883455
     84          6           0        6.336510   -3.825098   -1.107994
     85          7           0        4.684374    1.024390   -0.382845
     86          6           0        5.910197    1.597988   -0.159467
     87          6           0        5.759185    3.044047    0.124819
     88          6           0        4.269671    3.366988   -0.040775
     89          6           0        3.659640    1.950518   -0.424723
     90          6           0        3.538911    4.073624    1.090405
     91          6           0        6.744567    3.943480   -0.816533
     92          6           0        7.823050    4.801465   -0.114396
     93          1           0        8.146254    6.191489   -0.604572
     94          7           0        2.311430   -0.702781   -1.397674
     95          6           0        1.643378    0.487339   -1.151581
     96          6           0        0.253229    0.304084   -1.360730
     97          6           0        0.035089   -1.057941   -1.703224
     98          6           0        1.377811   -1.647524   -1.692334
     99          6           0       -0.686026    1.571759   -1.303795
    100          6           0       -1.331319   -1.702320   -1.930325
    101          8           0       -1.529354   -2.906436   -2.152361
    102          6           0       -2.530040   -0.860649   -1.977080
    103          7           0        3.945534   -3.170022   -1.227074
    104          6           0        2.833074   -3.731529   -1.653206
    105          6           0        2.947334   -5.272515   -1.632435
    106          6           0        4.506387   -5.368137   -1.867036
    107          6           0        4.990144   -4.003157   -1.387805
    108          6           0        2.528436   -6.092622   -0.356419
    109          6           0        4.999860   -5.682632   -3.360021
    110          6           0        4.620461   -4.743405   -4.430524
    111          7           0        6.338050   -1.541255   -0.600737
    112          6           0        7.039767   -2.761568   -0.653896
    113          6           0        8.378786   -2.557191   -0.201090
    114          6           0        8.427360   -1.220668    0.141805
    115          6           0        7.178804   -0.619349   -0.224430
    116          6           0        9.349552   -3.588115    0.111157
    117          6           0        9.296609   -0.195913    0.484884
    118          8           0       10.495527   -0.199903    0.782572
    119          6           0        8.455353    1.159931    0.539128
    120          6           0        8.381014    1.522253    1.985590
    121          8           0        7.931358    0.931485    2.945039
    122          8           0        8.978270    2.712060    2.073406
    123          6           0        9.014660    3.330350    3.439161
    124          1           0        1.824986    2.618617   -0.743186
    125          1           0        0.839026   -3.572807   -2.266407
    126          1           0        6.976931   -4.707646   -1.162804
    127          1           0        6.062905    3.154450    1.165072
    128          1           0        4.140019    3.985332   -0.928724
    129          1           0        3.152573    3.170884    1.562121
    130          1           0        2.800093    4.815481    0.786740
    131          1           0        4.107097    4.614411    1.846761
    132          1           0        6.131448    4.581806   -1.452025
    133          1           0        7.387611    3.351100   -1.467927
    134          1           0        8.765357    4.272050   -0.258328
    135          1           0        7.691568    4.819823    0.966672
    136          1           0       -1.505962    1.361267   -0.617398
    137          1           0       -1.052501    1.504778   -2.328226
    138          1           0       -0.272733    2.507150   -0.926392
    139          1           0       -2.644516   -0.290773   -1.056038
    140          1           0       -3.370567   -1.546725   -1.875328
    141          1           0       -2.645164   -0.263484   -2.882012
    142          1           0        2.540774   -5.655447   -2.568582
    143          1           0        4.805665   -6.207531   -1.239833
    144          1           0        2.799231   -5.649436    0.601138
    145          1           0        3.022553   -7.049976   -0.525880
    146          1           0        1.448083   -6.237043   -0.328497
    147          1           0        4.646512   -6.642445   -3.737654
    148          1           0        6.077951   -5.552438   -3.453749
    149          1           0        5.353691   -3.944781   -4.327030
    150          1           0        3.638785   -4.269575   -4.401812
    151          1           0        4.701310   -5.074588   -5.465321
    152          1           0        9.071536   -3.902730    1.117759
    153          1           0       10.390726   -3.266843    0.114518
    154          1           0        9.374578   -4.396412   -0.620507
    155          1           0        8.854196    1.943044   -0.105754
    156          1           0        8.273740    4.128715    3.391686
    157          1           0       10.022568    3.683926    3.655247
    158          1           0        8.709800    2.707119    4.280313
 ---------------------------------------------------------------------

 SCF Done:  E(RPBE1PBE) =  -4067.35419304     A.U. after   17 cycles

 Excitation energies and oscillator strengths:

 Excited State   1:      Singlet-A      1.3845 eV  895.50 nm  f=0.0001  <S**2>=0.000
     312 -> 313        0.70681
 This state for optimization and/or second-order correction.
 Total Energy, E(TD-HF/TD-DFT) =  -4067.30331291
 Copying the excited state density for this state as the 1-particle RhoCI density.

 Excited State   2:      Singlet-A      1.8091 eV  685.34 nm  f=0.3292  <S**2>=0.000
     309 -> 316       -0.14538
     311 -> 313        0.70071
     311 <- 313       -0.12516

 Excited State   3:      Singlet-A      1.8524 eV  669.31 nm  f=0.4045  <S**2>=0.000
     310 -> 315        0.16188
     312 -> 314        0.69156
     312 <- 314       -0.10548

 Excited State   4:      Singlet-A      1.9154 eV  647.30 nm  f=0.0002  <S**2>=0.000
     310 -> 313        0.70656

 Excited State   5:      Singlet-A      1.9281 eV  643.05 nm  f=0.0010  <S**2>=0.000
     311 -> 314        0.70565

 The electronic state is 1-A.
 Alpha  occ. eigenvalues --  -46.92679 -46.92460 -19.26101 -19.25612 -19.20462
 Alpha  occ. eigenvalues --  -19.20434 -19.19212 -19.18408 -19.18243 -19.17963
 Alpha  occ. eigenvalues --  -14.42114 -14.41413 -14.41396 -14.40946 -14.39693
 Alpha  occ. eigenvalues --  -14.39615 -14.39039 -14.38363 -10.36804 -10.35506
 Alpha  occ. eigenvalues --  -10.33491 -10.31658 -10.31389 -10.31061 -10.29378
 Alpha  occ. eigenvalues --  -10.29003 -10.28982 -10.28945 -10.28908 -10.28791
 Alpha  occ. eigenvalues --  -10.28713 -10.28669 -10.28632 -10.28320 -10.28078
 Alpha  occ. eigenvalues --  -10.27879 -10.27679 -10.27585 -10.27166 -10.27108
 Alpha  occ. eigenvalues --  -10.27104 -10.26800 -10.26541 -10.26504 -10.26359
 Alpha  occ. eigenvalues --  -10.26265 -10.26247 -10.26151 -10.26127 -10.26077
 Alpha  occ. eigenvalues --  -10.26066 -10.26022 -10.25846 -10.25766 -10.25731
 Alpha  occ. eigenvalues --  -10.25580 -10.25439 -10.25435 -10.25416 -10.25394
 Alpha  occ. eigenvalues --  -10.25363 -10.25350 -10.25121 -10.25009 -10.24968
 Alpha  occ. eigenvalues --  -10.24839 -10.24759 -10.24637 -10.24173 -10.23886
 Alpha  occ. eigenvalues --  -10.23852 -10.23804 -10.23802 -10.23721 -10.23704
 Alpha  occ. eigenvalues --  -10.23568 -10.23492 -10.23426 -10.23280 -10.23204
 Alpha  occ. eigenvalues --  -10.23168 -10.23081 -10.22966 -10.22076 -10.22061
 Alpha  occ. eigenvalues --  -10.21908  -3.14926  -3.14455  -1.87740  -1.87298
 Alpha  occ. eigenvalues --   -1.87295  -1.87169  -1.86807  -1.86692  -1.11963
 Alpha  occ. eigenvalues --   -1.11698  -1.05326  -1.03338  -1.03084  -1.02532
 Alpha  occ. eigenvalues --   -1.02440  -1.02082  -0.99956  -0.99767  -0.99026
 Alpha  occ. eigenvalues --   -0.98671  -0.98617  -0.97765  -0.97539  -0.97035
 Alpha  occ. eigenvalues --   -0.88427  -0.86335  -0.84180  -0.83340  -0.83259
 Alpha  occ. eigenvalues --   -0.82928  -0.82612  -0.82456  -0.82070  -0.81965
 Alpha  occ. eigenvalues --   -0.81708  -0.81444  -0.80827  -0.80557  -0.79355
 Alpha  occ. eigenvalues --   -0.78733  -0.78726  -0.78332  -0.77605  -0.77180
 Alpha  occ. eigenvalues --   -0.76639  -0.75892  -0.75840  -0.75449  -0.75287
 Alpha  occ. eigenvalues --   -0.74701  -0.73108  -0.72691  -0.72133  -0.71887
 Alpha  occ. eigenvalues --   -0.71628  -0.71337  -0.70884  -0.70059  -0.70002
 Alpha  occ. eigenvalues --   -0.69447  -0.68098  -0.67597  -0.65913  -0.65619
 Alpha  occ. eigenvalues --   -0.63856  -0.63505  -0.63329  -0.63246  -0.62958
 Alpha  occ. eigenvalues --   -0.61937  -0.61687  -0.61277  -0.60533  -0.60006
 Alpha  occ. eigenvalues --   -0.59870  -0.59830  -0.59718  -0.59244  -0.59083
 Alpha  occ. eigenvalues --   -0.58294  -0.57109  -0.56452  -0.55622  -0.54678
 Alpha  occ. eigenvalues --   -0.54558  -0.54416  -0.54266  -0.53752  -0.53618
 Alpha  occ. eigenvalues --   -0.53278  -0.53058  -0.52671  -0.52534  -0.52169
 Alpha  occ. eigenvalues --   -0.50852  -0.50754  -0.50529  -0.50097  -0.49937
 Alpha  occ. eigenvalues --   -0.49633  -0.49540  -0.49455  -0.49191  -0.49012
 Alpha  occ. eigenvalues --   -0.48865  -0.48681  -0.48277  -0.47719  -0.47650
 Alpha  occ. eigenvalues --   -0.47517  -0.47427  -0.47239  -0.47008  -0.46793
 Alpha  occ. eigenvalues --   -0.46646  -0.46400  -0.46266  -0.46206  -0.46138
 Alpha  occ. eigenvalues --   -0.45816  -0.45652  -0.45542  -0.45118  -0.44882
 Alpha  occ. eigenvalues --   -0.44816  -0.44523  -0.44457  -0.44313  -0.44290
 Alpha  occ. eigenvalues --   -0.44186  -0.44066  -0.43884  -0.43764  -0.43518
 Alpha  occ. eigenvalues --   -0.43443  -0.43241  -0.42980  -0.42798  -0.42727
 Alpha  occ. eigenvalues --   -0.42708  -0.42456  -0.42142  -0.42038  -0.41723
 Alpha  occ. eigenvalues --   -0.41573  -0.41466  -0.41335  -0.41224  -0.41208
 Alpha  occ. eigenvalues --   -0.41082  -0.41020  -0.40723  -0.40515  -0.40392
 Alpha  occ. eigenvalues --   -0.40356  -0.40123  -0.40032  -0.39803  -0.39591
 Alpha  occ. eigenvalues --   -0.39347  -0.39273  -0.38971  -0.38936  -0.38807
 Alpha  occ. eigenvalues --   -0.38796  -0.38645  -0.38423  -0.38215  -0.38179
 Alpha  occ. eigenvalues --   -0.37939  -0.37924  -0.37793  -0.37623  -0.37529
 Alpha  occ. eigenvalues --   -0.37250  -0.37147  -0.37122  -0.36954  -0.36757
 Alpha  occ. eigenvalues --   -0.36611  -0.36531  -0.36245  -0.35999  -0.35807
 Alpha  occ. eigenvalues --   -0.35681  -0.35669  -0.35394  -0.35281  -0.34938
 Alpha  occ. eigenvalues --   -0.34899  -0.34640  -0.34531  -0.34197  -0.33703
 Alpha  occ. eigenvalues --   -0.33689  -0.33442  -0.33078  -0.32904  -0.32774
 Alpha  occ. eigenvalues --   -0.32562  -0.32423  -0.31873  -0.31797  -0.31414
 Alpha  occ. eigenvalues --   -0.31256  -0.30986  -0.30181  -0.29774  -0.29424
 Alpha  occ. eigenvalues --   -0.29096  -0.29009  -0.28776  -0.27540  -0.26818
 Alpha  occ. eigenvalues --   -0.26718  -0.26006  -0.25868  -0.25767  -0.25437
 Alpha  occ. eigenvalues --   -0.25232  -0.25018  -0.24873  -0.21564  -0.20714
 Alpha  occ. eigenvalues --   -0.19624  -0.18783
 Alpha virt. eigenvalues --   -0.12336  -0.11130  -0.04888  -0.04784  -0.04274
 Alpha virt. eigenvalues --   -0.03599  -0.02538  -0.01791  -0.01334  -0.01127
 Alpha virt. eigenvalues --   -0.00319   0.00547   0.01135   0.01246   0.02036

 Mulliken charges:
               1
     1  Mg  12.000089
     2  C    6.000269
     3  C    6.000442
     4  C    5.999455
     5  C    5.999934
     6  N    7.000882
     7  C    5.999891
     8  C    6.000344
     9  C    5.999712
    10  C    6.000616
    11  C    6.000011
    12  C    6.000038
    13  C    5.999973
    14  H    0.999911
    15  N    7.000040
    16  C    6.000091
    17  C    6.000280
    18  C    6.000017
    19  C    6.000304
    20  C    5.999999
    21  C    6.000158
    22  O    8.000342
    23  C    5.999935
    24  N    6.999767
    25  C    6.000436
    26  C    5.999945
    27  C    6.000068
    28  C    5.999741
    29  C    5.999975
    30  C    6.000061
    31  C    5.999971
    32  N    6.999965
    33  C    5.999690
    34  C    5.999356
    35  C    5.999941
    36  C    5.999206
    37  C    6.000060
    38  C    5.999555
    39  O    7.999654
    40  C    5.999886
    41  C    5.999856
    42  O    7.999842
    43  O    8.000017
    44  C    6.000065
    45  H    1.000251
    46  H    0.999954
    47  H    0.999745
    48  H    0.999901
    49  H    0.999972
    50  H    0.999458
    51  H    1.000017
    52  H    1.000235
    53  H    0.999825
    54  H    1.000131
    55  H    1.000082
    56  H    0.999938
    57  H    1.000198
    58  H    1.000108
    59  H    1.000154
    60  H    1.000044
    61  H    1.000131
    62  H    1.000025
    63  H    0.999902
    64  H    0.999929
    65  H    0.999912
    66  H    0.999943
    67  H    1.000061
    68  H    1.000010
    69  H    0.999928
    70  H    0.999903
    71  H    0.999918
    72  H    0.999949
    73  H    0.999754
    74  H    0.999614
    75  H    0.999694
    76  H    0.999858
    77  H    0.999892
    78  H    0.999886
    79  H    0.999965
    80  Mg  12.000051
    81  C    6.000044
    82  C    6.000160
    83  C    5.999990
    84  C    6.000014
    85  N    6.999959
    86  C    6.000052
    87  C    5.999966
    88  C    6.000027
    89  C    5.999912
    90  C    5.999839
    91  C    5.999969
    92  C    5.999967
    93  H    1.000086
    94  N    6.999946
    95  C    6.000123
    96  C    6.000307
    97  C    5.999885
    98  C    5.999919
    99  C    6.000033
   100  C    6.000013
   101  O    8.000242
   102  C    5.999925
   103  N    7.000049
   104  C    6.000015
   105  C    6.000004
   106  C    5.999946
   107  C    6.000063
   108  C    6.000004
   109  C    5.999980
   110  C    5.999980
   111  N    7.000034
   112  C    6.000091
   113  C    6.000100
   114  C    6.000011
   115  C    6.000034
   116  C    5.999980
   117  C    6.000082
   118  O    8.000130
   119  C    5.999988
   120  C    6.000000
   121  O    8.000035
   122  O    8.000005
   123  C    5.999988
   124  H    1.000000
   125  H    1.000064
   126  H    1.000090
   127  H    1.000012
   128  H    1.000042
   129  H    1.000068
   130  H    1.000124
   131  H    1.000101
   132  H    1.000064
   133  H    0.999992
   134  H    0.999993
   135  H    1.000002
   136  H    0.998867
   137  H    1.000448
   138  H    1.000054
   139  H    1.000046
   140  H    1.000101
   141  H    1.000152
   142  H    1.000074
   143  H    1.000060
   144  H    0.999983
   145  H    1.000039
   146  H    1.000042
   147  H    1.000076
   148  H    1.000018
   149  H    0.999982
   150  H    1.000038
   151  H    1.000068
   152  H    1.000068
   153  H    1.000072
   154  H    1.000079
   155  H    1.000068
   156  H    1.000034
   157  H    1.000037
   158  H    1.000015
 Sum of Mulliken charges = 624.00000

 Dipole moment (field-independent basis, Debye):
    X=              0.1643    Y=             -0.0803    Z=              0.0961  Tot=              0.2066
 Quadrupole moment (field-independent basis, Debye-Ang):
   XX=             -0.4393   YY=             -0.0686   ZZ=              0.1086
   XY=              0.2213   XZ=             -0.5425   YZ=              0.0588

 Normal termination of Gaussian 16 at Thu Oct 14 00:56:20 2021.
