 Gaussian 16, Revision A.03,
 Gaussian 16:  ES64L-G16RevA.03 25-Dec-2016

 --------------------------------------------------------
 #p PBE1PBE/Def2SVP td=(nstates=5) density=(transition=1)
 --------------------------------------------------------

 --------------------------------
 TDDFT excited states in gaussian
 --------------------------------
 Symbolic Z-matrix:
 Charge =  0 Multiplicity = 1

                         Standard orientation:
 ---------------------------------------------------------------------
 Center     Atomic      Atomic             Coordinates (Angstroms)
 Number     Number       Type             X           Y           Z
 ---------------------------------------------------------------------
      1         12           0      -25.476293   -0.666675   -0.241213
      2          6           0      -23.549769    2.250330   -0.353114
      3          6           0      -27.805544    1.176129    1.552291
      4          6           0      -27.071878   -3.458161    0.241475
      5          6           0      -22.834879   -2.359539   -1.884631
      6          7           0      -25.475662    1.411311    0.878086
      7          6           0      -24.670868    2.419559    0.527137
      8          6           0      -25.176852    3.656803    1.190355
      9          6           0      -26.293066    3.172757    2.148132
     10          6           0      -26.590987    1.839858    1.490538
     11          6           0      -26.013982    3.058561    3.647810
     12          6           0      -25.710511    4.697243    0.155197
     13          6           0      -25.231035    6.181317    0.256236
     14          1           0      -24.856527    6.766466    1.653642
     15          7           0      -27.315944   -1.064883    0.653703
     16          6           0      -28.179908   -0.103902    1.161880
     17          6           0      -29.373112   -0.789706    1.538066
     18          6           0      -29.149362   -2.202499    1.286081
     19          6           0      -27.824112   -2.319639    0.696271
     20          6           0      -30.591131   -0.124751    2.215829
     21          6           0      -30.051385   -3.427644    1.611505
     22          8           0      -29.762399   -4.558326    1.378144
     23          6           0      -31.409262   -3.112292    2.207415
     24          7           0      -24.994169   -2.599010   -0.772590
     25          6           0      -25.808245   -3.609113   -0.392652
     26          6           0      -25.319758   -5.014604   -0.839362
     27          6           0      -24.091089   -4.596582   -1.756178
     28          6           0      -23.949893   -3.100203   -1.503683
     29          6           0      -24.963841   -5.941927    0.460649
     30          6           0      -24.231953   -5.053126   -3.242291
     31          6           0      -24.734904   -4.037417   -4.252400
     32          7           0      -23.556710   -0.212011   -1.038655
     33          6           0      -22.660377   -0.970679   -1.741909
     34          6           0      -21.506113   -0.087794   -2.133718
     35          6           0      -21.836086    1.178830   -1.600809
     36          6           0      -23.080598    1.070293   -0.896240
     37          6           0      -20.206068   -0.498544   -2.770085
     38          6           0      -21.389665    2.562714   -1.460677
     39          8           0      -20.346547    3.070382   -1.882283
     40          6           0      -22.549680    3.304838   -0.803660
     41          6           0      -21.948301    4.064441    0.343953
     42          8           0      -21.635279    3.582334    1.417080
     43          8           0      -21.667922    5.267916   -0.128345
     44          6           0      -20.718245    6.090498    0.604463
     45          1           0      -28.471003    1.707169    2.235431
     46          1           0      -27.671057   -4.370699    0.232024
     47          1           0      -22.027568   -2.879785   -2.404890
     48          1           0      -24.353725    4.121321    1.732369
     49          1           0      -27.089010    3.914311    2.078559
     50          1           0      -25.025965    3.375399    3.982255
     51          1           0      -26.161901    2.031069    3.981371
     52          1           0      -26.758146    3.684721    4.139496
     53          1           0      -26.795363    4.690814    0.051662
     54          1           0      -25.318047    4.246628   -0.756300
     55          1           0      -26.077139    6.745750   -0.137739
     56          1           0      -24.370820    6.312812   -0.399653
     57          1           0      -30.890710   -0.616369    3.141443
     58          1           0      -31.497687   -0.213872    1.617034
     59          1           0      -30.469157    0.939753    2.420285
     60          1           0      -31.962138   -2.370285    1.630974
     61          1           0      -31.258814   -2.813422    3.244863
     62          1           0      -31.986415   -4.027447    2.339520
     63          1           0      -26.068342   -5.552192   -1.421100
     64          1           0      -23.158648   -5.081205   -1.467051
     65          1           0      -23.875658   -6.005985    0.454701
     66          1           0      -25.275115   -6.981052    0.351463
     67          1           0      -25.225829   -5.487475    1.416793
     68          1           0      -25.026745   -5.798434   -3.208850
     69          1           0      -23.329058   -5.532907   -3.619485
     70          1           0      -25.562182   -3.545236   -3.739606
     71          1           0      -25.045760   -4.688919   -5.068775
     72          1           0      -24.105948   -3.206139   -4.569942
     73          1           0      -20.010590   -1.559975   -2.922883
     74          1           0      -19.379143   -0.135970   -2.159317
     75          1           0      -20.154638    0.070686   -3.697683
     76          1           0      -22.975754    4.109486   -1.403238
     77          1           0      -20.185103    5.678558    1.460700
     78          1           0      -21.356024    6.869367    1.023565
     79          1           0      -20.223570    6.751749   -0.107083
     80         12           0       24.765274   -0.854168    0.285366
     81          6           0       24.295109    2.443095   -1.087876
     82          6           0       24.936944    0.481594    3.341845
     83          6           0       26.056526   -3.767612    1.322314
     84          6           0       25.026933   -1.995255   -3.021250
     85          7           0       24.684970    1.198640    1.000448
     86          6           0       24.298134    2.366709    0.321581
     87          6           0       24.014112    3.547599    1.326264
     88          6           0       24.296187    2.886325    2.709274
     89          6           0       24.607949    1.410258    2.345372
     90          6           0       25.379154    3.498246    3.561176
     91          6           0       22.534487    4.185191    1.143465
     92          6           0       22.496755    5.707220    0.958650
     93          1           0       21.638997    6.461805    2.041336
     94          7           0       25.280418   -1.592478    2.122597
     95          6           0       25.299025   -0.908276    3.270947
     96          6           0       25.761145   -1.737802    4.385141
     97          6           0       26.177133   -2.959146    3.750936
     98          6           0       25.861559   -2.818929    2.325511
     99          6           0       25.787504   -1.278549    5.779638
    100          6           0       26.916048   -4.115100    4.495647
    101          8           0       27.197229   -5.164763    3.941854
    102          6           0       27.306935   -4.030293    5.936615
    103          7           0       25.414220   -2.562214   -0.693358
    104          6           0       25.800958   -3.710518   -0.010705
    105          6           0       26.062359   -4.891185   -1.002610
    106          6           0       25.386453   -4.384784   -2.331157
    107          6           0       25.205910   -2.903366   -2.000750
    108          6           0       27.521476   -5.441556   -1.114316
    109          6           0       24.026727   -5.063611   -2.652116
    110          6           0       23.710366   -5.409227   -4.085358
    111          7           0       24.734938    0.018554   -1.672263
    112          6           0       24.854241   -0.576267   -2.896158
    113          6           0       24.563725    0.466709   -3.974410
    114          6           0       24.292247    1.638558   -3.310482
    115          6           0       24.477434    1.336241   -1.917796
    116          6           0       24.497060    0.124465   -5.445419
    117          6           0       23.958655    3.047510   -3.420345
    118          8           0       23.764426    3.638058   -4.503409
    119          6           0       24.037745    3.696132   -1.912711
    120          6           0       25.159954    4.692311   -1.708211
    121          8           0       26.339921    4.388862   -1.973636
    122          8           0       24.691865    5.966936   -1.386286
    123          6           0       25.700771    6.997519   -1.602075
    124          1           0       24.896877    0.830182    4.375730
    125          1           0       26.416876   -4.702518    1.755771
    126          1           0       25.001948   -2.448068   -4.015094
    127          1           0       24.757213    4.288171    1.031189
    128          1           0       23.411467    3.113161    3.305771
    129          1           0       25.887751    4.331626    3.076319
    130          1           0       26.103201    2.684616    3.534470
    131          1           0       25.018845    3.856113    4.526122
    132          1           0       22.024541    3.867421    2.052477
    133          1           0       22.019060    3.657873    0.341177
    134          1           0       22.162321    5.887431   -0.063003
    135          1           0       23.509235    6.103036    1.047820
    136          1           0       26.716742   -1.306601    6.347841
    137          1           0       25.254927   -2.054824    6.327874
    138          1           0       25.191580   -0.390923    5.993123
    139          1           0       26.366961   -3.910658    6.476685
    140          1           0       27.863023   -3.099545    6.052200
    141          1           0       27.873221   -4.938093    6.140952
    142          1           0       25.456248   -5.702191   -0.598806
    143          1           0       26.060551   -4.411011   -3.186991
    144          1           0       28.061585   -4.923504   -0.322173
    145          1           0       27.967808   -5.331307   -2.102202
    146          1           0       27.596245   -6.477332   -0.780832
    147          1           0       23.379484   -4.267945   -2.283712
    148          1           0       23.806079   -5.950443   -2.057674
    149          1           0       23.260834   -6.401758   -4.053113
    150          1           0       24.597912   -5.481809   -4.714750
    151          1           0       22.895970   -4.746014   -4.377966
    152          1           0       24.729117   -0.936345   -5.538171
    153          1           0       25.304483    0.652700   -5.952013
    154          1           0       23.532361    0.431575   -5.848821
    155          1           0       23.062396    4.118930   -1.671782
    156          1           0       25.502179    7.678220   -2.428745
    157          1           0       26.711360    6.611093   -1.735081
    158          1           0       25.725808    7.590285   -0.688050
 ---------------------------------------------------------------------

 SCF Done:  E(RPBE1PBE) =  -4067.36304720     A.U. after   16 cycles

 Excitation energies and oscillator strengths:

 Excited State   1:      Singlet-A      1.8518 eV  669.54 nm  f=0.4043  <S**2>=0.000
     309 -> 316        0.16676
     312 -> 314        0.69627
     312 <- 314       -0.11425
 This state for optimization and/or second-order correction.
 Total Energy, E(TD-HF/TD-DFT) =  -4067.29499525
 Copying the excited state density for this state as the 1-particle RhoCI density.

 Excited State   2:      Singlet-A      1.8764 eV  660.75 nm  f=0.3894  <S**2>=0.000
     310 -> 315        0.18224
     311 -> 313        0.69069
     311 <- 313       -0.10329

 Excited State   3:      Singlet-A      1.9579 eV  633.24 nm  f=0.0000  <S**2>=0.000
     312 -> 313        0.70711

 Excited State   4:      Singlet-A      2.0474 eV  605.56 nm  f=0.0000  <S**2>=0.000
     311 -> 314        0.70711

 Excited State   5:      Singlet-A      2.2077 eV  561.59 nm  f=0.0945  <S**2>=0.000
     310 -> 313        0.65478
     311 -> 315       -0.25274

 The electronic state is 1-A.
 Alpha  occ. eigenvalues --  -46.92187 -46.91810 -19.27237 -19.26816 -19.20969
 Alpha  occ. eigenvalues --  -19.20035 -19.19761 -19.19399 -19.18994 -19.18876
 Alpha  occ. eigenvalues --  -14.42066 -14.41397 -14.41234 -14.40991 -14.39269
 Alpha  occ. eigenvalues --  -14.39074 -14.38886 -14.38540 -10.37738 -10.36037
 Alpha  occ. eigenvalues --  -10.33552 -10.32405 -10.32194 -10.31801 -10.29287
 Alpha  occ. eigenvalues --  -10.29220 -10.28898 -10.28845 -10.28800 -10.28687
 Alpha  occ. eigenvalues --  -10.28675 -10.28257 -10.28114 -10.28010 -10.27967
 Alpha  occ. eigenvalues --  -10.27624 -10.27609 -10.27459 -10.27440 -10.27376
 Alpha  occ. eigenvalues --  -10.26957 -10.26950 -10.26837 -10.26764 -10.26721
 Alpha  occ. eigenvalues --  -10.26470 -10.26398 -10.26363 -10.26321 -10.26078
 Alpha  occ. eigenvalues --  -10.26006 -10.25877 -10.25772 -10.25762 -10.25520
 Alpha  occ. eigenvalues --  -10.25411 -10.25348 -10.25208 -10.25115 -10.24888
 Alpha  occ. eigenvalues --  -10.24871 -10.24846 -10.24721 -10.24633 -10.24619
 Alpha  occ. eigenvalues --  -10.24332 -10.24325 -10.24294 -10.24241 -10.24148
 Alpha  occ. eigenvalues --  -10.23957 -10.23782 -10.23763 -10.23543 -10.23531
 Alpha  occ. eigenvalues --  -10.23529 -10.23461 -10.23297 -10.23296 -10.23054
 Alpha  occ. eigenvalues --  -10.22987 -10.22937 -10.22907 -10.22842 -10.22643
 Alpha  occ. eigenvalues --  -10.22466  -3.14227  -3.14035  -1.87076  -1.86858
 Alpha  occ. eigenvalues --   -1.86636  -1.86410  -1.86394  -1.86286  -1.13032
 Alpha  occ. eigenvalues --   -1.10991  -1.06300  -1.04960  -1.04127  -1.03644
 Alpha  occ. eigenvalues --   -1.03360  -1.02638  -0.99607  -0.98573  -0.98404
 Alpha  occ. eigenvalues --   -0.97987  -0.97238  -0.97186  -0.96695  -0.96524
 Alpha  occ. eigenvalues --   -0.87577  -0.86877  -0.83435  -0.83028  -0.83003
 Alpha  occ. eigenvalues --   -0.82869  -0.82414  -0.82382  -0.81627  -0.81568
 Alpha  occ. eigenvalues --   -0.81432  -0.80439  -0.80390  -0.79865  -0.78755
 Alpha  occ. eigenvalues --   -0.78573  -0.77996  -0.77913  -0.76975  -0.76886
 Alpha  occ. eigenvalues --   -0.76167  -0.75749  -0.75495  -0.75120  -0.74550
 Alpha  occ. eigenvalues --   -0.74309  -0.72817  -0.72246  -0.71904  -0.71618
 Alpha  occ. eigenvalues --   -0.71341  -0.71205  -0.70604  -0.70477  -0.69511
 Alpha  occ. eigenvalues --   -0.69139  -0.67091  -0.66849  -0.66198  -0.65447
 Alpha  occ. eigenvalues --   -0.63877  -0.63414  -0.63320  -0.62786  -0.62387
 Alpha  occ. eigenvalues --   -0.62185  -0.61189  -0.60630  -0.59749  -0.59731
 Alpha  occ. eigenvalues --   -0.59474  -0.59455  -0.59408  -0.59183  -0.58890
 Alpha  occ. eigenvalues --   -0.58881  -0.57310  -0.57136  -0.54913  -0.54413
 Alpha  occ. eigenvalues --   -0.54273  -0.54202  -0.53772  -0.53286  -0.53130
 Alpha  occ. eigenvalues --   -0.53112  -0.52894  -0.52386  -0.51949  -0.51876
 Alpha  occ. eigenvalues --   -0.51401  -0.50855  -0.50588  -0.49925  -0.49642
 Alpha  occ. eigenvalues --   -0.49494  -0.49390  -0.49317  -0.49214  -0.48371
 Alpha  occ. eigenvalues --   -0.48161  -0.48158  -0.47845  -0.47698  -0.47462
 Alpha  occ. eigenvalues --   -0.47222  -0.47214  -0.46881  -0.46527  -0.46428
 Alpha  occ. eigenvalues --   -0.46287  -0.46195  -0.46042  -0.45922  -0.45917
 Alpha  occ. eigenvalues --   -0.45756  -0.45708  -0.45504  -0.45310  -0.44896
 Alpha  occ. eigenvalues --   -0.44665  -0.44292  -0.44132  -0.43971  -0.43945
 Alpha  occ. eigenvalues --   -0.43854  -0.43791  -0.43477  -0.43397  -0.43294
 Alpha  occ. eigenvalues --   -0.43282  -0.43080  -0.42978  -0.42830  -0.42797
 Alpha  occ. eigenvalues --   -0.42663  -0.42612  -0.41937  -0.41904  -0.41695
 Alpha  occ. eigenvalues --   -0.41562  -0.41512  -0.41173  -0.41147  -0.40861
 Alpha  occ. eigenvalues --   -0.40805  -0.40711  -0.40684  -0.40627  -0.40430
 Alpha  occ. eigenvalues --   -0.40388  -0.40274  -0.40085  -0.39945  -0.39696
 Alpha  occ. eigenvalues --   -0.39577  -0.39313  -0.39190  -0.39097  -0.38886
 Alpha  occ. eigenvalues --   -0.38854  -0.38601  -0.38488  -0.38421  -0.38137
 Alpha  occ. eigenvalues --   -0.38050  -0.37935  -0.37916  -0.37831  -0.37719
 Alpha  occ. eigenvalues --   -0.37609  -0.37555  -0.37457  -0.37032  -0.36690
 Alpha  occ. eigenvalues --   -0.36628  -0.36576  -0.36519  -0.36105  -0.36002
 Alpha  occ. eigenvalues --   -0.35997  -0.35658  -0.35570  -0.35520  -0.35151
 Alpha  occ. eigenvalues --   -0.35074  -0.34549  -0.34421  -0.34285  -0.34059
 Alpha  occ. eigenvalues --   -0.33295  -0.33282  -0.32811  -0.32462  -0.32260
 Alpha  occ. eigenvalues --   -0.32186  -0.32141  -0.31736  -0.31515  -0.31326
 Alpha  occ. eigenvalues --   -0.31198  -0.31135  -0.29815  -0.29636  -0.29457
 Alpha  occ. eigenvalues --   -0.29108  -0.28541  -0.28539  -0.27084  -0.26491
 Alpha  occ. eigenvalues --   -0.26358  -0.26024  -0.25877  -0.25606  -0.25434
 Alpha  occ. eigenvalues --   -0.25417  -0.25380  -0.24746  -0.21061  -0.20726
 Alpha  occ. eigenvalues --   -0.18715  -0.18449
 Alpha virt. eigenvalues --   -0.10990  -0.10930  -0.05017  -0.04844  -0.04281
 Alpha virt. eigenvalues --   -0.03953  -0.02256  -0.01692  -0.01624  -0.00800
 Alpha virt. eigenvalues --    0.00002   0.00366   0.01075   0.01211   0.01296

 Mulliken charges:
               1
     1  Mg  12.000017
     2  C    6.000082
     3  C    5.999908
     4  C    5.999958
     5  C    6.000106
     6  N    6.999998
     7  C    5.999775
     8  C    6.000049
     9  C    5.999926
    10  C    6.000260
    11  C    5.999989
    12  C    6.000018
    13  C    6.000012
    14  H    0.999970
    15  N    6.999964
    16  C    6.000302
    17  C    6.000127
    18  C    6.000132
    19  C    6.000201
    20  C    5.999969
    21  C    6.000175
    22  O    8.000233
    23  C    5.999935
    24  N    7.000017
    25  C    6.000235
    26  C    5.999914
    27  C    6.000083
    28  C    5.999776
    29  C    5.999946
    30  C    6.000006
    31  C    6.000059
    32  N    7.000000
    33  C    5.999734
    34  C    5.999724
    35  C    6.000010
    36  C    5.999784
    37  C    6.000022
    38  C    5.999774
    39  O    7.999714
    40  C    6.000039
    41  C    5.999940
    42  O    7.999947
    43  O    7.999990
    44  C    6.000045
    45  H    1.000101
    46  H    1.000074
    47  H    0.999939
    48  H    0.999991
    49  H    1.000021
    50  H    1.000121
    51  H    0.999977
    52  H    1.000030
    53  H    0.999883
    54  H    1.000048
    55  H    0.999956
    56  H    1.000027
    57  H    1.000165
    58  H    1.000160
    59  H    1.000158
    60  H    1.000053
    61  H    1.000090
    62  H    1.000149
    63  H    1.000010
    64  H    0.999997
    65  H    1.000113
    66  H    1.000046
    67  H    0.999985
    68  H    0.999922
    69  H    0.999991
    70  H    0.999920
    71  H    0.999950
    72  H    1.000051
    73  H    0.999826
    74  H    0.999839
    75  H    0.999811
    76  H    0.999884
    77  H    0.999977
    78  H    0.999938
    79  H    0.999936
    80  Mg  11.997898
    81  C    5.980012
    82  C    6.014904
    83  C    6.012651
    84  C    5.982171
    85  N    6.994041
    86  C    6.033629
    87  C    5.991152
    88  C    6.012052
    89  C    5.967842
    90  C    6.000906
    91  C    5.995786
    92  C    5.997024
    93  H    1.009747
    94  N    7.004092
    95  C    5.962177
    96  C    5.977347
    97  C    5.988704
    98  C    5.963784
    99  C    6.005824
   100  C    5.987913
   101  O    7.976862
   102  C    6.001750
   103  N    6.999612
   104  C    5.971811
   105  C    6.007378
   106  C    5.991154
   107  C    6.029856
   108  C    5.998202
   109  C    5.998958
   110  C    5.997803
   111  N    7.002294
   112  C    6.038523
   113  C    6.032651
   114  C    6.000387
   115  C    6.030336
   116  C    5.997082
   117  C    6.019215
   118  O    8.028455
   119  C    6.004581
   120  C    6.005978
   121  O    8.004093
   122  O    8.002966
   123  C    5.996788
   124  H    0.991557
   125  H    0.992102
   126  H    1.008643
   127  H    1.000497
   128  H    0.994652
   129  H    0.988220
   130  H    1.006164
   131  H    0.997833
   132  H    1.010356
   133  H    0.995685
   134  H    0.996196
   135  H    1.001674
   136  H    0.978292
   137  H    0.981566
   138  H    0.982220
   139  H    0.994721
   140  H    0.995081
   141  H    0.986454
   142  H    1.000124
   143  H    0.998862
   144  H    1.005116
   145  H    0.989074
   146  H    0.998569
   147  H    0.999303
   148  H    1.011156
   149  H    1.004678
   150  H    1.000935
   151  H    0.996112
   152  H    1.018545
   153  H    1.019324
   154  H    1.018072
   155  H    1.008709
   156  H    1.002937
   157  H    1.003383
   158  H    1.006799
 Sum of Mulliken charges = 624.00000

 Dipole moment (field-independent basis, Debye):
    X=             -2.2145    Y=              4.6519    Z=             -9.4124  Tot=             10.7302
 Quadrupole moment (field-independent basis, Debye-Ang):
   XX=           -102.9173   YY=             -1.5311   ZZ=             -4.8718
   XY=            121.2288   XZ=           -240.0352   YZ=              6.9826

 Normal termination of Gaussian 16 at Fri Oct 15 19:17:33 2021.
