 Gaussian 16, Revision A.03,
 Gaussian 16:  ES64L-G16RevA.03 25-Dec-2016

 --------------------------------------------------------
 #p PBE1PBE/Def2SVP td=(nstates=5) density=(transition=1)
 --------------------------------------------------------

 --------------------------------
 TDDFT excited states in gaussian
 --------------------------------
 Symbolic Z-matrix:
 Charge =  0 Multiplicity = 1

                         Standard orientation:
 ---------------------------------------------------------------------
 Center     Atomic      Atomic             Coordinates (Angstroms)
 Number     Number       Type             X           Y           Z
 ---------------------------------------------------------------------
      1         12           0      -25.445878   -0.779080   -0.294498
      2          6           0      -26.458462    2.248721    1.369623
      3          6           0      -23.910432    1.203535   -2.610850
      4          6           0      -24.769288   -3.588430   -1.997802
      5          6           0      -27.440680   -2.507561    1.846596
      6          7           0      -25.174869    1.570832   -0.543737
      7          6           0      -25.658107    2.523259    0.305849
      8          6           0      -25.080146    3.820177   -0.117595
      9          6           0      -24.373541    3.531980   -1.471117
     10          6           0      -24.495030    1.993795   -1.649170
     11          6           0      -25.058953    4.282425   -2.657076
     12          6           0      -24.182108    4.500067    0.885415
     13          6           0      -23.739360    5.932382    0.633640
     14          1           0      -23.904506    6.883388    1.743704
     15          7           0      -24.393521   -1.142786   -1.975744
     16          6           0      -23.901987   -0.159530   -2.878179
     17          6           0      -23.138411   -0.884230   -3.911318
     18          6           0      -23.474862   -2.227210   -3.762641
     19          6           0      -24.311701   -2.362785   -2.556625
     20          6           0      -22.354892   -0.141959   -4.973688
     21          6           0      -23.029135   -3.451658   -4.590879
     22          8           0      -23.560418   -4.575475   -4.516754
     23          6           0      -21.882502   -3.260460   -5.497532
     24          7           0      -26.069757   -2.799457   -0.159712
     25          6           0      -25.679031   -3.795954   -0.927460
     26          6           0      -26.314207   -5.159734   -0.540523
     27          6           0      -26.938466   -4.807221    0.811415
     28          6           0      -26.772812   -3.305648    0.861989
     29          6           0      -27.371753   -5.623347   -1.598366
     30          6           0      -26.359773   -5.489403    2.030481
     31          6           0      -27.365196   -6.003887    3.075969
     32          7           0      -26.605664   -0.253727    1.322466
     33          6           0      -27.358670   -1.099998    2.106730
     34          6           0      -28.019916   -0.360886    3.224195
     35          6           0      -27.663924    0.929391    2.886951
     36          6           0      -26.872585    0.972995    1.732752
     37          6           0      -28.715115   -0.913699    4.426731
     38          6           0      -27.834545    2.306061    3.327566
     39          8           0      -28.425371    2.704219    4.325113
     40          6           0      -27.059780    3.238839    2.368653
     41          6           0      -27.981112    4.271934    1.969418
     42          8           0      -28.915648    4.169383    1.138606
     43          8           0      -27.603932    5.469395    2.496949
     44          6           0      -28.230803    6.675155    2.001090
     45          1           0      -23.342790    1.819080   -3.311441
     46          1           0      -24.692091   -4.473768   -2.632123
     47          1           0      -28.219617   -3.109488    2.318840
     48          1           0      -25.965439    4.430575   -0.290963
     49          1           0      -23.325914    3.833396   -1.465842
     50          1           0      -24.515514    4.900197   -3.372708
     51          1           0      -25.776841    4.942813   -2.170893
     52          1           0      -25.730506    3.673475   -3.262897
     53          1           0      -23.221780    3.990189    0.964029
     54          1           0      -24.505744    4.319626    1.910128
     55          1           0      -24.291173    6.364723   -0.199692
     56          1           0      -22.651452    5.889453    0.588468
     57          1           0      -22.511869   -0.512091   -5.986618
     58          1           0      -21.278922   -0.125781   -4.801289
     59          1           0      -22.626010    0.907112   -5.094736
     60          1           0      -21.068281   -2.807849   -4.931414
     61          1           0      -22.281150   -2.556051   -6.226763
     62          1           0      -21.549687   -4.257440   -5.783908
     63          1           0      -25.485389   -5.862266   -0.446823
     64          1           0      -28.013260   -4.963734    0.898633
     65          1           0      -28.381957   -5.604896   -1.190477
     66          1           0      -27.202837   -6.657020   -1.900221
     67          1           0      -27.290738   -4.908120   -2.417035
     68          1           0      -25.636028   -4.856592    2.543154
     69          1           0      -25.646617   -6.201475    1.616460
     70          1           0      -26.891367   -6.848753    3.574808
     71          1           0      -28.355688   -6.192330    2.660677
     72          1           0      -27.458778   -5.129946    3.720273
     73          1           0      -28.106601   -0.923820    5.331196
     74          1           0      -29.133253   -1.865886    4.101478
     75          1           0      -29.652897   -0.376706    4.574538
     76          1           0      -26.350325    3.757065    3.013739
     77          1           0      -28.891180    6.526086    1.146403
     78          1           0      -27.484806    7.447089    1.814115
     79          1           0      -28.862275    7.146619    2.754582
     80         12           0       25.317986   -0.579143    0.494822
     81          6           0       25.496407    2.192222   -1.771740
     82          6           0       25.047973    1.539426    2.988883
     83          6           0       25.982797   -3.182009    2.435838
     84          6           0       26.009861   -2.691768   -2.435513
     85          7           0       25.231618    1.616867    0.574600
     86          6           0       25.352845    2.577986   -0.448679
     87          6           0       25.273550    4.065719    0.063667
     88          6           0       25.053426    3.745879    1.667062
     89          6           0       25.092214    2.226160    1.793361
     90          6           0       26.173904    4.413354    2.574510
     91          6           0       24.177691    4.963097   -0.609951
     92          6           0       23.815387    6.240376    0.138346
     93          1           0       24.205240    7.542086   -0.585635
     94          7           0       25.392326   -0.801376    2.458115
     95          6           0       25.235980    0.172894    3.415856
     96          6           0       25.298821   -0.359815    4.760518
     97          6           0       25.565338   -1.772249    4.561460
     98          6           0       25.584015   -1.973529    3.068766
     99          6           0       25.067348    0.368091    6.000255
    100          6           0       25.736861   -2.886289    5.579484
    101          8           0       25.837934   -4.046793    5.295351
    102          6           0       25.863196   -2.421282    7.005934
    103          7           0       25.977234   -2.640393    0.062655
    104          6           0       26.142445   -3.515474    1.086394
    105          6           0       26.460879   -4.938626    0.555027
    106          6           0       26.323873   -4.755478   -0.996495
    107          6           0       26.034169   -3.274972   -1.151937
    108          6           0       27.825330   -5.592138    0.962203
    109          6           0       25.209623   -5.609516   -1.698126
    110          6           0       25.607997   -7.088312   -1.899787
    111          7           0       25.702939   -0.381143   -1.629650
    112          6           0       25.877440   -1.284303   -2.652811
    113          6           0       25.902908   -0.589282   -3.877996
    114          6           0       25.820968    0.728618   -3.625080
    115          6           0       25.717417    0.859013   -2.206956
    116          6           0       25.942851   -1.333123   -5.206545
    117          6           0       25.842243    2.104478   -4.131866
    118          8           0       25.958328    2.523583   -5.254582
    119          6           0       25.650484    3.108573   -2.897390
    120          6           0       26.942237    3.840125   -2.716911
    121          8           0       27.944752    3.566049   -2.096523
    122          8           0       26.772492    5.023371   -3.408100
    123          6           0       27.903428    5.981461   -3.390984
    124          1           0       25.008236    2.163401    3.884033
    125          1           0       26.336890   -3.954970    3.122168
    126          1           0       26.106081   -3.462401   -3.203859
    127          1           0       26.270415    4.498168   -0.023640
    128          1           0       24.102561    4.186462    1.967709
    129          1           0       25.706475    4.872160    3.445640
    130          1           0       26.859902    5.131893    2.126739
    131          1           0       26.798438    3.644434    3.028247
    132          1           0       23.372726    4.232720   -0.701489
    133          1           0       24.317938    5.261371   -1.649155
    134          1           0       24.311844    6.236555    1.108307
    135          1           0       22.729606    6.320378    0.183256
    136          1           0       24.156843   -0.132398    6.329712
    137          1           0       24.964184    1.437446    5.815393
    138          1           0       25.801758    0.265760    6.798917
    139          1           0       24.881332   -2.439632    7.478719
    140          1           0       26.569753   -1.601352    7.137974
    141          1           0       26.576604   -3.128905    7.427391
    142          1           0       25.571138   -5.527248    0.780583
    143          1           0       27.306987   -4.869047   -1.453859
    144          1           0       28.490268   -5.872006    0.144602
    145          1           0       27.560240   -6.559159    1.389051
    146          1           0       28.437342   -5.007334    1.648887
    147          1           0       25.011074   -5.198332   -2.687243
    148          1           0       24.323199   -5.476169   -1.076428
    149          1           0       26.692490   -7.196915   -1.876190
    150          1           0       25.163485   -7.388028   -2.848755
    151          1           0       25.260992   -7.756140   -1.110744
    152          1           0       25.496232   -0.739546   -6.004304
    153          1           0       25.440194   -2.292768   -5.085630
    154          1           0       26.965798   -1.622249   -5.448575
    155          1           0       24.810267    3.785364   -3.054410
    156          1           0       27.950887    6.392390   -4.399364
    157          1           0       28.864046    5.537807   -3.129711
    158          1           0       27.521547    6.687889   -2.653291
 ---------------------------------------------------------------------

 SCF Done:  E(RPBE1PBE) =  -4067.39585405     A.U. after   16 cycles

 Excitation energies and oscillator strengths:

 Excited State   1:      Singlet-A      1.8601 eV  666.54 nm  f=0.3823  <S**2>=0.000
     310 -> 316        0.16833
     312 -> 313        0.69338
     312 <- 313       -0.10831
 This state for optimization and/or second-order correction.
 Total Energy, E(TD-HF/TD-DFT) =  -4067.32749558
 Copying the excited state density for this state as the 1-particle RhoCI density.

 Excited State   2:      Singlet-A      1.9171 eV  646.72 nm  f=0.3718  <S**2>=0.000
     309 -> 315       -0.19071
     311 -> 314        0.68790

 Excited State   3:      Singlet-A      2.0073 eV  617.68 nm  f=0.0000  <S**2>=0.000
     311 -> 313        0.70711

 Excited State   4:      Singlet-A      2.0796 eV  596.20 nm  f=0.0000  <S**2>=0.000
     312 -> 314        0.70711

 Excited State   5:      Singlet-A      2.2252 eV  557.19 nm  f=0.1307  <S**2>=0.000
     310 -> 313        0.65935
     312 -> 316       -0.23965

 The electronic state is 1-A.
 Alpha  occ. eigenvalues --  -46.92005 -46.91917 -19.25836 -19.24507 -19.20093
 Alpha  occ. eigenvalues --  -19.19305 -19.19231 -19.19189 -19.19104 -19.18873
 Alpha  occ. eigenvalues --  -14.41719 -14.41424 -14.40887 -14.40635 -14.39440
 Alpha  occ. eigenvalues --  -14.39291 -14.39278 -14.38532 -10.36138 -10.35948
 Alpha  occ. eigenvalues --  -10.32424 -10.32348 -10.31912 -10.31662 -10.28690
 Alpha  occ. eigenvalues --  -10.28622 -10.28473 -10.28454 -10.28423 -10.28421
 Alpha  occ. eigenvalues --  -10.28277 -10.28233 -10.28165 -10.28129 -10.28057
 Alpha  occ. eigenvalues --  -10.27976 -10.27874 -10.27838 -10.27835 -10.26886
 Alpha  occ. eigenvalues --  -10.26810 -10.26755 -10.26702 -10.26653 -10.26459
 Alpha  occ. eigenvalues --  -10.26208 -10.26142 -10.26098 -10.25926 -10.25842
 Alpha  occ. eigenvalues --  -10.25791 -10.25602 -10.25523 -10.25400 -10.25358
 Alpha  occ. eigenvalues --  -10.25031 -10.24980 -10.24962 -10.24939 -10.24775
 Alpha  occ. eigenvalues --  -10.24725 -10.24711 -10.24711 -10.24605 -10.24515
 Alpha  occ. eigenvalues --  -10.24451 -10.24445 -10.24444 -10.24409 -10.24395
 Alpha  occ. eigenvalues --  -10.23891 -10.23695 -10.23671 -10.23610 -10.23503
 Alpha  occ. eigenvalues --  -10.23498 -10.23427 -10.23402 -10.23340 -10.23277
 Alpha  occ. eigenvalues --  -10.23192 -10.23039 -10.23031 -10.23025 -10.22408
 Alpha  occ. eigenvalues --  -10.22367  -3.14127  -3.14101  -1.86964  -1.86951
 Alpha  occ. eigenvalues --   -1.86482  -1.86466  -1.86374  -1.86337  -1.10907
 Alpha  occ. eigenvalues --   -1.10420  -1.06149  -1.05539  -1.04246  -1.03736
 Alpha  occ. eigenvalues --   -1.02265  -1.00758  -1.00451  -0.99332  -0.98485
 Alpha  occ. eigenvalues --   -0.98008  -0.97697  -0.97145  -0.96828  -0.96218
 Alpha  occ. eigenvalues --   -0.87571  -0.87363  -0.84444  -0.83601  -0.83239
 Alpha  occ. eigenvalues --   -0.82797  -0.82552  -0.82321  -0.81882  -0.81500
 Alpha  occ. eigenvalues --   -0.81411  -0.81206  -0.80994  -0.80390  -0.79000
 Alpha  occ. eigenvalues --   -0.78358  -0.78209  -0.77479  -0.77233  -0.76766
 Alpha  occ. eigenvalues --   -0.76459  -0.76243  -0.75610  -0.75293  -0.75059
 Alpha  occ. eigenvalues --   -0.74442  -0.72957  -0.72447  -0.72054  -0.71781
 Alpha  occ. eigenvalues --   -0.71308  -0.70941  -0.70892  -0.69859  -0.69623
 Alpha  occ. eigenvalues --   -0.69217  -0.67486  -0.67223  -0.66429  -0.65750
 Alpha  occ. eigenvalues --   -0.63977  -0.63947  -0.63672  -0.63140  -0.62517
 Alpha  occ. eigenvalues --   -0.62208  -0.61455  -0.60956  -0.60872  -0.59870
 Alpha  occ. eigenvalues --   -0.59676  -0.59542  -0.59154  -0.59139  -0.58830
 Alpha  occ. eigenvalues --   -0.58475  -0.57161  -0.56029  -0.54944  -0.54649
 Alpha  occ. eigenvalues --   -0.54521  -0.54086  -0.54083  -0.53424  -0.53372
 Alpha  occ. eigenvalues --   -0.52875  -0.52682  -0.52509  -0.52251  -0.51544
 Alpha  occ. eigenvalues --   -0.51081  -0.50719  -0.50274  -0.50177  -0.50112
 Alpha  occ. eigenvalues --   -0.49609  -0.49031  -0.48988  -0.48837  -0.48592
 Alpha  occ. eigenvalues --   -0.48540  -0.48461  -0.48281  -0.47961  -0.47765
 Alpha  occ. eigenvalues --   -0.47487  -0.47319  -0.46967  -0.46668  -0.46542
 Alpha  occ. eigenvalues --   -0.46511  -0.46258  -0.46252  -0.45939  -0.45814
 Alpha  occ. eigenvalues --   -0.45487  -0.45442  -0.45145  -0.45055  -0.44889
 Alpha  occ. eigenvalues --   -0.44844  -0.44611  -0.44441  -0.44260  -0.44255
 Alpha  occ. eigenvalues --   -0.44075  -0.43775  -0.43656  -0.43421  -0.43301
 Alpha  occ. eigenvalues --   -0.43094  -0.43049  -0.43012  -0.42670  -0.42592
 Alpha  occ. eigenvalues --   -0.42499  -0.42429  -0.42414  -0.42038  -0.41922
 Alpha  occ. eigenvalues --   -0.41782  -0.41725  -0.41441  -0.41300  -0.41033
 Alpha  occ. eigenvalues --   -0.40983  -0.40868  -0.40601  -0.40422  -0.40409
 Alpha  occ. eigenvalues --   -0.40241  -0.40008  -0.39973  -0.39936  -0.39897
 Alpha  occ. eigenvalues --   -0.39789  -0.39647  -0.39505  -0.39349  -0.38786
 Alpha  occ. eigenvalues --   -0.38748  -0.38662  -0.38581  -0.38531  -0.38298
 Alpha  occ. eigenvalues --   -0.38143  -0.38048  -0.38026  -0.37647  -0.37444
 Alpha  occ. eigenvalues --   -0.37367  -0.37227  -0.36941  -0.36940  -0.36743
 Alpha  occ. eigenvalues --   -0.36611  -0.36485  -0.36459  -0.36394  -0.36096
 Alpha  occ. eigenvalues --   -0.36002  -0.35955  -0.35801  -0.35759  -0.35636
 Alpha  occ. eigenvalues --   -0.35381  -0.35061  -0.34917  -0.34366  -0.33804
 Alpha  occ. eigenvalues --   -0.33759  -0.33115  -0.32933  -0.32790  -0.32143
 Alpha  occ. eigenvalues --   -0.32095  -0.31511  -0.31443  -0.31087  -0.31010
 Alpha  occ. eigenvalues --   -0.30674  -0.30611  -0.29418  -0.29141  -0.29091
 Alpha  occ. eigenvalues --   -0.28598  -0.28274  -0.28205  -0.27188  -0.26884
 Alpha  occ. eigenvalues --   -0.26216  -0.25895  -0.25792  -0.25771  -0.25758
 Alpha  occ. eigenvalues --   -0.25498  -0.25422  -0.25370  -0.21028  -0.20585
 Alpha  occ. eigenvalues --   -0.18625  -0.18613
 Alpha virt. eigenvalues --   -0.10991  -0.10713  -0.05258  -0.04736  -0.03525
 Alpha virt. eigenvalues --   -0.03326  -0.01935  -0.01789  -0.00250  -0.00149
 Alpha virt. eigenvalues --    0.00362   0.00803   0.01391   0.01428   0.02056

 Mulliken charges:
               1
     1  Mg  12.000009
     2  C    5.999882
     3  C    5.999957
     4  C    6.000101
     5  C    6.000034
     6  N    7.000012
     7  C    6.000092
     8  C    5.999940
     9  C    6.000016
    10  C    5.999935
    11  C    6.000022
    12  C    5.999982
    13  C    6.000000
    14  H    1.000013
    15  N    7.000001
    16  C    5.999894
    17  C    6.000004
    18  C    5.999960
    19  C    5.999864
    20  C    6.000010
    21  C    5.999911
    22  O    7.999937
    23  C    6.000012
    24  N    6.999960
    25  C    5.999922
    26  C    6.000023
    27  C    6.000008
    28  C    6.000102
    29  C    6.000013
    30  C    5.999974
    31  C    6.000014
    32  N    6.999989
    33  C    6.000119
    34  C    6.000127
    35  C    5.999926
    36  C    6.000210
    37  C    5.999982
    38  C    6.000045
    39  O    8.000087
    40  C    6.000011
    41  C    6.000022
    42  O    7.999970
    43  O    8.000042
    44  C    5.999979
    45  H    0.999940
    46  H    1.000004
    47  H    1.000044
    48  H    0.999996
    49  H    0.999998
    50  H    0.999980
    51  H    0.999956
    52  H    0.999997
    53  H    1.000034
    54  H    0.999991
    55  H    0.999997
    56  H    1.000017
    57  H    0.999927
    58  H    0.999924
    59  H    0.999925
    60  H    0.999972
    61  H    0.999957
    62  H    0.999939
    63  H    1.000006
    64  H    0.999991
    65  H    0.999963
    66  H    0.999988
    67  H    1.000005
    68  H    1.000005
    69  H    1.000042
    70  H    1.000025
    71  H    1.000002
    72  H    0.999983
    73  H    1.000087
    74  H    1.000059
    75  H    1.000049
    76  H    1.000036
    77  H    1.000002
    78  H    1.000023
    79  H    1.000020
    80  Mg  12.001078
    81  C    5.976182
    82  C    6.005201
    83  C    6.016790
    84  C    5.992149
    85  N    6.989801
    86  C    6.030638
    87  C    5.984749
    88  C    6.013279
    89  C    5.972987
    90  C    6.000349
    91  C    5.997305
    92  C    6.001705
    93  H    0.999597
    94  N    7.004300
    95  C    5.962121
    96  C    5.983204
    97  C    5.981912
    98  C    5.972214
    99  C    6.004385
   100  C    5.984879
   101  O    7.970483
   102  C    6.008662
   103  N    7.001949
   104  C    5.967301
   105  C    6.011547
   106  C    5.990684
   107  C    6.029820
   108  C    6.000536
   109  C    5.993516
   110  C    6.001938
   111  N    6.999545
   112  C    6.031068
   113  C    6.028255
   114  C    5.999848
   115  C    6.038537
   116  C    5.999356
   117  C    6.018990
   118  O    8.028846
   119  C    6.005557
   120  C    5.999940
   121  O    8.008420
   122  O    8.000878
   123  C    5.998207
   124  H    0.990409
   125  H    0.995514
   126  H    1.010751
   127  H    1.004434
   128  H    0.995698
   129  H    0.999877
   130  H    0.988633
   131  H    1.005665
   132  H    1.001634
   133  H    0.994985
   134  H    1.006878
   135  H    1.002162
   136  H    0.983354
   137  H    0.983014
   138  H    0.981557
   139  H    0.989472
   140  H    0.993245
   141  H    0.985690
   142  H    1.000098
   143  H    0.999486
   144  H    0.991425
   145  H    0.999446
   146  H    1.004710
   147  H    0.994631
   148  H    1.008693
   149  H    1.002776
   150  H    1.000056
   151  H    1.006816
   152  H    1.013819
   153  H    1.016298
   154  H    1.019936
   155  H    1.008277
   156  H    1.002520
   157  H    1.003178
   158  H    1.006157
 Sum of Mulliken charges = 624.00000

 Dipole moment (field-independent basis, Debye):
    X=              0.5744    Y=              1.3629    Z=            -10.3058  Tot=             10.4114
 Quadrupole moment (field-independent basis, Debye-Ang):
   XX=             31.5708   YY=              2.6430   ZZ=            -11.3946
   XY=             36.0460   XZ=           -266.3882   YZ=              6.1828

 Normal termination of Gaussian 16 at Fri Oct 15 04:56:08 2021.
