 Gaussian 16, Revision A.03,
 Gaussian 16:  ES64L-G16RevA.03 25-Dec-2016

 --------------------------------------------------------
 #p PBE1PBE/Def2SVP td=(nstates=5) density=(transition=1)
 --------------------------------------------------------

 --------------------------------
 TDDFT excited states in gaussian
 --------------------------------
 Symbolic Z-matrix:
 Charge =  0 Multiplicity = 1

                         Standard orientation:
 ---------------------------------------------------------------------
 Center     Atomic      Atomic             Coordinates (Angstroms)
 Number     Number       Type             X           Y           Z
 ---------------------------------------------------------------------
      1         12           0      -11.823133    0.160623   -0.543995
      2          6           0       -8.961454   -1.901764   -0.435662
      3          6           0      -13.706994   -2.484425    0.729768
      4          6           0      -14.228084    2.429621    0.281980
      5          6           0       -9.599255    2.852985   -1.341120
      6          7           0      -11.374730   -1.910128    0.022966
      7          6           0      -10.166355   -2.511811    0.011667
      8          6           0      -10.244452   -3.940963    0.640640
      9          6           0      -11.825270   -4.172163    0.624275
     10          6           0      -12.398605   -2.734341    0.407370
     11          6           0      -12.482822   -5.078389   -0.441133
     12          6           0       -9.607219   -3.899360    2.080929
     13          6           0       -8.829916   -5.188287    2.467118
     14          1           0       -9.020154   -5.679314    3.959886
     15          7           0      -13.841742   -0.021304    0.213037
     16          6           0      -14.389800   -1.210550    0.614702
     17          6           0      -15.725845   -0.935335    0.985432
     18          6           0      -15.935674    0.475282    0.949922
     19          6           0      -14.657679    1.053380    0.414699
     20          6           0      -16.728567   -1.969209    1.440517
     21          6           0      -17.111785    1.218566    1.485207
     22          8           0      -18.012986    0.655015    2.085201
     23          6           0      -17.281918    2.646757    1.420777
     24          7           0      -11.825234    2.378139   -0.441751
     25          6           0      -13.042618    3.038807   -0.220108
     26          6           0      -12.906895    4.501853   -0.505360
     27          6           0      -11.412940    4.682287   -0.965228
     28          6           0      -10.892374    3.255932   -0.923369
     29          6           0      -13.946807    4.903458   -1.559190
     30          6           0      -10.648651    5.829147   -0.202592
     31          6           0      -10.050824    6.918392   -1.040532
     32          7           0       -9.682051    0.471496   -0.881485
     33          6           0       -8.987804    1.600171   -1.242114
     34          6           0       -7.584049    1.261762   -1.564113
     35          6           0       -7.562928   -0.105632   -1.181169
     36          6           0       -8.840726   -0.532990   -0.872440
     37          6           0       -6.437654    2.173252   -1.973192
     38          6           0       -6.662589   -1.201943   -0.941036
     39          8           0       -5.426759   -1.253740   -1.040521
     40          6           0       -7.470001   -2.414244   -0.477809
     41          6           0       -7.231353   -3.580366   -1.348621
     42          8           0       -6.803648   -4.598675   -0.940332
     43          8           0       -7.732105   -3.433592   -2.609845
     44          6           0       -7.695317   -4.718997   -3.340523
     45          1           0      -14.342942   -3.311186    1.054440
     46          1           0      -15.074134    3.089882    0.479022
     47          1           0       -8.774229    3.538325   -1.549042
     48          1           0       -9.697946   -4.625636   -0.008172
     49          1           0      -12.283223   -4.324107    1.601530
     50          1           0      -11.865365   -5.117636   -1.339245
     51          1           0      -13.503063   -4.825646   -0.729981
     52          1           0      -12.484395   -6.080005   -0.012496
     53          1           0      -10.362955   -3.667802    2.832030
     54          1           0       -8.919904   -3.053901    2.049441
     55          1           0       -7.789850   -4.916295    2.286309
     56          1           0       -9.144577   -5.894773    1.698706
     57          1           0      -17.780063   -1.698763    1.343147
     58          1           0      -16.472263   -2.124132    2.488218
     59          1           0      -16.560637   -2.992661    1.105131
     60          1           0      -17.303936    2.912607    0.363148
     61          1           0      -16.495375    3.162938    1.971988
     62          1           0      -18.232927    2.901635    1.888545
     63          1           0      -12.966430    5.079408    0.416819
     64          1           0      -11.223603    4.801327   -2.032264
     65          1           0      -14.727193    4.155498   -1.701467
     66          1           0      -13.493953    5.041852   -2.540960
     67          1           0      -14.556391    5.720507   -1.174408
     68          1           0       -9.872593    5.310103    0.359941
     69          1           0      -11.287007    6.434786    0.439647
     70          1           0       -8.993748    6.976424   -0.782462
     71          1           0      -10.479170    7.892960   -0.805621
     72          1           0      -10.259489    6.805824   -2.104478
     73          1           0       -5.963718    2.661831   -1.121613
     74          1           0       -6.717611    2.901270   -2.735621
     75          1           0       -5.711196    1.440921   -2.325181
     76          1           0       -7.092246   -2.759646    0.483674
     77          1           0       -8.105039   -4.544908   -4.335812
     78          1           0       -8.271839   -5.478849   -2.813117
     79          1           0       -6.692150   -5.077312   -3.568945
     80         12           0       10.965869    0.822395    0.030080
     81          6           0       12.226789   -2.398449    0.128984
     82          6           0        8.050298   -0.301669    1.513214
     83          6           0       10.126551    4.043374    0.591931
     84          6           0       14.137776    1.807356   -1.155879
     85          7           0       10.341400   -1.096792    1.002212
     86          6           0       10.953494   -2.250448    0.720719
     87          6           0       10.209264   -3.433300    1.414022
     88          6           0        8.750352   -2.802179    1.608206
     89          6           0        9.017161   -1.282025    1.286345
     90          6           0        7.665687   -3.521922    0.770962
     91          6           0       10.833249   -3.734220    2.757713
     92          6           0       10.962064   -5.209180    3.104857
     93          1           0       10.747432   -5.764360    4.563226
     94          7           0        9.185264    1.717863    0.795807
     95          6           0        8.147377    1.130433    1.415869
     96          6           0        7.210469    2.153966    1.748650
     97          6           0        7.708237    3.425315    1.330581
     98          6           0        9.057227    3.121316    0.837372
     99          6           0        5.852680    1.831665    2.253477
    100          6           0        7.026313    4.719222    1.601141
    101          8           0        5.923636    4.733994    2.122493
    102          6           0        7.639875    6.048931    1.179244
    103          7           0       12.019650    2.734154   -0.345713
    104          6           0       11.427641    3.890409    0.065209
    105          6           0       12.395540    5.027353    0.009236
    106          6           0       13.696093    4.281104   -0.553823
    107          6           0       13.298055    2.844247   -0.783583
    108          6           0       11.917697    6.243136   -0.806630
    109          6           0       15.015639    4.418648    0.327551
    110          6           0       16.342936    4.889053   -0.312466
    111          7           0       12.777702   -0.056272   -0.445255
    112          6           0       13.924380    0.448711   -0.972863
    113          6           0       14.718447   -0.584952   -1.471393
    114          6           0       14.103997   -1.771670   -1.096462
    115          6           0       12.972748   -1.399186   -0.414620
    116          6           0       16.093583   -0.382263   -2.172609
    117          6           0       14.163738   -3.157410   -1.136639
    118          8           0       15.079050   -3.862618   -1.546564
    119          6           0       12.935287   -3.734656   -0.281189
    120          6           0       12.028919   -4.472311   -1.085098
    121          8           0       11.172428   -4.096892   -1.889201
    122          8           0       12.260626   -5.812592   -0.791471
    123          6           0       11.497307   -6.860675   -1.447000
    124          1           0        7.073535   -0.668924    1.834232
    125          1           0        9.995014    5.121538    0.708717
    126          1           0       15.046418    2.216936   -1.602292
    127          1           0       10.274989   -4.299491    0.756204
    128          1           0        8.426179   -2.744463    2.646777
    129          1           0        8.097395   -4.271072    0.107550
    130          1           0        7.109233   -2.787192    0.188168
    131          1           0        6.954328   -3.963514    1.468484
    132          1           0       10.402657   -3.250439    3.634674
    133          1           0       11.794376   -3.220928    2.728813
    134          1           0       11.929049   -5.531866    2.719338
    135          1           0       10.204361   -5.643262    2.452529
    136          1           0        5.243179    1.892470    1.352054
    137          1           0        5.531889    2.538073    3.019341
    138          1           0        5.782434    0.836161    2.691945
    139          1           0        8.383496    6.283503    1.941041
    140          1           0        6.855980    6.791740    1.325007
    141          1           0        8.049479    5.983761    0.171319
    142          1           0       12.472875    5.259147    1.071002
    143          1           0       14.043300    4.729138   -1.484869
    144          1           0       11.665235    7.011073   -0.074694
    145          1           0       11.074786    6.012798   -1.459022
    146          1           0       12.747901    6.629214   -1.397574
    147          1           0       15.234496    3.444994    0.765722
    148          1           0       14.910123    5.139859    1.138295
    149          1           0       16.750760    3.922404   -0.607768
    150          1           0       16.993495    5.327489    0.443161
    151          1           0       16.335147    5.417482   -1.265685
    152          1           0       16.829106   -0.113159   -1.415603
    153          1           0       16.152021    0.439467   -2.886628
    154          1           0       16.420979   -1.300916   -2.660213
    155          1           0       13.385064   -4.304715    0.531875
    156          1           0       12.150949   -7.729163   -1.522061
    157          1           0       11.027842   -6.574284   -2.388484
    158          1           0       10.719345   -7.180159   -0.753454
 ---------------------------------------------------------------------

 SCF Done:  E(RPBE1PBE) =  -4067.33187085     A.U. after   16 cycles

 Excitation energies and oscillator strengths:

 Excited State   1:      Singlet-A      1.8377 eV  674.68 nm  f=0.0000  <S**2>=0.000
     312 -> 313        0.70708
 This state for optimization and/or second-order correction.
 Total Energy, E(TD-HF/TD-DFT) =  -4067.26433797
 Copying the excited state density for this state as the 1-particle RhoCI density.

 Excited State   2:      Singlet-A      1.8455 eV  671.82 nm  f=0.5674  <S**2>=0.000
     309 -> 315       -0.16144
     311 -> 313        0.66597
     312 -> 314        0.19587
     311 <- 313       -0.10829

 Excited State   3:      Singlet-A      1.8619 eV  665.90 nm  f=0.2289  <S**2>=0.000
     310 -> 316       -0.17106
     311 -> 313       -0.19584
     312 -> 314        0.66403
     312 <- 314       -0.10595

 Excited State   4:      Singlet-A      1.9289 eV  642.76 nm  f=0.0000  <S**2>=0.000
     311 -> 314        0.70709

 Excited State   5:      Singlet-A      2.2124 eV  560.40 nm  f=0.1015  <S**2>=0.000
     309 -> 313        0.65142
     311 -> 315        0.25512

 The electronic state is 1-A.
 Alpha  occ. eigenvalues --  -46.94158 -46.92951 -19.25681 -19.25147 -19.20222
 Alpha  occ. eigenvalues --  -19.20081 -19.19405 -19.18941 -19.18493 -19.17597
 Alpha  occ. eigenvalues --  -14.42382 -14.42261 -14.41759 -14.41396 -14.39553
 Alpha  occ. eigenvalues --  -14.39352 -14.38842 -14.38769 -10.36400 -10.35678
 Alpha  occ. eigenvalues --  -10.32251 -10.31787 -10.31677 -10.30660 -10.29893
 Alpha  occ. eigenvalues --  -10.29634 -10.29615 -10.29152 -10.29024 -10.29002
 Alpha  occ. eigenvalues --  -10.28934 -10.28861 -10.28767 -10.28764 -10.28656
 Alpha  occ. eigenvalues --  -10.28520 -10.27756 -10.27638 -10.27365 -10.27008
 Alpha  occ. eigenvalues --  -10.26835 -10.26809 -10.26805 -10.26583 -10.26266
 Alpha  occ. eigenvalues --  -10.26250 -10.26226 -10.26218 -10.26185 -10.26117
 Alpha  occ. eigenvalues --  -10.26066 -10.26060 -10.26007 -10.25990 -10.25858
 Alpha  occ. eigenvalues --  -10.25852 -10.25846 -10.25783 -10.25547 -10.25530
 Alpha  occ. eigenvalues --  -10.25357 -10.25351 -10.25277 -10.24946 -10.24942
 Alpha  occ. eigenvalues --  -10.24530 -10.24517 -10.24480 -10.24383 -10.24383
 Alpha  occ. eigenvalues --  -10.24317 -10.24281 -10.24254 -10.23998 -10.23883
 Alpha  occ. eigenvalues --  -10.23861 -10.23512 -10.23286 -10.23261 -10.23133
 Alpha  occ. eigenvalues --  -10.23105 -10.23002 -10.22793 -10.22618 -10.22424
 Alpha  occ. eigenvalues --  -10.22236  -3.15897  -3.14860  -1.88748  -1.88250
 Alpha  occ. eigenvalues --   -1.88112  -1.87713  -1.87228  -1.87075  -1.12690
 Alpha  occ. eigenvalues --   -1.10315  -1.04686  -1.04643  -1.04335  -1.03835
 Alpha  occ. eigenvalues --   -1.03549  -1.02148  -1.00084  -0.99694  -0.98590
 Alpha  occ. eigenvalues --   -0.98377  -0.98363  -0.97986  -0.97229  -0.97196
 Alpha  occ. eigenvalues --   -0.88165  -0.86896  -0.83708  -0.83661  -0.83324
 Alpha  occ. eigenvalues --   -0.83258  -0.82601  -0.82520  -0.82315  -0.82128
 Alpha  occ. eigenvalues --   -0.81225  -0.81130  -0.80431  -0.80179  -0.79605
 Alpha  occ. eigenvalues --   -0.79133  -0.78888  -0.78795  -0.77222  -0.76974
 Alpha  occ. eigenvalues --   -0.76717  -0.76356  -0.75721  -0.75183  -0.74984
 Alpha  occ. eigenvalues --   -0.74883  -0.72951  -0.72423  -0.71863  -0.71827
 Alpha  occ. eigenvalues --   -0.71155  -0.70755  -0.70754  -0.70669  -0.69777
 Alpha  occ. eigenvalues --   -0.69414  -0.67825  -0.67557  -0.66947  -0.66756
 Alpha  occ. eigenvalues --   -0.64216  -0.63749  -0.63588  -0.63571  -0.62430
 Alpha  occ. eigenvalues --   -0.62382  -0.61653  -0.61296  -0.60727  -0.60460
 Alpha  occ. eigenvalues --   -0.60211  -0.60120  -0.59947  -0.59552  -0.59311
 Alpha  occ. eigenvalues --   -0.59184  -0.57793  -0.57125  -0.54943  -0.54634
 Alpha  occ. eigenvalues --   -0.54515  -0.54400  -0.53594  -0.53546  -0.53455
 Alpha  occ. eigenvalues --   -0.53397  -0.52824  -0.52715  -0.52508  -0.51627
 Alpha  occ. eigenvalues --   -0.50973  -0.50827  -0.50577  -0.50547  -0.50141
 Alpha  occ. eigenvalues --   -0.49981  -0.49597  -0.49272  -0.49072  -0.48810
 Alpha  occ. eigenvalues --   -0.48168  -0.48117  -0.47953  -0.47861  -0.47731
 Alpha  occ. eigenvalues --   -0.47373  -0.47065  -0.47060  -0.46846  -0.46802
 Alpha  occ. eigenvalues --   -0.46624  -0.46407  -0.46275  -0.46242  -0.45996
 Alpha  occ. eigenvalues --   -0.45978  -0.45839  -0.45724  -0.45528  -0.44917
 Alpha  occ. eigenvalues --   -0.44681  -0.44602  -0.44472  -0.44431  -0.44180
 Alpha  occ. eigenvalues --   -0.44133  -0.43968  -0.43867  -0.43639  -0.43616
 Alpha  occ. eigenvalues --   -0.43555  -0.43212  -0.43049  -0.42914  -0.42819
 Alpha  occ. eigenvalues --   -0.42751  -0.42215  -0.42122  -0.41958  -0.41619
 Alpha  occ. eigenvalues --   -0.41530  -0.41498  -0.41400  -0.41394  -0.41304
 Alpha  occ. eigenvalues --   -0.41231  -0.41052  -0.40986  -0.40718  -0.40557
 Alpha  occ. eigenvalues --   -0.40462  -0.40429  -0.40102  -0.39972  -0.39897
 Alpha  occ. eigenvalues --   -0.39767  -0.39675  -0.39629  -0.39443  -0.39370
 Alpha  occ. eigenvalues --   -0.39185  -0.39113  -0.38802  -0.38587  -0.38434
 Alpha  occ. eigenvalues --   -0.38342  -0.38197  -0.38162  -0.37852  -0.37819
 Alpha  occ. eigenvalues --   -0.37674  -0.37634  -0.37470  -0.37025  -0.36938
 Alpha  occ. eigenvalues --   -0.36764  -0.36681  -0.36600  -0.36567  -0.36289
 Alpha  occ. eigenvalues --   -0.36133  -0.35888  -0.35769  -0.35553  -0.35119
 Alpha  occ. eigenvalues --   -0.34974  -0.34541  -0.34510  -0.34123  -0.33603
 Alpha  occ. eigenvalues --   -0.33145  -0.33073  -0.32862  -0.32861  -0.32519
 Alpha  occ. eigenvalues --   -0.32306  -0.32201  -0.32124  -0.31918  -0.31398
 Alpha  occ. eigenvalues --   -0.31033  -0.30575  -0.29779  -0.29696  -0.29438
 Alpha  occ. eigenvalues --   -0.29318  -0.29017  -0.28926  -0.27328  -0.27104
 Alpha  occ. eigenvalues --   -0.26309  -0.25934  -0.25814  -0.25669  -0.25389
 Alpha  occ. eigenvalues --   -0.25023  -0.24971  -0.24573  -0.21413  -0.21393
 Alpha  occ. eigenvalues --   -0.19211  -0.19099
 Alpha virt. eigenvalues --   -0.11745  -0.11535  -0.05720  -0.05654  -0.04290
 Alpha virt. eigenvalues --   -0.03863  -0.01988  -0.01970  -0.01497  -0.00308
 Alpha virt. eigenvalues --   -0.00092   0.00605   0.00605   0.01323   0.01458

 Mulliken charges:
               1
     1  Mg  12.000000
     2  C    6.000000
     3  C    6.000000
     4  C    6.000000
     5  C    6.000000
     6  N    7.000000
     7  C    6.000000
     8  C    6.000000
     9  C    6.000000
    10  C    6.000000
    11  C    6.000000
    12  C    6.000000
    13  C    6.000000
    14  H    1.000000
    15  N    7.000000
    16  C    6.000000
    17  C    6.000000
    18  C    6.000000
    19  C    6.000000
    20  C    6.000000
    21  C    6.000000
    22  O    8.000000
    23  C    6.000000
    24  N    7.000000
    25  C    6.000000
    26  C    6.000000
    27  C    6.000000
    28  C    6.000000
    29  C    6.000000
    30  C    6.000000
    31  C    6.000000
    32  N    7.000000
    33  C    6.000000
    34  C    6.000000
    35  C    6.000000
    36  C    6.000000
    37  C    6.000000
    38  C    6.000000
    39  O    8.000000
    40  C    6.000000
    41  C    6.000000
    42  O    8.000000
    43  O    8.000000
    44  C    6.000000
    45  H    1.000000
    46  H    1.000000
    47  H    1.000000
    48  H    1.000000
    49  H    1.000000
    50  H    1.000000
    51  H    1.000000
    52  H    1.000000
    53  H    1.000000
    54  H    1.000000
    55  H    1.000000
    56  H    1.000000
    57  H    1.000000
    58  H    1.000000
    59  H    1.000000
    60  H    1.000000
    61  H    1.000000
    62  H    1.000000
    63  H    1.000000
    64  H    1.000000
    65  H    1.000000
    66  H    1.000000
    67  H    1.000000
    68  H    1.000000
    69  H    1.000000
    70  H    1.000000
    71  H    1.000000
    72  H    1.000000
    73  H    1.000000
    74  H    1.000000
    75  H    1.000000
    76  H    1.000000
    77  H    1.000000
    78  H    1.000000
    79  H    1.000000
    80  Mg  12.000000
    81  C    6.000000
    82  C    6.000000
    83  C    6.000000
    84  C    6.000000
    85  N    7.000000
    86  C    6.000000
    87  C    6.000000
    88  C    6.000000
    89  C    6.000000
    90  C    6.000000
    91  C    6.000000
    92  C    6.000000
    93  H    1.000000
    94  N    7.000000
    95  C    6.000000
    96  C    6.000000
    97  C    6.000000
    98  C    6.000000
    99  C    6.000000
   100  C    6.000000
   101  O    8.000000
   102  C    6.000000
   103  N    7.000000
   104  C    6.000000
   105  C    6.000000
   106  C    6.000000
   107  C    6.000000
   108  C    6.000000
   109  C    6.000000
   110  C    6.000000
   111  N    7.000000
   112  C    6.000000
   113  C    6.000000
   114  C    6.000000
   115  C    6.000000
   116  C    6.000000
   117  C    6.000000
   118  O    8.000000
   119  C    6.000000
   120  C    6.000000
   121  O    8.000000
   122  O    8.000000
   123  C    6.000000
   124  H    1.000000
   125  H    1.000000
   126  H    1.000000
   127  H    1.000000
   128  H    1.000000
   129  H    1.000000
   130  H    1.000000
   131  H    1.000000
   132  H    1.000000
   133  H    1.000000
   134  H    1.000000
   135  H    1.000000
   136  H    1.000000
   137  H    1.000000
   138  H    1.000000
   139  H    1.000000
   140  H    1.000000
   141  H    1.000000
   142  H    1.000000
   143  H    1.000000
   144  H    1.000000
   145  H    1.000000
   146  H    1.000000
   147  H    1.000000
   148  H    1.000000
   149  H    1.000000
   150  H    1.000000
   151  H    1.000000
   152  H    1.000000
   153  H    1.000000
   154  H    1.000000
   155  H    1.000000
   156  H    1.000000
   157  H    1.000000
   158  H    1.000000
 Sum of Mulliken charges = 624.00000

 Dipole moment (field-independent basis, Debye):
    X=             -0.0000    Y=              0.0000    Z=              0.0000  Tot=              0.0000
 Quadrupole moment (field-independent basis, Debye-Ang):
   XX=              0.0000   YY=             -0.0000   ZZ=             -0.0000
   XY=              0.0000   XZ=             -0.0000   YZ=              0.0000

 Normal termination of Gaussian 16 at Thu Oct 14 05:01:58 2021.
