 Gaussian 16, Revision A.03,
 Gaussian 16:  ES64L-G16RevA.03 25-Dec-2016

 --------------------------------------------------------
 #p PBE1PBE/Def2SVP td=(nstates=5) density=(transition=1)
 --------------------------------------------------------

 --------------------------------
 TDDFT excited states in gaussian
 --------------------------------
 Symbolic Z-matrix:
 Charge =  0 Multiplicity = 1

                         Standard orientation:
 ---------------------------------------------------------------------
 Center     Atomic      Atomic             Coordinates (Angstroms)
 Number     Number       Type             X           Y           Z
 ---------------------------------------------------------------------
      1         12           0      -29.887274    0.341587    0.281408
      2          6           0      -27.825379   -1.752413   -1.676647
      3          6           0      -29.864755    2.679489   -2.210954
      4          6           0      -31.219758    2.468763    2.419093
      5          6           0      -29.431617   -1.934513    2.964242
      6          7           0      -29.027319    0.369179   -1.767162
      7          6           0      -28.272714   -0.567221   -2.307437
      8          6           0      -28.191184   -0.309384   -3.801181
      9          6           0      -28.424986    1.246592   -3.910953
     10          6           0      -29.154156    1.485223   -2.536346
     11          6           0      -27.072026    2.015187   -4.160974
     12          6           0      -29.300471   -1.048128   -4.593143
     13          6           0      -29.014769   -1.262956   -6.144313
     14          1           0      -27.741284   -0.739126   -6.813638
     15          7           0      -30.634887    2.193516    0.071364
     16          6           0      -30.616602    3.029075   -1.074777
     17          6           0      -31.368471    4.265806   -0.758073
     18          6           0      -31.695192    4.231045    0.645092
     19          6           0      -31.198700    2.934135    1.154125
     20          6           0      -31.691743    5.318218   -1.759091
     21          6           0      -32.451057    5.238656    1.596044
     22          8           0      -32.728611    5.001220    2.779519
     23          6           0      -32.732867    6.622069    1.085664
     24          7           0      -30.176980    0.325904    2.450392
     25          6           0      -30.792523    1.294630    3.074756
     26          6           0      -31.026536    1.066031    4.541758
     27          6           0      -30.438152   -0.374214    4.746218
     28          6           0      -30.062053   -0.748836    3.277422
     29          6           0      -30.477059    2.215264    5.391963
     30          6           0      -31.413488   -1.383167    5.339410
     31          6           0      -30.832696   -2.386304    6.399413
     32          7           0      -28.903357   -1.557834    0.645783
     33          6           0      -28.852992   -2.375697    1.791609
     34          6           0      -28.239861   -3.611111    1.443218
     35          6           0      -27.653901   -3.379098    0.158065
     36          6           0      -28.118268   -2.168843   -0.291069
     37          6           0      -28.272269   -4.868000    2.264572
     38          6           0      -26.906643   -3.910148   -1.007282
     39          8           0      -26.338785   -4.972790   -1.151464
     40          6           0      -26.805083   -2.740004   -2.097343
     41          6           0      -26.753407   -3.307424   -3.478089
     42          8           0      -27.593998   -3.970828   -4.010037
     43          8           0      -25.512040   -3.051902   -4.090109
     44          6           0      -25.034338   -4.058256   -5.061964
     45          1           0      -29.743108    3.541475   -2.870872
     46          1           0      -31.773780    3.035163    3.169755
     47          1           0      -29.376067   -2.646929    3.790063
     48          1           0      -27.237963   -0.762916   -4.072599
     49          1           0      -29.104689    1.493466   -4.727219
     50          1           0      -26.239344    1.313247   -4.191012
     51          1           0      -26.922767    2.569536   -3.234385
     52          1           0      -27.034760    2.584105   -5.090060
     53          1           0      -30.175883   -0.406223   -4.486438
     54          1           0      -29.477058   -1.996490   -4.085798
     55          1           0      -29.885547   -0.832944   -6.641560
     56          1           0      -29.086343   -2.341072   -6.290036
     57          1           0      -31.521007    5.116797   -2.816013
     58          1           0      -31.112946    6.228349   -1.604256
     59          1           0      -32.763848    5.471258   -1.633031
     60          1           0      -33.671448    6.711556    0.538917
     61          1           0      -31.842064    6.765406    0.472852
     62          1           0      -32.694801    7.274968    1.957226
     63          1           0      -32.115170    1.046803    4.591140
     64          1           0      -29.546384   -0.403274    5.371114
     65          1           0      -29.661444    2.763656    4.919643
     66          1           0      -30.062052    1.738256    6.278966
     67          1           0      -31.244251    2.938950    5.668156
     68          1           0      -31.864060   -1.998392    4.560759
     69          1           0      -32.258568   -0.772608    5.657109
     70          1           0      -29.747670   -2.310337    6.468389
     71          1           0      -31.088497   -3.370209    6.006778
     72          1           0      -31.212348   -2.350633    7.421065
     73          1           0      -27.983906   -4.552149    3.267278
     74          1           0      -27.580181   -5.643492    1.935848
     75          1           0      -29.294199   -5.243046    2.328726
     76          1           0      -25.815146   -2.290178   -2.028344
     77          1           0      -24.991860   -3.580750   -6.040996
     78          1           0      -25.667323   -4.946025   -5.084550
     79          1           0      -24.032899   -4.325655   -4.724840
     80         12           0       29.721435    0.598834   -0.268068
     81          6           0       27.734484   -2.067764    0.776364
     82          6           0       27.238408    2.779763    0.713109
     83          6           0       31.795329    2.957800   -1.218090
     84          6           0       32.575304   -1.667720   -0.241540
     85          7           0       27.617849    0.306721    0.618625
     86          6           0       27.023491   -0.865540    0.993012
     87          6           0       25.646127   -0.625177    1.500784
     88          6           0       25.509358    0.949544    1.517893
     89          6           0       26.879902    1.434562    0.902924
     90          6           0       24.209487    1.494260    0.874104
     91          6           0       25.400485   -1.238372    2.900815
     92          6           0       24.141441   -2.103624    2.899751
     93          1           0       23.064162   -1.807208    3.986312
     94          7           0       29.523559    2.606093   -0.281967
     95          6           0       28.413558    3.349294    0.116877
     96          6           0       28.742112    4.734383   -0.194596
     97          6           0       30.079071    4.816779   -0.804412
     98          6           0       30.528939    3.390214   -0.866109
     99          6           0       27.918373    5.846531    0.225433
    100          6           0       30.746554    6.102321   -1.069161
    101          8           0       30.238675    7.187464   -0.878233
    102          6           0       32.163175    6.226790   -1.510249
    103          7           0       31.806506    0.619435   -0.608679
    104          6           0       32.357276    1.685495   -1.273680
    105          6           0       33.826931    1.433016   -1.536336
    106          6           0       34.123557    0.190799   -0.782592
    107          6           0       32.803723   -0.306324   -0.456273
    108          6           0       34.249027    1.446341   -3.062599
    109          6           0       34.852813    0.454229    0.579464
    110          6           0       35.745640   -0.595325    1.058102
    111          7           0       30.128608   -1.470205    0.141625
    112          6           0       31.287237   -2.252487    0.049349
    113          6           0       30.925038   -3.632703    0.131139
    114          6           0       29.573207   -3.626129    0.453998
    115          6           0       29.123402   -2.258114    0.490960
    116          6           0       31.883350   -4.752734   -0.041963
    117          6           0       28.479593   -4.445634    0.796073
    118          8           0       28.410182   -5.649980    0.899820
    119          6           0       27.262080   -3.508638    0.959491
    120          6           0       26.197964   -3.938991    0.038669
    121          8           0       26.086048   -3.594735   -1.150013
    122          8           0       25.430654   -4.908120    0.643233
    123          6           0       24.247798   -5.428670   -0.022836
    124          1           0       26.387021    3.405363    0.987185
    125          1           0       32.601751    3.639044   -1.500849
    126          1           0       33.454554   -2.314623   -0.272125
    127          1           0       25.003027   -0.894672    0.662518
    128          1           0       25.451182    1.370669    2.521101
    129          1           0       23.564425    0.614797    0.876621
    130          1           0       24.312037    1.987306   -0.092643
    131          1           0       23.759176    2.242130    1.526344
    132          1           0       25.179687   -0.503808    3.675041
    133          1           0       26.297663   -1.807313    3.144019
    134          1           0       24.584917   -3.054949    3.193335
    135          1           0       23.767492   -2.127824    1.877253
    136          1           0       27.033535    5.442431    0.717694
    137          1           0       27.504071    6.463038   -0.572860
    138          1           0       28.465137    6.444529    0.955354
    139          1           0       32.158056    5.488958   -2.312566
    140          1           0       32.811500    5.915613   -0.690712
    141          1           0       32.374702    7.228449   -1.885089
    142          1           0       34.305964    2.307125   -1.096783
    143          1           0       34.581871   -0.637105   -1.323636
    144          1           0       33.433462    1.821565   -3.681072
    145          1           0       34.691508    0.518079   -3.425725
    146          1           0       34.985068    2.214945   -3.296740
    147          1           0       34.109808    0.678819    1.344809
    148          1           0       35.469921    1.350429    0.517370
    149          1           0       36.732082   -0.439126    0.620136
    150          1           0       35.360918   -1.593918    0.848354
    151          1           0       35.983441   -0.422895    2.108274
    152          1           0       32.605010   -4.535678   -0.829372
    153          1           0       31.408942   -5.717985   -0.219685
    154          1           0       32.466435   -4.732672    0.878797
    155          1           0       26.758731   -3.630912    1.918640
    156          1           0       24.370062   -6.090446   -0.880338
    157          1           0       23.588715   -4.602993   -0.290337
    158          1           0       23.788750   -6.072897    0.726144
 ---------------------------------------------------------------------

 SCF Done:  E(RPBE1PBE) =  -4067.33823959     A.U. after   17 cycles

 Excitation energies and oscillator strengths:

 Excited State   1:      Singlet-A      1.8373 eV  674.80 nm  f=0.3518  <S**2>=0.000
     309 -> 315       -0.18244
     311 -> 313        0.68988
     311 <- 313       -0.10422
 This state for optimization and/or second-order correction.
 Total Energy, E(TD-HF/TD-DFT) =  -4067.27071871
 Copying the excited state density for this state as the 1-particle RhoCI density.

 Excited State   2:      Singlet-A      1.8894 eV  656.19 nm  f=0.3620  <S**2>=0.000
     310 -> 316       -0.18736
     312 -> 314        0.68566

 Excited State   3:      Singlet-A      1.9216 eV  645.22 nm  f=0.0000  <S**2>=0.000
     312 -> 313        0.70711

 Excited State   4:      Singlet-A      2.1350 eV  580.72 nm  f=0.0939  <S**2>=0.000
     310 -> 314        0.65947
     312 -> 316        0.23134

 Excited State   5:      Singlet-A      2.1650 eV  572.67 nm  f=0.0000  <S**2>=0.000
     311 -> 314        0.70711

 The electronic state is 1-A.
 Alpha  occ. eigenvalues --  -46.92314 -46.91934 -19.25510 -19.24065 -19.20193
 Alpha  occ. eigenvalues --  -19.19880 -19.19571 -19.18912 -19.18621 -19.17583
 Alpha  occ. eigenvalues --  -14.41825 -14.41478 -14.41444 -14.41134 -14.39914
 Alpha  occ. eigenvalues --  -14.39307 -14.38847 -14.37912 -10.36080 -10.35693
 Alpha  occ. eigenvalues --  -10.33623 -10.32281 -10.31346 -10.30798 -10.29652
 Alpha  occ. eigenvalues --  -10.29320 -10.29315 -10.29175 -10.28876 -10.28802
 Alpha  occ. eigenvalues --  -10.28714 -10.28701 -10.28241 -10.28203 -10.28176
 Alpha  occ. eigenvalues --  -10.28045 -10.27999 -10.27850 -10.27776 -10.27690
 Alpha  occ. eigenvalues --  -10.26827 -10.26502 -10.26488 -10.26394 -10.26273
 Alpha  occ. eigenvalues --  -10.26192 -10.26149 -10.26132 -10.26020 -10.25947
 Alpha  occ. eigenvalues --  -10.25937 -10.25856 -10.25779 -10.25743 -10.25674
 Alpha  occ. eigenvalues --  -10.25537 -10.25532 -10.25444 -10.25442 -10.25428
 Alpha  occ. eigenvalues --  -10.25180 -10.25131 -10.25101 -10.25043 -10.24923
 Alpha  occ. eigenvalues --  -10.24780 -10.24755 -10.24585 -10.24283 -10.24096
 Alpha  occ. eigenvalues --  -10.23939 -10.23936 -10.23909 -10.23828 -10.23688
 Alpha  occ. eigenvalues --  -10.23667 -10.23477 -10.23395 -10.23329 -10.23255
 Alpha  occ. eigenvalues --  -10.22980 -10.22875 -10.22583 -10.22507 -10.22468
 Alpha  occ. eigenvalues --  -10.22248  -3.14386  -3.13978  -1.87230  -1.86831
 Alpha  occ. eigenvalues --   -1.86769  -1.86599  -1.86351  -1.86198  -1.10195
 Alpha  occ. eigenvalues --   -1.10067  -1.04878  -1.04842  -1.04601  -1.04565
 Alpha  occ. eigenvalues --   -1.01962  -1.01488  -0.99704  -0.99587  -0.99127
 Alpha  occ. eigenvalues --   -0.98464  -0.97625  -0.96679  -0.96162  -0.95292
 Alpha  occ. eigenvalues --   -0.87017  -0.86365  -0.85105  -0.83849  -0.83572
 Alpha  occ. eigenvalues --   -0.83374  -0.83101  -0.82048  -0.81996  -0.81614
 Alpha  occ. eigenvalues --   -0.81599  -0.81490  -0.80548  -0.80070  -0.79522
 Alpha  occ. eigenvalues --   -0.78860  -0.78189  -0.78122  -0.77734  -0.76795
 Alpha  occ. eigenvalues --   -0.76795  -0.75932  -0.75729  -0.75152  -0.75066
 Alpha  occ. eigenvalues --   -0.74227  -0.73009  -0.72728  -0.72281  -0.71518
 Alpha  occ. eigenvalues --   -0.71408  -0.70808  -0.70617  -0.69776  -0.69736
 Alpha  occ. eigenvalues --   -0.69423  -0.67864  -0.67022  -0.66485  -0.66159
 Alpha  occ. eigenvalues --   -0.64217  -0.63797  -0.63470  -0.62999  -0.62343
 Alpha  occ. eigenvalues --   -0.61860  -0.61772  -0.60975  -0.60928  -0.60428
 Alpha  occ. eigenvalues --   -0.60408  -0.59806  -0.59599  -0.59270  -0.59064
 Alpha  occ. eigenvalues --   -0.58068  -0.56610  -0.55741  -0.55294  -0.54523
 Alpha  occ. eigenvalues --   -0.54071  -0.54006  -0.53766  -0.53631  -0.53114
 Alpha  occ. eigenvalues --   -0.52679  -0.52535  -0.52215  -0.51847  -0.51509
 Alpha  occ. eigenvalues --   -0.50985  -0.50931  -0.50385  -0.50054  -0.50035
 Alpha  occ. eigenvalues --   -0.49751  -0.49733  -0.49016  -0.48818  -0.48782
 Alpha  occ. eigenvalues --   -0.47900  -0.47784  -0.47747  -0.47672  -0.47459
 Alpha  occ. eigenvalues --   -0.47390  -0.47089  -0.46788  -0.46762  -0.46631
 Alpha  occ. eigenvalues --   -0.46481  -0.46331  -0.46324  -0.46273  -0.45964
 Alpha  occ. eigenvalues --   -0.45945  -0.45811  -0.45729  -0.45361  -0.45054
 Alpha  occ. eigenvalues --   -0.45008  -0.44854  -0.44646  -0.44525  -0.44190
 Alpha  occ. eigenvalues --   -0.44098  -0.44033  -0.43770  -0.43726  -0.43479
 Alpha  occ. eigenvalues --   -0.43220  -0.43098  -0.42982  -0.42959  -0.42682
 Alpha  occ. eigenvalues --   -0.42480  -0.42294  -0.42173  -0.41962  -0.41832
 Alpha  occ. eigenvalues --   -0.41771  -0.41718  -0.41491  -0.41269  -0.41082
 Alpha  occ. eigenvalues --   -0.41052  -0.41021  -0.40920  -0.40879  -0.40494
 Alpha  occ. eigenvalues --   -0.40393  -0.40312  -0.40078  -0.39866  -0.39763
 Alpha  occ. eigenvalues --   -0.39745  -0.39322  -0.39238  -0.39140  -0.38871
 Alpha  occ. eigenvalues --   -0.38665  -0.38539  -0.38514  -0.38213  -0.38087
 Alpha  occ. eigenvalues --   -0.38040  -0.37971  -0.37885  -0.37807  -0.37530
 Alpha  occ. eigenvalues --   -0.37409  -0.37405  -0.36989  -0.36953  -0.36868
 Alpha  occ. eigenvalues --   -0.36605  -0.36582  -0.36452  -0.36356  -0.36295
 Alpha  occ. eigenvalues --   -0.36142  -0.36051  -0.36041  -0.35861  -0.35581
 Alpha  occ. eigenvalues --   -0.35145  -0.35124  -0.34912  -0.34078  -0.33972
 Alpha  occ. eigenvalues --   -0.33665  -0.33517  -0.32759  -0.32673  -0.32536
 Alpha  occ. eigenvalues --   -0.32309  -0.32015  -0.31467  -0.31390  -0.31234
 Alpha  occ. eigenvalues --   -0.30827  -0.30413  -0.29524  -0.29397  -0.29033
 Alpha  occ. eigenvalues --   -0.28916  -0.28445  -0.28218  -0.27024  -0.26665
 Alpha  occ. eigenvalues --   -0.26371  -0.25774  -0.25689  -0.25480  -0.25356
 Alpha  occ. eigenvalues --   -0.25047  -0.24321  -0.24262  -0.21255  -0.20588
 Alpha  occ. eigenvalues --   -0.19216  -0.18893
 Alpha virt. eigenvalues --   -0.11608  -0.11039  -0.05962  -0.05506  -0.04192
 Alpha virt. eigenvalues --   -0.03941  -0.02041  -0.01761  -0.00182  -0.00043
 Alpha virt. eigenvalues --   -0.00020   0.00253   0.00750   0.01229   0.01326

 Mulliken charges:
               1
     1  Mg  11.999999
     2  C    5.999923
     3  C    5.999995
     4  C    5.999991
     5  C    6.000055
     6  N    7.000102
     7  C    6.000050
     8  C    5.999982
     9  C    6.000018
    10  C    5.999923
    11  C    5.999989
    12  C    5.999983
    13  C    5.999983
    14  H    1.000006
    15  N    7.000067
    16  C    5.999845
    17  C    6.000010
    18  C    5.999956
    19  C    5.999900
    20  C    6.000006
    21  C    5.999965
    22  O    7.999936
    23  C    5.999999
    24  N    7.000019
    25  C    5.999941
    26  C    6.000017
    27  C    5.999996
    28  C    6.000075
    29  C    6.000022
    30  C    5.999998
    31  C    6.000006
    32  N    6.999915
    33  C    6.000032
    34  C    6.000089
    35  C    6.000045
    36  C    6.000063
    37  C    6.000016
    38  C    5.999991
    39  O    8.000112
    40  C    6.000016
    41  C    6.000045
    42  O    7.999976
    43  O    8.000002
    44  C    5.999985
    45  H    0.999970
    46  H    0.999995
    47  H    1.000041
    48  H    0.999990
    49  H    0.999993
    50  H    0.999980
    51  H    1.000003
    52  H    0.999991
    53  H    1.000034
    54  H    0.999997
    55  H    1.000019
    56  H    1.000014
    57  H    0.999937
    58  H    0.999939
    59  H    0.999971
    60  H    0.999970
    61  H    0.999986
    62  H    0.999957
    63  H    1.000006
    64  H    1.000009
    65  H    0.999987
    66  H    0.999975
    67  H    0.999995
    68  H    0.999998
    69  H    1.000022
    70  H    0.999992
    71  H    0.999995
    72  H    1.000007
    73  H    1.000047
    74  H    1.000038
    75  H    1.000054
    76  H    1.000000
    77  H    1.000009
    78  H    1.000015
    79  H    1.000020
    80  Mg  12.001462
    81  C    6.013573
    82  C    5.986748
    83  C    5.983176
    84  C    6.015186
    85  N    7.004386
    86  C    5.969903
    87  C    6.012437
    88  C    5.992537
    89  C    6.026550
    90  C    5.997338
    91  C    6.000965
    92  C    6.001140
    93  H    0.992631
    94  N    6.991498
    95  C    6.040769
    96  C    6.022015
    97  C    6.010973
    98  C    6.035749
    99  C    5.990566
   100  C    6.006975
   101  O    8.017528
   102  C    5.999576
   103  N    7.006001
   104  C    6.031944
   105  C    5.992790
   106  C    6.006815
   107  C    5.965031
   108  C    5.999220
   109  C    6.006227
   110  C    6.000963
   111  N    7.001866
   112  C    5.961252
   113  C    5.975406
   114  C    5.996644
   115  C    5.970168
   116  C    6.000538
   117  C    5.981742
   118  O    7.969369
   119  C    6.002677
   120  C    5.995278
   121  O    7.991732
   122  O    8.000206
   123  C    6.003199
   124  H    1.009448
   125  H    1.010575
   126  H    0.991263
   127  H    0.996779
   128  H    1.000506
   129  H    1.010987
   130  H    0.997470
   131  H    0.999723
   132  H    0.992953
   133  H    1.006656
   134  H    1.004074
   135  H    0.999549
   136  H    1.018265
   137  H    1.020740
   138  H    1.018889
   139  H    1.005680
   140  H    1.009849
   141  H    1.011417
   142  H    0.999114
   143  H    1.002507
   144  H    0.997579
   145  H    1.011658
   146  H    1.001592
   147  H    0.995114
   148  H    0.986696
   149  H    0.995040
   150  H    1.005647
   151  H    0.996574
   152  H    0.982614
   153  H    0.987445
   154  H    0.982680
   155  H    0.990767
   156  H    0.997204
   157  H    0.993967
   158  H    0.996226
 Sum of Mulliken charges = 624.00000

 Dipole moment (field-independent basis, Debye):
    X=             -0.8459    Y=              9.9349    Z=             -1.2502  Tot=             10.0489
 Quadrupole moment (field-independent basis, Debye-Ang):
   XX=            -55.2352   YY=             10.4470   ZZ=              0.8212
   XY=            295.0238   XZ=            -39.1753   YZ=             -1.3543

 Normal termination of Gaussian 16 at Thu Oct 14 07:40:35 2021.
