 Gaussian 16, Revision A.03,
 Gaussian 16:  ES64L-G16RevA.03 25-Dec-2016

 --------------------------------------------------------
 #p PBE1PBE/Def2SVP td=(nstates=5) density=(transition=1)
 --------------------------------------------------------

 --------------------------------
 TDDFT excited states in gaussian
 --------------------------------
 Symbolic Z-matrix:
 Charge =  0 Multiplicity = 1

                         Standard orientation:
 ---------------------------------------------------------------------
 Center     Atomic      Atomic             Coordinates (Angstroms)
 Number     Number       Type             X           Y           Z
 ---------------------------------------------------------------------
      1         12           0      -22.302227   -0.016651    0.452770
      2          6           0      -19.396405    1.535939   -0.649409
      3          6           0      -23.659009    0.751884   -2.769039
      4          6           0      -24.924067   -1.868529    1.161139
      5          6           0      -20.507084   -1.251111    3.211627
      6          7           0      -21.547921    0.914127   -1.504265
      7          6           0      -20.335123    1.553091   -1.633199
      8          6           0      -20.191633    2.131114   -3.043720
      9          6           0      -21.659734    2.093227   -3.551137
     10          6           0      -22.347443    1.164933   -2.584890
     11          6           0      -22.456629    3.452510   -3.656395
     12          6           0      -19.217760    1.333387   -3.926451
     13          6           0      -18.905234    1.935638   -5.242798
     14          1           0      -17.567756    1.479982   -5.941817
     15          7           0      -24.077845   -0.521786   -0.654074
     16          6           0      -24.454676   -0.087155   -1.934384
     17          6           0      -25.742853   -0.647942   -2.233077
     18          6           0      -26.074206   -1.536271   -1.144412
     19          6           0      -24.997586   -1.309818   -0.119235
     20          6           0      -26.470601   -0.419514   -3.586629
     21          6           0      -27.340402   -2.398633   -1.135959
     22          8           0      -28.211987   -2.272892   -1.980080
     23          6           0      -27.514266   -3.408113   -0.066282
     24          7           0      -22.722827   -1.192749    2.098292
     25          6           0      -23.903242   -1.817859    2.164104
     26          6           0      -23.925348   -2.786342    3.415226
     27          6           0      -22.500380   -2.665703    4.080142
     28          6           0      -21.809491   -1.649225    3.016476
     29          6           0      -25.108129   -2.647002    4.409342
     30          6           0      -21.799890   -4.041226    4.096005
     31          6           0      -20.810977   -4.257329    5.247979
     32          7           0      -20.346277    0.074612    1.211368
     33          6           0      -19.794087   -0.357298    2.384683
     34          6           0      -18.444781    0.209163    2.498563
     35          6           0      -18.303210    1.009898    1.397128
     36          6           0      -19.422218    0.862643    0.609229
     37          6           0      -17.493207    0.041504    3.687576
     38          6           0      -17.389207    1.871879    0.709945
     39          8           0      -16.288275    2.275306    0.993803
     40          6           0      -18.069436    2.262131   -0.644689
     41          6           0      -18.302487    3.732378   -0.622181
     42          8           0      -18.815618    4.372651    0.253145
     43          8           0      -17.947436    4.259573   -1.875948
     44          6           0      -18.188122    5.663832   -2.049352
     45          1           0      -24.014961    1.114630   -3.735083
     46          1           0      -25.729549   -2.501228    1.540960
     47          1           0      -19.941924   -1.558510    4.094126
     48          1           0      -19.911565    3.174936   -2.908583
     49          1           0      -21.817889    1.612192   -4.515747
     50          1           0      -22.852903    3.445179   -4.671561
     51          1           0      -22.008234    4.341902   -3.212836
     52          1           0      -23.341276    3.336222   -3.030485
     53          1           0      -19.567008    0.350609   -4.244272
     54          1           0      -18.289258    1.155019   -3.383965
     55          1           0      -18.889345    3.015428   -5.094805
     56          1           0      -19.739456    1.752700   -5.919854
     57          1           0      -26.272335   -1.404302   -4.010895
     58          1           0      -25.983305    0.264277   -4.281961
     59          1           0      -27.529504   -0.173070   -3.666816
     60          1           0      -26.572542   -3.956816   -0.053313
     61          1           0      -28.296879   -4.102123   -0.373249
     62          1           0      -27.696916   -2.804003    0.822760
     63          1           0      -24.045469   -3.788039    3.001616
     64          1           0      -22.487603   -2.214477    5.071768
     65          1           0      -25.772785   -3.498881    4.262217
     66          1           0      -25.565961   -1.668572    4.267686
     67          1           0      -24.746353   -2.769080    5.430260
     68          1           0      -21.293949   -4.105577    3.133021
     69          1           0      -22.484006   -4.889322    4.061063
     70          1           0      -21.201193   -5.150367    5.737359
     71          1           0      -20.692632   -3.400702    5.911638
     72          1           0      -19.827750   -4.520067    4.857489
     73          1           0      -16.451246   -0.168302    3.448194
     74          1           0      -17.967443   -0.771562    4.237745
     75          1           0      -17.676782    0.895923    4.339203
     76          1           0      -17.366958    1.982436   -1.429891
     77          1           0      -17.208847    6.142159   -2.069584
     78          1           0      -18.820331    6.191472   -1.334799
     79          1           0      -18.691433    5.788773   -3.007702
     80         12           0       21.475295   -0.691208   -0.602081
     81          6           0       22.695545    2.421867    0.537933
     82          6           0       18.507583   -0.023919    0.671441
     83          6           0       20.728920   -4.007330   -0.947176
     84          6           0       25.022257   -1.661195   -0.993715
     85          7           0       20.745962    1.016064    0.535321
     86          6           0       21.318367    2.230641    0.663537
     87          6           0       20.252434    3.245378    1.121433
     88          6           0       18.959424    2.494889    1.136723
     89          6           0       19.402197    1.039249    0.798015
     90          6           0       18.116353    2.744196    2.453673
     91          6           0       20.166351    4.622557    0.382292
     92          6           0       18.787332    5.369877    0.129646
     93          1           0       18.712431    6.879625    0.400694
     94          7           0       19.748296   -1.778913   -0.413862
     95          6           0       18.588603   -1.295098    0.148363
     96          6           0       17.597610   -2.329645    0.060389
     97          6           0       18.208954   -3.566970   -0.382066
     98          6           0       19.622730   -3.164197   -0.549781
     99          6           0       16.241577   -2.035834    0.560984
    100          6           0       17.585390   -4.950820   -0.689580
    101          8           0       18.278150   -5.861334   -1.005091
    102          6           0       16.105995   -5.096335   -0.839150
    103          7           0       22.748098   -2.568500   -0.871244
    104          6           0       22.100429   -3.732027   -1.104794
    105          6           0       23.086379   -4.893561   -1.450079
    106          6           0       24.460390   -4.158682   -1.509652
    107          6           0       24.102905   -2.710912   -1.091356
    108          6           0       23.098512   -6.047318   -0.482849
    109          6           0       25.247682   -4.170296   -2.866497
    110          6           0       24.820044   -3.256169   -3.964485
    111          7           0       23.499180    0.098919   -0.343940
    112          6           0       24.750787   -0.387405   -0.591830
    113          6           0       25.717827    0.666914   -0.406613
    114          6           0       24.996051    1.804856    0.040407
    115          6           0       23.651483    1.386284    0.104867
    116          6           0       27.201142    0.564144   -0.464841
    117          6           0       25.085177    3.165459    0.487864
    118          8           0       26.014849    3.956685    0.597135
    119          6           0       23.594328    3.646829    0.784534
    120          6           0       23.445399    4.316308    2.140312
    121          8           0       23.602900    3.748623    3.190296
    122          8           0       23.064160    5.636041    1.957475
    123          6           0       22.929240    6.377533    3.211805
    124          1           0       17.454708    0.182638    0.876423
    125          1           0       20.400320   -5.038815   -1.088517
    126          1           0       26.062476   -1.912613   -1.210504
    127          1           0       20.659324    3.460691    2.109463
    128          1           0       18.330155    2.913614    0.350881
    129          1           0       18.587040    3.533056    3.040177
    130          1           0       17.970245    1.778727    2.937973
    131          1           0       17.148330    3.190274    2.224784
    132          1           0       20.607198    4.472319   -0.603500
    133          1           0       20.807702    5.372720    0.845662
    134          1           0       18.076523    4.842474    0.766118
    135          1           0       18.477012    5.200087   -0.901430
    136          1           0       15.893881   -2.961164    1.019749
    137          1           0       15.616176   -1.842445   -0.309748
    138          1           0       16.047710   -1.223711    1.261877
    139          1           0       15.798209   -5.362292    0.171260
    140          1           0       15.897793   -5.805436   -1.640937
    141          1           0       15.568448   -4.170473   -1.045089
    142          1           0       22.941198   -5.260665   -2.466279
    143          1           0       25.226474   -4.387822   -0.769565
    144          1           0       22.265569   -5.988357    0.218947
    145          1           0       23.996913   -6.058480    0.134850
    146          1           0       23.017056   -6.943278   -1.097752
    147          1           0       25.242700   -5.177394   -3.283566
    148          1           0       26.306963   -4.062200   -2.632293
    149          1           0       23.773533   -2.982602   -3.828664
    150          1           0       24.821270   -3.584591   -5.004070
    151          1           0       25.525332   -2.425373   -3.926312
    152          1           0       27.639630   -0.140621    0.241066
    153          1           0       27.569483    1.484612   -0.011203
    154          1           0       27.556547    0.398072   -1.482177
    155          1           0       23.348573    4.348271   -0.013018
    156          1           0       21.851423    6.437691    3.064047
    157          1           0       23.455561    7.309660    3.007679
    158          1           0       23.273165    5.817544    4.081687
 ---------------------------------------------------------------------

 SCF Done:  E(RPBE1PBE) =  -4067.36554303     A.U. after   16 cycles

 Excitation energies and oscillator strengths:

 Excited State   1:      Singlet-A      1.8569 eV  667.68 nm  f=0.0000  <S**2>=0.000
     312 -> 313        0.70711
 This state for optimization and/or second-order correction.
 Total Energy, E(TD-HF/TD-DFT) =  -4067.29730188
 Copying the excited state density for this state as the 1-particle RhoCI density.

 Excited State   2:      Singlet-A      1.8611 eV  666.20 nm  f=0.3814  <S**2>=0.000
     310 -> 316        0.17930
     312 -> 314        0.69120
     312 <- 314       -0.10763

 Excited State   3:      Singlet-A      1.9036 eV  651.32 nm  f=0.3744  <S**2>=0.000
     309 -> 315       -0.17020
     311 -> 313        0.69340
     311 <- 313       -0.10645

 Excited State   4:      Singlet-A      2.1593 eV  574.19 nm  f=0.0000  <S**2>=0.000
     311 -> 314        0.70711

 Excited State   5:      Singlet-A      2.1921 eV  565.59 nm  f=0.1041  <S**2>=0.000
     310 -> 314        0.65386
     312 -> 316       -0.25418

 The electronic state is 1-A.
 Alpha  occ. eigenvalues --  -46.93377 -46.93075 -19.25708 -19.25442 -19.20782
 Alpha  occ. eigenvalues --  -19.20247 -19.19676 -19.18991 -19.18896 -19.18743
 Alpha  occ. eigenvalues --  -14.42257 -14.41826 -14.41738 -14.41232 -14.39766
 Alpha  occ. eigenvalues --  -14.39119 -14.38933 -14.38500 -10.36611 -10.36125
 Alpha  occ. eigenvalues --  -10.32757 -10.31962 -10.31838 -10.31524 -10.29927
 Alpha  occ. eigenvalues --  -10.29270 -10.29099 -10.28962 -10.28863 -10.28644
 Alpha  occ. eigenvalues --  -10.28570 -10.28534 -10.28533 -10.28506 -10.28487
 Alpha  occ. eigenvalues --  -10.28389 -10.28181 -10.27334 -10.27132 -10.27013
 Alpha  occ. eigenvalues --  -10.26933 -10.26777 -10.26365 -10.26342 -10.26247
 Alpha  occ. eigenvalues --  -10.26184 -10.26125 -10.26109 -10.26055 -10.26014
 Alpha  occ. eigenvalues --  -10.25943 -10.25803 -10.25787 -10.25573 -10.25510
 Alpha  occ. eigenvalues --  -10.25508 -10.25481 -10.25435 -10.25291 -10.25281
 Alpha  occ. eigenvalues --  -10.25273 -10.25223 -10.25215 -10.25066 -10.24714
 Alpha  occ. eigenvalues --  -10.24395 -10.24383 -10.24320 -10.24270 -10.24028
 Alpha  occ. eigenvalues --  -10.23997 -10.23987 -10.23963 -10.23961 -10.23819
 Alpha  occ. eigenvalues --  -10.23774 -10.23770 -10.23763 -10.23755 -10.23280
 Alpha  occ. eigenvalues --  -10.23154 -10.22840 -10.22664 -10.22551 -10.22361
 Alpha  occ. eigenvalues --  -10.21968  -3.15270  -3.15079  -1.88080  -1.87925
 Alpha  occ. eigenvalues --   -1.87652  -1.87482  -1.87457  -1.87287  -1.11460
 Alpha  occ. eigenvalues --   -1.11068  -1.07570  -1.05317  -1.04700  -1.03985
 Alpha  occ. eigenvalues --   -1.03759  -1.03385  -0.99328  -0.98812  -0.98474
 Alpha  occ. eigenvalues --   -0.98329  -0.97768  -0.97490  -0.97112  -0.96463
 Alpha  occ. eigenvalues --   -0.87795  -0.85969  -0.83694  -0.83538  -0.83516
 Alpha  occ. eigenvalues --   -0.83145  -0.83135  -0.82534  -0.82486  -0.81678
 Alpha  occ. eigenvalues --   -0.81404  -0.80910  -0.80437  -0.80229  -0.79454
 Alpha  occ. eigenvalues --   -0.78388  -0.78255  -0.77939  -0.77370  -0.76803
 Alpha  occ. eigenvalues --   -0.76647  -0.76223  -0.75719  -0.75268  -0.75149
 Alpha  occ. eigenvalues --   -0.74749  -0.72568  -0.72132  -0.71744  -0.71426
 Alpha  occ. eigenvalues --   -0.71384  -0.71306  -0.70582  -0.70186  -0.69870
 Alpha  occ. eigenvalues --   -0.69010  -0.67822  -0.66787  -0.66523  -0.65859
 Alpha  occ. eigenvalues --   -0.64085  -0.63815  -0.63627  -0.63458  -0.62688
 Alpha  occ. eigenvalues --   -0.62345  -0.61310  -0.61092  -0.60534  -0.60155
 Alpha  occ. eigenvalues --   -0.59472  -0.59464  -0.59155  -0.58763  -0.58628
 Alpha  occ. eigenvalues --   -0.58496  -0.57351  -0.56257  -0.54742  -0.54587
 Alpha  occ. eigenvalues --   -0.54516  -0.54078  -0.53907  -0.53377  -0.53371
 Alpha  occ. eigenvalues --   -0.53149  -0.52922  -0.52541  -0.52281  -0.51928
 Alpha  occ. eigenvalues --   -0.51143  -0.50597  -0.50450  -0.50405  -0.49974
 Alpha  occ. eigenvalues --   -0.49899  -0.49594  -0.49523  -0.49157  -0.49003
 Alpha  occ. eigenvalues --   -0.48643  -0.48617  -0.48191  -0.48145  -0.47863
 Alpha  occ. eigenvalues --   -0.47731  -0.47562  -0.47401  -0.47370  -0.46943
 Alpha  occ. eigenvalues --   -0.46604  -0.46362  -0.46350  -0.46168  -0.45713
 Alpha  occ. eigenvalues --   -0.45502  -0.45482  -0.45362  -0.45354  -0.45157
 Alpha  occ. eigenvalues --   -0.45013  -0.44912  -0.44832  -0.44636  -0.44561
 Alpha  occ. eigenvalues --   -0.44124  -0.44003  -0.43855  -0.43800  -0.43618
 Alpha  occ. eigenvalues --   -0.43394  -0.43371  -0.43220  -0.42913  -0.42912
 Alpha  occ. eigenvalues --   -0.42808  -0.42304  -0.42281  -0.42065  -0.41958
 Alpha  occ. eigenvalues --   -0.41892  -0.41831  -0.41802  -0.41457  -0.41165
 Alpha  occ. eigenvalues --   -0.41146  -0.40911  -0.40758  -0.40605  -0.40486
 Alpha  occ. eigenvalues --   -0.40269  -0.40168  -0.40164  -0.39899  -0.39405
 Alpha  occ. eigenvalues --   -0.39348  -0.39309  -0.39081  -0.39036  -0.38852
 Alpha  occ. eigenvalues --   -0.38688  -0.38491  -0.38429  -0.38377  -0.38233
 Alpha  occ. eigenvalues --   -0.38092  -0.38061  -0.37834  -0.37804  -0.37681
 Alpha  occ. eigenvalues --   -0.37675  -0.37468  -0.37300  -0.37202  -0.37190
 Alpha  occ. eigenvalues --   -0.36890  -0.36869  -0.36716  -0.36712  -0.36435
 Alpha  occ. eigenvalues --   -0.36410  -0.35743  -0.35506  -0.35476  -0.35265
 Alpha  occ. eigenvalues --   -0.34991  -0.34784  -0.34696  -0.34072  -0.33889
 Alpha  occ. eigenvalues --   -0.33774  -0.33084  -0.33044  -0.32830  -0.32724
 Alpha  occ. eigenvalues --   -0.32368  -0.31999  -0.31959  -0.31555  -0.31177
 Alpha  occ. eigenvalues --   -0.30866  -0.30768  -0.30190  -0.29607  -0.29524
 Alpha  occ. eigenvalues --   -0.29292  -0.28796  -0.28662  -0.27434  -0.26520
 Alpha  occ. eigenvalues --   -0.26438  -0.26066  -0.25840  -0.25643  -0.25583
 Alpha  occ. eigenvalues --   -0.25378  -0.25160  -0.25008  -0.21595  -0.20748
 Alpha  occ. eigenvalues --   -0.19313  -0.18673
 Alpha virt. eigenvalues --   -0.11549  -0.11071  -0.05517  -0.05076  -0.03763
 Alpha virt. eigenvalues --   -0.03358  -0.01938  -0.01761  -0.01641  -0.00775
 Alpha virt. eigenvalues --    0.00249   0.00338   0.00630   0.00979   0.01733

 Mulliken charges:
               1
     1  Mg  12.000000
     2  C    6.000000
     3  C    6.000000
     4  C    6.000000
     5  C    6.000000
     6  N    7.000000
     7  C    6.000000
     8  C    6.000000
     9  C    6.000000
    10  C    6.000000
    11  C    6.000000
    12  C    6.000000
    13  C    6.000000
    14  H    1.000000
    15  N    7.000000
    16  C    6.000000
    17  C    6.000000
    18  C    6.000000
    19  C    6.000000
    20  C    6.000000
    21  C    6.000000
    22  O    8.000000
    23  C    6.000000
    24  N    7.000000
    25  C    6.000000
    26  C    6.000000
    27  C    6.000000
    28  C    6.000000
    29  C    6.000000
    30  C    6.000000
    31  C    6.000000
    32  N    7.000000
    33  C    6.000000
    34  C    6.000000
    35  C    6.000000
    36  C    6.000000
    37  C    6.000000
    38  C    6.000000
    39  O    8.000000
    40  C    6.000000
    41  C    6.000000
    42  O    8.000000
    43  O    8.000000
    44  C    6.000000
    45  H    1.000000
    46  H    1.000000
    47  H    1.000000
    48  H    1.000000
    49  H    1.000000
    50  H    1.000000
    51  H    1.000000
    52  H    1.000000
    53  H    1.000000
    54  H    1.000000
    55  H    1.000000
    56  H    1.000000
    57  H    1.000000
    58  H    1.000000
    59  H    1.000000
    60  H    1.000000
    61  H    1.000000
    62  H    1.000000
    63  H    1.000000
    64  H    1.000000
    65  H    1.000000
    66  H    1.000000
    67  H    1.000000
    68  H    1.000000
    69  H    1.000000
    70  H    1.000000
    71  H    1.000000
    72  H    1.000000
    73  H    1.000000
    74  H    1.000000
    75  H    1.000000
    76  H    1.000000
    77  H    1.000000
    78  H    1.000000
    79  H    1.000000
    80  Mg  12.000000
    81  C    6.000000
    82  C    6.000000
    83  C    6.000000
    84  C    6.000000
    85  N    7.000000
    86  C    6.000000
    87  C    6.000000
    88  C    6.000000
    89  C    6.000000
    90  C    6.000000
    91  C    6.000000
    92  C    6.000000
    93  H    1.000000
    94  N    7.000000
    95  C    6.000000
    96  C    6.000000
    97  C    6.000000
    98  C    6.000000
    99  C    6.000000
   100  C    6.000000
   101  O    8.000000
   102  C    6.000000
   103  N    7.000000
   104  C    6.000000
   105  C    6.000000
   106  C    6.000000
   107  C    6.000000
   108  C    6.000000
   109  C    6.000000
   110  C    6.000000
   111  N    7.000000
   112  C    6.000000
   113  C    6.000000
   114  C    6.000000
   115  C    6.000000
   116  C    6.000000
   117  C    6.000000
   118  O    8.000000
   119  C    6.000000
   120  C    6.000000
   121  O    8.000000
   122  O    8.000000
   123  C    6.000000
   124  H    1.000000
   125  H    1.000000
   126  H    1.000000
   127  H    1.000000
   128  H    1.000000
   129  H    1.000000
   130  H    1.000000
   131  H    1.000000
   132  H    1.000000
   133  H    1.000000
   134  H    1.000000
   135  H    1.000000
   136  H    1.000000
   137  H    1.000000
   138  H    1.000000
   139  H    1.000000
   140  H    1.000000
   141  H    1.000000
   142  H    1.000000
   143  H    1.000000
   144  H    1.000000
   145  H    1.000000
   146  H    1.000000
   147  H    1.000000
   148  H    1.000000
   149  H    1.000000
   150  H    1.000000
   151  H    1.000000
   152  H    1.000000
   153  H    1.000000
   154  H    1.000000
   155  H    1.000000
   156  H    1.000000
   157  H    1.000000
   158  H    1.000000
 Sum of Mulliken charges = 624.00000

 Dipole moment (field-independent basis, Debye):
    X=              0.0000    Y=              0.0000    Z=              0.0000  Tot=              0.0000
 Quadrupole moment (field-independent basis, Debye-Ang):
   XX=              0.0000   YY=             -0.0000   ZZ=              0.0000
   XY=              0.0000   XZ=             -0.0000   YZ=              0.0000

 Normal termination of Gaussian 16 at Fri Oct 15 15:37:23 2021.
