 Gaussian 16, Revision A.03,
 Gaussian 16:  ES64L-G16RevA.03 25-Dec-2016

 --------------------------------------------------------
 #p PBE1PBE/Def2SVP td=(nstates=5) density=(transition=1)
 --------------------------------------------------------

 --------------------------------
 TDDFT excited states in gaussian
 --------------------------------
 Symbolic Z-matrix:
 Charge =  0 Multiplicity = 1

                         Standard orientation:
 ---------------------------------------------------------------------
 Center     Atomic      Atomic             Coordinates (Angstroms)
 Number     Number       Type             X           Y           Z
 ---------------------------------------------------------------------
      1         12           0       21.767504   -0.771411    0.163569
      2          6           0       22.804549    2.194058   -1.163149
      3          6           0       18.436393    0.403410   -0.029866
      4          6           0       20.725752   -3.571273    1.676435
      5          6           0       25.034258   -1.830194    0.241469
      6          7           0       20.759356    1.173127   -0.213242
      7          6           0       21.414909    2.223129   -0.868840
      8          6           0       20.444343    3.386766   -1.217989
      9          6           0       19.112493    2.737458   -0.756719
     10          6           0       19.443167    1.352961   -0.229319
     11          6           0       18.124564    3.483143    0.238253
     12          6           0       20.404260    3.854924   -2.739098
     13          6           0       19.374859    4.993765   -2.969002
     14          1           0       20.025884    6.353065   -3.228455
     15          7           0       19.790255   -1.512441    0.708126
     16          6           0       18.586939   -0.965844    0.316984
     17          6           0       17.557951   -1.825239    0.890591
     18          6           0       18.241466   -2.978936    1.393120
     19          6           0       19.646122   -2.751502    1.260926
     20          6           0       16.125391   -1.466099    0.793599
     21          6           0       17.506125   -4.166044    2.107705
     22          8           0       18.097457   -5.068761    2.734091
     23          6           0       16.000587   -4.216337    2.125437
     24          7           0       22.687538   -2.355470    0.847594
     25          6           0       22.047534   -3.457524    1.481356
     26          6           0       23.060395   -4.362586    2.145332
     27          6           0       24.288382   -4.051891    1.291691
     28          6           0       24.001532   -2.680596    0.696725
     29          6           0       23.272674   -4.034736    3.661480
     30          6           0       24.473384   -5.047634    0.124834
     31          6           0       25.212887   -6.331822    0.388432
     32          7           0       23.638537   -0.037437   -0.295821
     33          6           0       24.854255   -0.603308   -0.365945
     34          6           0       25.803132    0.365091   -0.830354
     35          6           0       25.064441    1.475615   -1.179492
     36          6           0       23.728840    1.169959   -0.875038
     37          6           0       27.254723    0.063285   -0.967220
     38          6           0       25.170413    2.763549   -1.719439
     39          8           0       26.124205    3.387574   -2.142821
     40          6           0       23.665193    3.307179   -1.737338
     41          6           0       23.628596    4.575183   -0.960128
     42          8           0       23.794070    4.707586    0.228093
     43          8           0       23.232131    5.598626   -1.722531
     44          6           0       23.102848    6.939704   -1.032563
     45          1           0       17.435071    0.769639   -0.265230
     46          1           0       20.400482   -4.492168    2.164576
     47          1           0       26.073551   -2.139602    0.115436
     48          1           0       20.683434    4.237766   -0.580152
     49          1           0       18.490523    2.529139   -1.627783
     50          1           0       17.058743    3.341859    0.056940
     51          1           0       18.443702    4.517315    0.368849
     52          1           0       18.272049    2.969591    1.188219
     53          1           0       20.203892    2.930873   -3.280002
     54          1           0       21.402333    4.193437   -3.016933
     55          1           0       18.641052    4.999775   -2.163027
     56          1           0       18.842682    4.746418   -3.887068
     57          1           0       15.772346   -1.226600    1.796827
     58          1           0       15.650123   -2.287811    0.257842
     59          1           0       15.985916   -0.603448    0.141918
     60          1           0       15.666213   -5.134578    2.608279
     61          1           0       15.732650   -4.338063    1.075018
     62          1           0       15.480671   -3.354797    2.543587
     63          1           0       22.757666   -5.408007    2.079615
     64          1           0       25.213798   -4.003983    1.865268
     65          1           0       23.850866   -3.120268    3.788096
     66          1           0       23.762598   -4.869191    4.163939
     67          1           0       22.270456   -3.922830    4.073695
     68          1           0       24.925074   -4.590900   -0.754859
     69          1           0       23.498427   -5.307417   -0.287801
     70          1           0       24.520292   -7.141183    0.159232
     71          1           0       25.305993   -6.341107    1.474520
     72          1           0       26.183734   -6.405433   -0.101876
     73          1           0       27.489389   -0.210361   -1.995150
     74          1           0       27.714573   -0.612924   -0.245884
     75          1           0       27.756702    1.016527   -0.800642
     76          1           0       23.383838    3.497665   -2.773283
     77          1           0       22.493481    6.781078   -0.142566
     78          1           0       22.583200    7.685079   -1.635198
     79          1           0       24.106342    7.275368   -0.770051
     80         12           0      -22.591600    0.339113   -0.254810
     81          6           0      -19.097345    0.670323    0.489964
     82          6           0      -21.566291   -2.135559   -2.617990
     83          6           0      -25.709601   -0.900890   -0.426054
     84          6           0      -23.289129    2.180561    2.541407
     85          7           0      -20.580498   -0.601603   -0.909790
     86          6           0      -19.316046   -0.296850   -0.497763
     87          6           0      -18.235231   -1.150722   -1.248279
     88          6           0      -19.090721   -1.706216   -2.485355
     89          6           0      -20.497096   -1.538657   -1.932512
     90          6           0      -18.929803   -0.923054   -3.768095
     91          6           0      -17.521760   -2.147984   -0.350473
     92          6           0      -15.982185   -2.267107   -0.493795
     93          1           0      -15.324488   -3.464796   -1.324961
     94          7           0      -23.580196   -1.271830   -1.468686
     95          6           0      -22.959585   -2.087222   -2.437976
     96          6           0      -23.984064   -2.924700   -3.073727
     97          6           0      -25.231374   -2.522666   -2.452165
     98          6           0      -24.887337   -1.621158   -1.373718
     99          6           0      -23.771490   -3.979640   -4.093205
    100          6           0      -26.601793   -2.978251   -2.886755
    101          8           0      -26.694285   -3.605848   -3.917675
    102          6           0      -27.877193   -2.693374   -2.127642
    103          7           0      -24.148884    0.536719    0.960967
    104          6           0      -25.386404    0.037307    0.564839
    105          6           0      -26.413841    0.483475    1.607720
    106          6           0      -25.677813    1.621377    2.405456
    107          6           0      -24.281270    1.468365    1.904725
    108          6           0      -27.861976    0.850748    1.115976
    109          6           0      -25.814314    1.635975    3.958974
    110          6           0      -26.311677    2.886853    4.606973
    111          7           0      -21.499583    1.348082    1.155908
    112          6           0      -21.913390    2.135492    2.216166
    113          6           0      -20.776772    2.883622    2.787179
    114          6           0      -19.641301    2.253907    2.144287
    115          6           0      -20.157454    1.353084    1.207720
    116          6           0      -20.749873    3.957637    3.842602
    117          6           0      -18.150001    2.278989    2.085927
    118          8           0      -17.353732    2.872429    2.756029
    119          6           0      -17.785926    1.174324    1.099244
    120          6           0      -16.905651    1.775090    0.044293
    121          8           0      -17.372467    2.609269   -0.701271
    122          8           0      -15.590257    1.230837   -0.058498
    123          6           0      -14.776105    1.670973   -1.231837
    124          1           0      -21.292930   -2.861166   -3.387108
    125          1           0      -26.763430   -1.177289   -0.363289
    126          1           0      -23.572092    2.911222    3.301622
    127          1           0      -17.494725   -0.522675   -1.742733
    128          1           0      -18.936869   -2.775836   -2.627495
    129          1           0      -19.563947   -0.038599   -3.711789
    130          1           0      -19.181779   -1.596471   -4.587196
    131          1           0      -17.950361   -0.511561   -4.014169
    132          1           0      -17.920082   -3.126925   -0.615357
    133          1           0      -17.876546   -1.991150    0.668134
    134          1           0      -15.645768   -2.328502    0.541450
    135          1           0      -15.517532   -1.377443   -0.919056
    136          1           0      -23.992548   -3.519405   -5.055755
    137          1           0      -24.536175   -4.747669   -3.976654
    138          1           0      -22.813291   -4.496373   -4.159393
    139          1           0      -28.769127   -3.187855   -2.511904
    140          1           0      -28.030195   -1.617441   -2.212540
    141          1           0      -27.907826   -2.863181   -1.052023
    142          1           0      -26.574535   -0.442639    2.160379
    143          1           0      -25.957446    2.577378    1.963780
    144          1           0      -27.859710    1.078161    0.049627
    145          1           0      -28.273228    1.663479    1.714400
    146          1           0      -28.543174    0.020708    1.302050
    147          1           0      -24.847974    1.386588    4.397136
    148          1           0      -26.426382    0.776518    4.232161
    149          1           0      -25.480479    3.383013    5.107568
    150          1           0      -27.053268    2.635123    5.364991
    151          1           0      -26.767922    3.640647    3.965671
    152          1           0      -19.836694    4.548736    3.776364
    153          1           0      -20.825228    3.446629    4.802851
    154          1           0      -21.670933    4.533917    3.753260
    155          1           0      -17.360158    0.351988    1.674409
    156          1           0      -14.365865    2.660601   -1.030014
    157          1           0      -15.399379    1.778494   -2.119316
    158          1           0      -13.988417    0.949697   -1.448720
 ---------------------------------------------------------------------

 SCF Done:  E(RPBE1PBE) =  -4067.39879092     A.U. after   16 cycles

 Excitation energies and oscillator strengths:

 Excited State   1:      Singlet-A      1.8106 eV  684.78 nm  f=0.3787  <S**2>=0.000
     309 -> 315       -0.15519
     312 -> 313        0.69947
     312 <- 313       -0.12510
 This state for optimization and/or second-order correction.
 Total Energy, E(TD-HF/TD-DFT) =  -4067.33225411
 Copying the excited state density for this state as the 1-particle RhoCI density.

 Excited State   2:      Singlet-A      1.8362 eV  675.22 nm  f=0.3787  <S**2>=0.000
     310 -> 316       -0.16421
     311 -> 314        0.69666
     311 <- 314       -0.11953

 Excited State   3:      Singlet-A      1.9012 eV  652.14 nm  f=0.0000  <S**2>=0.000
     311 -> 313        0.70711

 Excited State   4:      Singlet-A      1.9219 eV  645.12 nm  f=0.0000  <S**2>=0.000
     312 -> 314        0.70711

 Excited State   5:      Singlet-A      2.2360 eV  554.49 nm  f=0.1177  <S**2>=0.000
     308 -> 314       -0.10047
     310 -> 314        0.64818
     311 -> 316        0.25664

 The electronic state is 1-A.
 Alpha  occ. eigenvalues --  -46.92757 -46.90905 -19.25887 -19.25495 -19.20886
 Alpha  occ. eigenvalues --  -19.19854 -19.19480 -19.18887 -19.18886 -19.18255
 Alpha  occ. eigenvalues --  -14.42148 -14.42147 -14.41377 -14.41371 -14.39023
 Alpha  occ. eigenvalues --  -14.38843 -14.38599 -14.38462 -10.37206 -10.35453
 Alpha  occ. eigenvalues --  -10.32497 -10.32482 -10.31955 -10.31707 -10.29764
 Alpha  occ. eigenvalues --  -10.29485 -10.29477 -10.29147 -10.29043 -10.29031
 Alpha  occ. eigenvalues --  -10.28507 -10.28373 -10.28205 -10.27964 -10.27940
 Alpha  occ. eigenvalues --  -10.27845 -10.27336 -10.27301 -10.27156 -10.26974
 Alpha  occ. eigenvalues --  -10.26809 -10.26731 -10.26567 -10.26528 -10.26410
 Alpha  occ. eigenvalues --  -10.26392 -10.26390 -10.26373 -10.26265 -10.26193
 Alpha  occ. eigenvalues --  -10.25942 -10.25790 -10.25612 -10.25609 -10.25605
 Alpha  occ. eigenvalues --  -10.25598 -10.25596 -10.25477 -10.25222 -10.25076
 Alpha  occ. eigenvalues --  -10.24961 -10.24946 -10.24803 -10.24739 -10.24549
 Alpha  occ. eigenvalues --  -10.24493 -10.24351 -10.24276 -10.24243 -10.24089
 Alpha  occ. eigenvalues --  -10.24059 -10.24056 -10.24016 -10.23954 -10.23531
 Alpha  occ. eigenvalues --  -10.23520 -10.23278 -10.23257 -10.23247 -10.23237
 Alpha  occ. eigenvalues --  -10.23201 -10.23198 -10.23197 -10.22850 -10.22559
 Alpha  occ. eigenvalues --  -10.22523  -3.14903  -3.13259  -1.87689  -1.87284
 Alpha  occ. eigenvalues --   -1.87132  -1.86104  -1.85652  -1.85481  -1.11620
 Alpha  occ. eigenvalues --   -1.10042  -1.06427  -1.05072  -1.05020  -1.03098
 Alpha  occ. eigenvalues --   -1.02665  -1.01897  -1.00056  -0.99258  -0.98525
 Alpha  occ. eigenvalues --   -0.98215  -0.97737  -0.97396  -0.96725  -0.96218
 Alpha  occ. eigenvalues --   -0.87615  -0.87056  -0.83745  -0.83391  -0.83165
 Alpha  occ. eigenvalues --   -0.83127  -0.82935  -0.82806  -0.82196  -0.81924
 Alpha  occ. eigenvalues --   -0.81495  -0.80899  -0.80571  -0.79981  -0.78783
 Alpha  occ. eigenvalues --   -0.78641  -0.78295  -0.78270  -0.76807  -0.76789
 Alpha  occ. eigenvalues --   -0.76046  -0.75823  -0.75505  -0.74912  -0.74870
 Alpha  occ. eigenvalues --   -0.74538  -0.72745  -0.72517  -0.71864  -0.71815
 Alpha  occ. eigenvalues --   -0.71521  -0.71118  -0.70622  -0.70474  -0.69624
 Alpha  occ. eigenvalues --   -0.69592  -0.67642  -0.67127  -0.66262  -0.66249
 Alpha  occ. eigenvalues --   -0.63932  -0.63873  -0.63332  -0.63321  -0.62671
 Alpha  occ. eigenvalues --   -0.62370  -0.61159  -0.60563  -0.60421  -0.60242
 Alpha  occ. eigenvalues --   -0.59541  -0.59405  -0.59195  -0.59161  -0.58862
 Alpha  occ. eigenvalues --   -0.58700  -0.56898  -0.56627  -0.54814  -0.54584
 Alpha  occ. eigenvalues --   -0.54375  -0.54011  -0.53814  -0.53714  -0.53501
 Alpha  occ. eigenvalues --   -0.53497  -0.53021  -0.52899  -0.52411  -0.52264
 Alpha  occ. eigenvalues --   -0.51149  -0.51132  -0.50459  -0.50220  -0.50076
 Alpha  occ. eigenvalues --   -0.49665  -0.49236  -0.48825  -0.48822  -0.48467
 Alpha  occ. eigenvalues --   -0.48023  -0.47987  -0.47926  -0.47751  -0.47509
 Alpha  occ. eigenvalues --   -0.47400  -0.47281  -0.46911  -0.46808  -0.46355
 Alpha  occ. eigenvalues --   -0.46311  -0.46285  -0.46274  -0.45917  -0.45901
 Alpha  occ. eigenvalues --   -0.45592  -0.45492  -0.45101  -0.45013  -0.44891
 Alpha  occ. eigenvalues --   -0.44589  -0.44513  -0.44460  -0.44450  -0.44333
 Alpha  occ. eigenvalues --   -0.44274  -0.43954  -0.43825  -0.43808  -0.43580
 Alpha  occ. eigenvalues --   -0.43409  -0.43343  -0.43294  -0.42970  -0.42845
 Alpha  occ. eigenvalues --   -0.42736  -0.42405  -0.42372  -0.42148  -0.41862
 Alpha  occ. eigenvalues --   -0.41844  -0.41687  -0.41607  -0.41331  -0.41131
 Alpha  occ. eigenvalues --   -0.41124  -0.41052  -0.40896  -0.40850  -0.40840
 Alpha  occ. eigenvalues --   -0.40715  -0.40632  -0.40562  -0.40183  -0.39978
 Alpha  occ. eigenvalues --   -0.39949  -0.39681  -0.39432  -0.39407  -0.38998
 Alpha  occ. eigenvalues --   -0.38628  -0.38573  -0.38562  -0.38464  -0.38349
 Alpha  occ. eigenvalues --   -0.38284  -0.38216  -0.38145  -0.37816  -0.37708
 Alpha  occ. eigenvalues --   -0.37522  -0.37450  -0.37206  -0.36882  -0.36830
 Alpha  occ. eigenvalues --   -0.36713  -0.36544  -0.36416  -0.36358  -0.36049
 Alpha  occ. eigenvalues --   -0.35990  -0.35787  -0.35678  -0.35588  -0.35549
 Alpha  occ. eigenvalues --   -0.35331  -0.35232  -0.34924  -0.34741  -0.34255
 Alpha  occ. eigenvalues --   -0.33472  -0.33365  -0.32980  -0.32710  -0.32475
 Alpha  occ. eigenvalues --   -0.32369  -0.32067  -0.31982  -0.31680  -0.31588
 Alpha  occ. eigenvalues --   -0.31499  -0.30879  -0.29813  -0.29582  -0.29496
 Alpha  occ. eigenvalues --   -0.29114  -0.28853  -0.28473  -0.27066  -0.26872
 Alpha  occ. eigenvalues --   -0.26370  -0.26203  -0.25990  -0.25414  -0.25343
 Alpha  occ. eigenvalues --   -0.25257  -0.24814  -0.24425  -0.21468  -0.21227
 Alpha  occ. eigenvalues --   -0.18804  -0.18787
 Alpha virt. eigenvalues --   -0.11517  -0.11421  -0.05111  -0.05047  -0.03838
 Alpha virt. eigenvalues --   -0.03570  -0.02070  -0.01984  -0.01572  -0.00238
 Alpha virt. eigenvalues --    0.00192   0.00211   0.00995   0.01224   0.01367

 Mulliken charges:
               1
     1  Mg  11.998536
     2  C    5.975187
     3  C    5.995393
     4  C    6.029659
     5  C    6.013513
     6  N    6.988170
     7  C    6.038925
     8  C    5.985304
     9  C    6.006722
    10  C    5.975295
    11  C    6.004205
    12  C    5.997181
    13  C    6.002415
    14  H    0.995920
    15  N    7.006050
    16  C    5.963723
    17  C    5.976372
    18  C    5.992432
    19  C    5.955117
    20  C    6.004753
    21  C    5.987505
    22  O    7.974921
    23  C    6.005562
    24  N    7.017898
    25  C    5.961495
    26  C    6.007932
    27  C    5.994680
    28  C    6.020912
    29  C    6.001069
    30  C    5.992639
    31  C    5.999394
    32  N    6.996239
    33  C    6.022570
    34  C    6.034981
    35  C    5.998719
    36  C    6.031589
    37  C    5.995943
    38  C    6.015349
    39  O    8.026326
    40  C    6.002818
    41  C    6.001801
    42  O    8.003877
    43  O    8.001689
    44  C    5.999119
    45  H    0.983684
    46  H    0.995711
    47  H    1.013949
    48  H    1.001859
    49  H    0.998866
    50  H    0.999762
    51  H    0.985453
    52  H    1.001593
    53  H    1.005209
    54  H    0.992609
    55  H    1.006936
    56  H    1.002277
    57  H    0.981700
    58  H    0.982795
    59  H    0.984818
    60  H    0.986368
    61  H    0.994329
    62  H    0.994515
    63  H    1.001571
    64  H    1.001201
    65  H    0.987918
    66  H    0.994485
    67  H    1.007450
    68  H    0.995335
    69  H    1.015155
    70  H    1.007188
    71  H    1.004573
    72  H    0.999457
    73  H    1.022008
    74  H    1.017622
    75  H    1.015891
    76  H    1.007625
    77  H    1.005019
    78  H    1.004966
    79  H    1.000204
    80  Mg  11.999965
    81  C    5.999883
    82  C    6.000122
    83  C    6.000232
    84  C    5.999864
    85  N    6.999932
    86  C    6.000284
    87  C    5.999927
    88  C    6.000082
    89  C    5.999646
    90  C    6.000061
    91  C    5.999933
    92  C    5.999929
    93  H    1.000216
    94  N    7.000015
    95  C    5.999502
    96  C    5.999783
    97  C    5.999863
    98  C    5.999615
    99  C    6.000089
   100  C    5.999861
   101  O    7.999746
   102  C    6.000056
   103  N    7.000037
   104  C    5.999638
   105  C    6.000108
   106  C    5.999860
   107  C    6.000397
   108  C    6.000013
   109  C    5.999968
   110  C    6.000001
   111  N    7.000039
   112  C    6.000382
   113  C    6.000318
   114  C    6.000062
   115  C    6.000260
   116  C    5.999975
   117  C    6.000273
   118  O    8.000348
   119  C    5.999976
   120  C    6.000080
   121  O    7.999994
   122  O    8.000063
   123  C    5.999963
   124  H    0.999879
   125  H    0.999892
   126  H    1.000107
   127  H    1.000061
   128  H    1.000027
   129  H    0.999911
   130  H    1.000008
   131  H    0.999889
   132  H    1.000113
   133  H    0.999919
   134  H    1.000033
   135  H    1.000008
   136  H    0.999745
   137  H    0.999799
   138  H    0.999809
   139  H    0.999805
   140  H    0.999861
   141  H    0.999861
   142  H    0.999978
   143  H    1.000005
   144  H    1.000015
   145  H    0.999859
   146  H    0.999996
   147  H    0.999981
   148  H    1.000096
   149  H    0.999969
   150  H    1.000025
   151  H    1.000008
   152  H    1.000197
   153  H    1.000234
   154  H    1.000135
   155  H    1.000168
   156  H    1.000058
   157  H    1.000018
   158  H    1.000169
 Sum of Mulliken charges = 624.00000

 Dipole moment (field-independent basis, Debye):
    X=              9.7783    Y=              2.9867    Z=             -2.4059  Tot=             10.5035
 Quadrupole moment (field-independent basis, Debye-Ang):
   XX=            416.5904   YY=             -1.3327   ZZ=             -0.8614
   XY=             53.5396   XZ=            -55.0422   YZ=              2.2128

 Normal termination of Gaussian 16 at Fri Oct 15 05:17:17 2021.
