 Gaussian 16, Revision A.03,
 Gaussian 16:  ES64L-G16RevA.03 25-Dec-2016

 --------------------------------------------------------
 #p PBE1PBE/Def2SVP td=(nstates=5) density=(transition=1)
 --------------------------------------------------------

 --------------------------------
 TDDFT excited states in gaussian
 --------------------------------
 Symbolic Z-matrix:
 Charge =  0 Multiplicity = 1

                         Standard orientation:
 ---------------------------------------------------------------------
 Center     Atomic      Atomic             Coordinates (Angstroms)
 Number     Number       Type             X           Y           Z
 ---------------------------------------------------------------------
      1         12           0       16.438545   -0.611181    0.355540
      2          6           0       15.261999    2.423224   -1.184045
      3          6           0       17.569156    1.327824    2.927664
      4          6           0       17.796574   -3.399602    1.633013
      5          6           0       15.665290   -2.253654   -2.517702
      6          7           0       16.355115    1.717177    0.834539
      7          6           0       15.780785    2.672604    0.047306
      8          6           0       15.775960    3.934067    0.824498
      9          6           0       16.633215    3.641335    2.086953
     10          6           0       16.958008    2.125621    1.988990
     11          6           0       17.945269    4.488379    2.108990
     12          6           0       14.417214    4.501595    1.150803
     13          6           0       14.318677    5.902295    1.733275
     14          1           0       13.363102    6.821020    1.095506
     15          7           0       17.419013   -0.994490    2.075449
     16          6           0       17.896084   -0.020507    2.995528
     17          6           0       18.477925   -0.764650    4.128367
     18          6           0       18.608287   -2.081002    3.693481
     19          6           0       17.973261   -2.194393    2.367948
     20          6           0       18.970001   -0.048079    5.368482
     21          6           0       19.201794   -3.305180    4.423591
     22          8           0       19.475900   -4.384814    3.866835
     23          6           0       19.421614   -3.172468    5.875284
     24          7           0       16.769242   -2.578721   -0.357720
     25          6           0       17.320328   -3.573713    0.306662
     26          6           0       17.389543   -4.895819   -0.505934
     27          6           0       16.489077   -4.545561   -1.692602
     28          6           0       16.256568   -3.065055   -1.495715
     29          6           0       18.857915   -5.233077   -0.933148
     30          6           0       15.195053   -5.317306   -1.820233
     31          6           0       14.808987   -5.788573   -3.233553
     32          7           0       15.554595   -0.055834   -1.418126
     33          6           0       15.297531   -0.867976   -2.500996
     34          6           0       14.591512   -0.120848   -3.585246
     35          6           0       14.619773    1.148538   -3.043824
     36          6           0       15.238346    1.172015   -1.787993
     37          6           0       13.920804   -0.661056   -4.807262
     38          6           0       14.219572    2.516891   -3.336952
     39          8           0       13.608406    2.923274   -4.318804
     40          6           0       14.612038    3.420029   -2.145247
     41          6           0       15.332709    4.537905   -2.698884
     42          8           0       16.517574    4.541893   -3.111441
     43          8           0       14.603818    5.680595   -2.566811
     44          6           0       15.253359    6.950505   -2.807905
     45          1           0       17.859869    1.921845    3.796321
     46          1           0       18.375551   -4.263776    1.964878
     47          1           0       15.675116   -2.808589   -3.457928
     48          1           0       16.312741    4.619516    0.169968
     49          1           0       16.098515    3.857442    3.012045
     50          1           0       18.260674    5.087124    2.964047
     51          1           0       17.822491    5.185389    1.280163
     52          1           0       18.842893    3.958420    1.789246
     53          1           0       13.919352    3.913826    1.922196
     54          1           0       13.694343    4.309223    0.358474
     55          1           0       15.281512    6.408509    1.682746
     56          1           0       13.833166    5.774080    2.700367
     57          1           0       19.955464   -0.366059    5.708214
     58          1           0       18.296444   -0.124650    6.221799
     59          1           0       19.131567    1.023151    5.245712
     60          1           0       18.500599   -2.808168    6.330607
     61          1           0       20.199830   -2.411442    5.921212
     62          1           0       19.581380   -4.181419    6.253753
     63          1           0       16.956220   -5.665518    0.133648
     64          1           0       16.945937   -4.618638   -2.679123
     65          1           0       18.991413   -5.149121   -2.011274
     66          1           0       19.113350   -6.264864   -0.691701
     67          1           0       19.480507   -4.496336   -0.425284
     68          1           0       14.351551   -4.764255   -1.408252
     69          1           0       15.260966   -6.068133   -1.033489
     70          1           0       14.205152   -6.686857   -3.108564
     71          1           0       15.665111   -5.881296   -3.902513
     72          1           0       14.230082   -4.934814   -3.585154
     73          1           0       12.838085   -0.753928   -4.720398
     74          1           0       14.475662   -1.563767   -5.061300
     75          1           0       14.208473   -0.056606   -5.668383
     76          1           0       13.668334    3.855108   -1.816386
     77          1           0       16.329325    6.887092   -2.972479
     78          1           0       14.998707    7.666683   -2.027139
     79          1           0       14.869309    7.442348   -3.701987
     80         12           0      -16.141586   -0.872377   -0.080858
     81          6           0      -18.168592    1.788842    1.034191
     82          6           0      -13.823248    1.438880   -1.127192
     83          6           0      -14.187490   -3.345737   -1.240391
     84          6           0      -18.759403   -3.128201    0.468214
     85          7           0      -16.037403    1.303313    0.110983
     86          6           0      -16.881017    2.224696    0.567226
     87          6           0      -16.404808    3.690623    0.497588
     88          6           0      -15.150615    3.439724   -0.472083
     89          6           0      -15.016089    1.938135   -0.541256
     90          6           0      -15.309783    4.053106   -1.842032
     91          6           0      -15.974644    4.324824    1.933665
     92          6           0      -16.122362    5.848269    1.986036
     93          1           0      -17.124168    6.351864    3.056852
     94          7           0      -14.157519   -0.984509   -0.920401
     95          6           0      -13.392711    0.139967   -1.318159
     96          6           0      -12.069239   -0.348607   -1.633514
     97          6           0      -12.133387   -1.738964   -1.653229
     98          6           0      -13.524512   -2.108419   -1.243268
     99          6           0      -10.928156    0.538195   -2.094981
    100          6           0      -11.081435   -2.787998   -1.931949
    101          8           0      -11.351670   -3.947085   -1.810230
    102          6           0       -9.673533   -2.427334   -2.287299
    103          7           0      -16.476251   -2.897816   -0.539855
    104          6           0      -15.484732   -3.742797   -0.945587
    105          6           0      -16.102268   -5.168753   -0.953144
    106          6           0      -17.230966   -5.145041    0.061944
    107          6           0      -17.569702   -3.636567    0.011569
    108          6           0      -16.674841   -5.464368   -2.338645
    109          6           0      -16.865991   -5.649675    1.408846
    110          6           0      -15.587030   -5.170872    2.050013
    111          7           0      -18.069948   -0.766572    0.635352
    112          6           0      -19.036441   -1.740398    0.802787
    113          6           0      -20.242787   -1.118053    1.369821
    114          6           0      -19.920354    0.244760    1.491709
    115          6           0      -18.635130    0.399242    1.048635
    116          6           0      -21.509777   -1.792387    1.676339
    117          6           0      -20.342332    1.512698    2.023842
    118          8           0      -21.402834    1.844991    2.630377
    119          6           0      -19.159592    2.558183    1.753407
    120          6           0      -19.736762    3.632644    0.868685
    121          8           0      -20.377884    3.392186   -0.111031
    122          8           0      -19.419264    4.967599    1.238840
    123          6           0      -19.709141    6.000852    0.198560
    124          1           0      -13.098562    2.158126   -1.512948
    125          1           0      -13.626222   -4.162722   -1.699407
    126          1           0      -19.548446   -3.793859    0.824998
    127          1           0      -17.206790    4.326018    0.119758
    128          1           0      -14.318250    3.908460    0.054303
    129          1           0      -14.774751    5.002140   -1.811748
    130          1           0      -16.351156    4.121933   -2.157237
    131          1           0      -14.690420    3.424008   -2.481267
    132          1           0      -14.930344    4.091061    2.143080
    133          1           0      -16.538198    3.859676    2.742709
    134          1           0      -16.412139    6.071622    0.959066
    135          1           0      -15.162508    6.350115    2.106732
    136          1           0      -11.216322    1.535855   -1.765891
    137          1           0      -11.023045    0.505107   -3.179965
    138          1           0       -9.974070    0.255419   -1.649702
    139          1           0       -9.335749   -2.059298   -1.318358
    140          1           0       -9.580657   -1.626672   -3.020569
    141          1           0       -9.126378   -3.312201   -2.614270
    142          1           0      -15.401236   -5.980162   -0.760608
    143          1           0      -18.098238   -5.754200   -0.190571
    144          1           0      -17.749667   -5.394787   -2.506316
    145          1           0      -16.361313   -6.472478   -2.609585
    146          1           0      -16.188618   -4.796859   -3.050978
    147          1           0      -16.870049   -6.739153    1.449857
    148          1           0      -17.689902   -5.319706    2.041337
    149          1           0      -15.895596   -4.553648    2.894257
    150          1           0      -14.829443   -4.586955    1.526484
    151          1           0      -15.080858   -6.035818    2.478392
    152          1           0      -21.986409   -2.061358    0.733754
    153          1           0      -22.053761   -1.059816    2.272489
    154          1           0      -21.344660   -2.731526    2.206117
    155          1           0      -18.842329    2.872259    2.747963
    156          1           0      -20.775401    6.225761    0.176044
    157          1           0      -19.390853    5.704483   -0.801959
    158          1           0      -19.282244    6.987834    0.374362
 ---------------------------------------------------------------------

 SCF Done:  E(RPBE1PBE) =  -4067.38115620     A.U. after   16 cycles

 Excitation energies and oscillator strengths:

 Excited State   1:      Singlet-A      1.8249 eV  679.40 nm  f=0.3601  <S**2>=0.000
     310 -> 316        0.17188
     311 -> 313        0.69439
     311 <- 313       -0.10916
 This state for optimization and/or second-order correction.
 Total Energy, E(TD-HF/TD-DFT) =  -4067.31409182
 Copying the excited state density for this state as the 1-particle RhoCI density.

 Excited State   2:      Singlet-A      1.8569 eV  667.70 nm  f=0.0000  <S**2>=0.000
     312 -> 313        0.70710

 Excited State   3:      Singlet-A      2.1238 eV  583.79 nm  f=0.0000  <S**2>=0.000
     311 -> 314        0.70710

 Excited State   4:      Singlet-A      2.1781 eV  569.22 nm  f=0.1112  <S**2>=0.000
     310 -> 313        0.65714
     311 -> 316       -0.25114

 Excited State   5:      Singlet-A      2.5107 eV  493.83 nm  f=0.0000  <S**2>=0.000
     309 -> 313        0.70710

 The electronic state is 1-A.
 Alpha  occ. eigenvalues --  -46.92037 -46.91966 -19.25891 -19.25185 -19.20261
 Alpha  occ. eigenvalues --  -19.19274 -19.19157 -19.19048 -19.18927 -19.18737
 Alpha  occ. eigenvalues --  -14.42724 -14.41472 -14.41076 -14.40684 -14.39488
 Alpha  occ. eigenvalues --  -14.39328 -14.39249 -14.38898 -10.36469 -10.36191
 Alpha  occ. eigenvalues --  -10.32392 -10.32123 -10.32068 -10.31716 -10.29351
 Alpha  occ. eigenvalues --  -10.29039 -10.28950 -10.28830 -10.28528 -10.28519
 Alpha  occ. eigenvalues --  -10.28504 -10.28469 -10.28325 -10.28282 -10.28274
 Alpha  occ. eigenvalues --  -10.28214 -10.28105 -10.27955 -10.27885 -10.27504
 Alpha  occ. eigenvalues --  -10.26730 -10.26701 -10.26685 -10.26389 -10.26330
 Alpha  occ. eigenvalues --  -10.26192 -10.26155 -10.26128 -10.25976 -10.25969
 Alpha  occ. eigenvalues --  -10.25888 -10.25841 -10.25834 -10.25656 -10.25582
 Alpha  occ. eigenvalues --  -10.25450 -10.25406 -10.25255 -10.25083 -10.25027
 Alpha  occ. eigenvalues --  -10.25008 -10.24983 -10.24921 -10.24907 -10.24885
 Alpha  occ. eigenvalues --  -10.24759 -10.24590 -10.24564 -10.24531 -10.23947
 Alpha  occ. eigenvalues --  -10.23787 -10.23748 -10.23673 -10.23657 -10.23547
 Alpha  occ. eigenvalues --  -10.23545 -10.23474 -10.23381 -10.23359 -10.23240
 Alpha  occ. eigenvalues --  -10.23084 -10.22822 -10.22584 -10.22418 -10.22417
 Alpha  occ. eigenvalues --  -10.21917  -3.14150  -3.14115  -1.87000  -1.86979
 Alpha  occ. eigenvalues --   -1.86515  -1.86466  -1.86386  -1.86354  -1.10961
 Alpha  occ. eigenvalues --   -1.10375  -1.06639  -1.04300  -1.03780  -1.02247
 Alpha  occ. eigenvalues --   -1.01576  -1.00812  -1.00499  -0.99839  -0.99382
 Alpha  occ. eigenvalues --   -0.97981  -0.97847  -0.97747  -0.96877  -0.96424
 Alpha  occ. eigenvalues --   -0.87623  -0.87425  -0.84491  -0.84270  -0.83727
 Alpha  occ. eigenvalues --   -0.83654  -0.82999  -0.82846  -0.82001  -0.81931
 Alpha  occ. eigenvalues --   -0.81458  -0.81304  -0.81044  -0.80806  -0.79052
 Alpha  occ. eigenvalues --   -0.78900  -0.78406  -0.77911  -0.77283  -0.76833
 Alpha  occ. eigenvalues --   -0.76811  -0.76569  -0.75660  -0.75508  -0.75343
 Alpha  occ. eigenvalues --   -0.74234  -0.73004  -0.72991  -0.72102  -0.71833
 Alpha  occ. eigenvalues --   -0.71682  -0.71512  -0.70943  -0.70586  -0.69671
 Alpha  occ. eigenvalues --   -0.69344  -0.67536  -0.67016  -0.66478  -0.65761
 Alpha  occ. eigenvalues --   -0.64063  -0.63994  -0.63722  -0.63302  -0.62569
 Alpha  occ. eigenvalues --   -0.62312  -0.61408  -0.61004  -0.60920  -0.60210
 Alpha  occ. eigenvalues --   -0.59920  -0.59727  -0.59450  -0.59188  -0.58841
 Alpha  occ. eigenvalues --   -0.57904  -0.57214  -0.56399  -0.54991  -0.54776
 Alpha  occ. eigenvalues --   -0.54571  -0.54465  -0.54133  -0.53765  -0.53624
 Alpha  occ. eigenvalues --   -0.53472  -0.53079  -0.52928  -0.52301  -0.52295
 Alpha  occ. eigenvalues --   -0.51129  -0.50923  -0.50336  -0.50326  -0.50161
 Alpha  occ. eigenvalues --   -0.49250  -0.49077  -0.49041  -0.48658  -0.48642
 Alpha  occ. eigenvalues --   -0.48509  -0.48505  -0.48116  -0.48010  -0.47940
 Alpha  occ. eigenvalues --   -0.47809  -0.47705  -0.47537  -0.47131  -0.46718
 Alpha  occ. eigenvalues --   -0.46559  -0.46529  -0.46304  -0.46049  -0.45953
 Alpha  occ. eigenvalues --   -0.45864  -0.45491  -0.45483  -0.45363  -0.45103
 Alpha  occ. eigenvalues --   -0.44935  -0.44745  -0.44662  -0.44613  -0.44312
 Alpha  occ. eigenvalues --   -0.44308  -0.43969  -0.43850  -0.43727  -0.43703
 Alpha  occ. eigenvalues --   -0.43349  -0.43100  -0.43059  -0.43030  -0.42840
 Alpha  occ. eigenvalues --   -0.42639  -0.42462  -0.42400  -0.42193  -0.42085
 Alpha  occ. eigenvalues --   -0.41972  -0.41934  -0.41774  -0.41450  -0.41348
 Alpha  occ. eigenvalues --   -0.41069  -0.41034  -0.40918  -0.40767  -0.40457
 Alpha  occ. eigenvalues --   -0.40433  -0.40152  -0.40023  -0.40014  -0.39946
 Alpha  occ. eigenvalues --   -0.39616  -0.39399  -0.39132  -0.38874  -0.38835
 Alpha  occ. eigenvalues --   -0.38635  -0.38580  -0.38578  -0.38402  -0.38189
 Alpha  occ. eigenvalues --   -0.38095  -0.38029  -0.37844  -0.37652  -0.37416
 Alpha  occ. eigenvalues --   -0.37330  -0.37292  -0.37280  -0.36990  -0.36695
 Alpha  occ. eigenvalues --   -0.36661  -0.36537  -0.36444  -0.36411  -0.36143
 Alpha  occ. eigenvalues --   -0.36052  -0.35891  -0.35836  -0.35806  -0.35277
 Alpha  occ. eigenvalues --   -0.35209  -0.35111  -0.34965  -0.34716  -0.34456
 Alpha  occ. eigenvalues --   -0.33807  -0.33297  -0.32982  -0.32708  -0.32350
 Alpha  occ. eigenvalues --   -0.32193  -0.32115  -0.31457  -0.31224  -0.31135
 Alpha  occ. eigenvalues --   -0.31065  -0.30665  -0.29820  -0.29541  -0.29141
 Alpha  occ. eigenvalues --   -0.28818  -0.28648  -0.28257  -0.27236  -0.27133
 Alpha  occ. eigenvalues --   -0.26266  -0.25989  -0.25944  -0.25802  -0.25590
 Alpha  occ. eigenvalues --   -0.25476  -0.25304  -0.25264  -0.21077  -0.21036
 Alpha  occ. eigenvalues --   -0.18966  -0.18674
 Alpha virt. eigenvalues --   -0.11442  -0.10762  -0.05307  -0.05255  -0.03822
 Alpha virt. eigenvalues --   -0.03574  -0.02239  -0.01984  -0.00202   0.00031
 Alpha virt. eigenvalues --    0.00311   0.00729   0.00929   0.01342   0.01378

 Mulliken charges:
               1
     1  Mg  12.000028
     2  C    5.999543
     3  C    6.000092
     4  C    6.000438
     5  C    6.000055
     6  N    6.999816
     7  C    6.000533
     8  C    5.999853
     9  C    6.000133
    10  C    5.999651
    11  C    6.000168
    12  C    5.999910
    13  C    5.999994
    14  H    1.000052
    15  N    7.000156
    16  C    5.999337
    17  C    5.999673
    18  C    5.999698
    19  C    5.999433
    20  C    6.000173
    21  C    5.999769
    22  O    7.999449
    23  C    6.000048
    24  N    7.000168
    25  C    5.999440
    26  C    6.000115
    27  C    5.999909
    28  C    6.000500
    29  C    6.000018
    30  C    5.999787
    31  C    6.000015
    32  N    6.999987
    33  C    6.000466
    34  C    6.000511
    35  C    5.999984
    36  C    6.000578
    37  C    5.999961
    38  C    6.000359
    39  O    8.000588
    40  C    6.000079
    41  C    6.000018
    42  O    7.999996
    43  O    8.000084
    44  C    5.999990
    45  H    0.999727
    46  H    0.999863
    47  H    1.000192
    48  H    0.999895
    49  H    0.999950
    50  H    0.999853
    51  H    0.999744
    52  H    0.999926
    53  H    1.000193
    54  H    0.999994
    55  H    0.999939
    56  H    1.000079
    57  H    0.999609
    58  H    0.999662
    59  H    0.999677
    60  H    0.999910
    61  H    0.999842
    62  H    0.999686
    63  H    1.000048
    64  H    0.999959
    65  H    0.999800
    66  H    0.999914
    67  H    1.000048
    68  H    1.000181
    69  H    1.000215
    70  H    1.000172
    71  H    0.999960
    72  H    1.000003
    73  H    1.000584
    74  H    1.000214
    75  H    1.000255
    76  H    1.000241
    77  H    0.999962
    78  H    1.000081
    79  H    1.000064
    80  Mg  12.004381
    81  C    5.982650
    82  C    6.012126
    83  C    6.013927
    84  C    5.990135
    85  N    6.988773
    86  C    6.038347
    87  C    5.986404
    88  C    6.016387
    89  C    5.962352
    90  C    6.003502
    91  C    5.998984
    92  C    5.999928
    93  H    0.996533
    94  N    7.006884
    95  C    5.957695
    96  C    5.987566
    97  C    5.978809
    98  C    5.973073
    99  C    6.000459
   100  C    5.988373
   101  O    7.971897
   102  C    6.002649
   103  N    7.000807
   104  C    5.974078
   105  C    6.003250
   106  C    5.995937
   107  C    6.027190
   108  C    5.998365
   109  C    5.993962
   110  C    6.000324
   111  N    7.002043
   112  C    6.037697
   113  C    6.032705
   114  C    6.000200
   115  C    6.026219
   116  C    5.999443
   117  C    6.013579
   118  O    8.029016
   119  C    6.003203
   120  C    6.005390
   121  O    8.002157
   122  O    8.002818
   123  C    5.997883
   124  H    0.989688
   125  H    0.995592
   126  H    1.007825
   127  H    0.997732
   128  H    0.994638
   129  H    0.992143
   130  H    0.986398
   131  H    1.005742
   132  H    1.010633
   133  H    0.993997
   134  H    1.002810
   135  H    1.005255
   136  H    0.985941
   137  H    0.985808
   138  H    0.986378
   139  H    0.992490
   140  H    0.992961
   141  H    0.986359
   142  H    1.001263
   143  H    1.000390
   144  H    0.988706
   145  H    0.998546
   146  H    1.006384
   147  H    1.007031
   148  H    0.993664
   149  H    0.994099
   150  H    1.015294
   151  H    1.002760
   152  H    1.020952
   153  H    1.012745
   154  H    1.019404
   155  H    1.005927
   156  H    1.001473
   157  H    1.005334
   158  H    1.005542
 Sum of Mulliken charges = 624.00000

 Dipole moment (field-independent basis, Debye):
    X=             -9.4423    Y=              0.6853    Z=              3.8007  Tot=             10.2015
 Quadrupole moment (field-independent basis, Debye-Ang):
   XX=            297.1329   YY=              0.7972   ZZ=             -1.1251
   XY=             -2.7517   XZ=            -65.3248   YZ=             -2.4060

 Normal termination of Gaussian 16 at Fri Oct 15 03:48:48 2021.
