 Gaussian 16, Revision A.03,
 Gaussian 16:  ES64L-G16RevA.03 25-Dec-2016

 --------------------------------------------------------
 #p PBE1PBE/Def2SVP td=(nstates=5) density=(transition=1)
 --------------------------------------------------------

 --------------------------------
 TDDFT excited states in gaussian
 --------------------------------
 Symbolic Z-matrix:
 Charge =  0 Multiplicity = 1

                         Standard orientation:
 ---------------------------------------------------------------------
 Center     Atomic      Atomic             Coordinates (Angstroms)
 Number     Number       Type             X           Y           Z
 ---------------------------------------------------------------------
      1         12           0      -21.309306    0.096173    0.063603
      2          6           0      -18.284620    1.303979   -0.967098
      3          6           0      -21.826017   -1.023733   -3.274278
      4          6           0      -24.113961   -1.454307    1.119934
      5          6           0      -20.272357    0.410025    3.374700
      6          7           0      -19.944057   -0.181670   -1.883119
      7          6           0      -18.860064    0.621344   -2.075072
      8          6           0      -18.334115    0.442218   -3.472298
      9          6           0      -19.485005   -0.353113   -4.228900
     10          6           0      -20.538724   -0.553852   -3.094189
     11          6           0      -19.795738    0.089055   -5.612177
     12          6           0      -16.856691   -0.132700   -3.700484
     13          6           0      -16.314466   -1.110685   -2.700731
     14          1           0      -15.676866   -2.379302   -3.249699
     15          7           0      -22.862158   -0.858343   -0.983776
     16          6           0      -22.911619   -1.192661   -2.301555
     17          6           0      -24.120120   -1.885799   -2.637279
     18          6           0      -24.874140   -1.918156   -1.352868
     19          6           0      -23.950448   -1.387644   -0.326421
     20          6           0      -24.546124   -2.395877   -3.930461
     21          6           0      -26.296088   -2.394427   -1.092902
     22          8           0      -26.906017   -2.950330   -1.935908
     23          6           0      -27.036493   -2.327246    0.214044
     24          7           0      -22.001201   -0.547876    1.935602
     25          6           0      -23.258095   -0.989597    2.095138
     26          6           0      -23.519276   -1.428303    3.630165
     27          6           0      -22.437827   -0.472085    4.334134
     28          6           0      -21.509469   -0.245618    3.164756
     29          6           0      -24.945309   -1.223757    4.149084
     30          6           0      -21.851721   -1.079764    5.621319
     31          6           0      -21.754061   -0.249766    6.906776
     32          7           0      -19.577836    0.626009    1.032930
     33          6           0      -19.279040    0.758479    2.383281
     34          6           0      -18.028203    1.381653    2.579870
     35          6           0      -17.582065    1.684174    1.303937
     36          6           0      -18.564608    1.202859    0.367852
     37          6           0      -17.366090    1.724059    3.878657
     38          6           0      -16.617915    2.293793    0.486220
     39          8           0      -15.582460    2.850080    0.846298
     40          6           0      -16.914781    1.938922   -0.998635
     41          6           0      -16.857929    3.291155   -1.694009
     42          8           0      -16.164099    3.531127   -2.704844
     43          8           0      -17.794505    4.101618   -1.096881
     44          6           0      -18.187049    5.410224   -1.674755
     45          1           0      -21.866769   -1.448747   -4.279281
     46          1           0      -24.906211   -2.124730    1.459180
     47          1           0      -19.986509    0.569441    4.416148
     48          1           0      -18.202475    1.428751   -3.918240
     49          1           0      -19.114779   -1.371247   -4.345531
     50          1           0      -20.861381    0.227494   -5.794383
     51          1           0      -19.312283   -0.535434   -6.363450
     52          1           0      -19.389041    1.088118   -5.769219
     53          1           0      -16.075850    0.627699   -3.718296
     54          1           0      -16.839095   -0.730777   -4.612115
     55          1           0      -16.970510   -1.309469   -1.853923
     56          1           0      -15.421443   -0.656208   -2.270441
     57          1           0      -24.128531   -1.760878   -4.711177
     58          1           0      -25.627131   -2.444683   -4.055851
     59          1           0      -24.136113   -3.402604   -4.018736
     60          1           0      -26.553398   -1.409314    0.549735
     61          1           0      -26.801975   -3.158315    0.878463
     62          1           0      -28.122222   -2.240994    0.167942
     63          1           0      -23.163060   -2.456102    3.706074
     64          1           0      -22.736466    0.538331    4.612282
     65          1           0      -24.918414   -0.358736    4.812305
     66          1           0      -25.352502   -2.163936    4.519912
     67          1           0      -25.654170   -0.964718    3.363189
     68          1           0      -20.846130   -1.419816    5.372392
     69          1           0      -22.377450   -2.014578    5.816406
     70          1           0      -22.129938   -0.679236    7.835539
     71          1           0      -22.137296    0.764616    6.788548
     72          1           0      -20.686714   -0.035475    6.950733
     73          1           0      -16.776697    2.641137    3.862347
     74          1           0      -16.714692    0.896693    4.161118
     75          1           0      -18.073710    1.901320    4.689622
     76          1           0      -16.088318    1.277486   -1.255694
     77          1           0      -19.254285    5.608247   -1.576817
     78          1           0      -17.919857    5.406637   -2.731617
     79          1           0      -17.739829    6.335043   -1.312483
     80         12           0       20.467970   -0.887778   -0.001690
     81          6           0       21.246420    2.645032    0.145435
     82          6           0       17.605150   -0.094109    1.267852
     83          6           0       20.061263   -4.158182    0.038171
     84          6           0       23.968966   -1.626344   -0.639805
     85          7           0       19.499076    1.128589    0.521088
     86          6           0       19.951901    2.431574    0.526380
     87          6           0       18.901999    3.341235    1.054675
     88          6           0       17.964469    2.392425    1.844880
     89          6           0       18.389748    1.041867    1.221882
     90          6           0       18.197739    2.391446    3.371601
     91          6           0       18.110079    3.973727   -0.130123
     92          6           0       17.801803    5.517556   -0.024458
     93          1           0       17.443203    6.343007   -1.323712
     94          7           0       18.912822   -1.994905    0.569079
     95          6           0       17.765303   -1.512094    0.965038
     96          6           0       16.842504   -2.618867    1.132895
     97          6           0       17.552673   -3.743008    0.649518
     98          6           0       18.906763   -3.315535    0.423772
     99          6           0       15.384711   -2.375580    1.563777
    100          6           0       17.008778   -5.133654    0.475480
    101          8           0       17.718567   -6.012222    0.086017
    102          6           0       15.551865   -5.379654    0.696319
    103          7           0       21.970465   -2.670255   -0.000138
    104          6           0       21.408535   -3.870786   -0.125013
    105          6           0       22.378942   -4.896849   -0.576236
    106          6           0       23.697451   -4.060389   -0.592766
    107          6           0       23.224162   -2.645038   -0.391513
    108          6           0       22.436132   -6.253612    0.213809
    109          6           0       24.503385   -4.294009   -1.929849
    110          6           0       25.794245   -5.159299   -1.910096
    111          7           0       22.208012    0.150236   -0.206563
    112          6           0       23.531429   -0.219220   -0.535378
    113          6           0       24.362604    0.995572   -0.663766
    114          6           0       23.510340    2.066337   -0.429365
    115          6           0       22.261064    1.556970   -0.117990
    116          6           0       25.898497    1.009624   -0.855916
    117          6           0       23.498160    3.563463   -0.370761
    118          8           0       24.327265    4.416908   -0.581425
    119          6           0       22.049487    3.999828    0.180304
    120          6           0       21.517519    5.093607   -0.546379
    121          8           0       20.778170    4.933974   -1.527666
    122          8           0       21.898930    6.366213   -0.132859
    123          6           0       21.217423    7.555815   -0.729397
    124          1           0       16.591331    0.039128    1.649463
    125          1           0       19.911197   -5.238584   -0.011560
    126          1           0       25.021715   -1.830818   -0.840722
    127          1           0       19.337050    4.027405    1.781783
    128          1           0       16.893904    2.565245    1.736511
    129          1           0       17.295469    2.707584    3.895960
    130          1           0       19.009196    3.091678    3.567686
    131          1           0       18.523692    1.435091    3.781517
    132          1           0       17.162473    3.435015   -0.146516
    133          1           0       18.670355    3.719272   -1.029586
    134          1           0       18.644286    5.986237    0.483406
    135          1           0       16.940149    5.531793    0.644024
    136          1           0       14.731068   -2.653520    0.735957
    137          1           0       15.152929   -1.372215    1.919387
    138          1           0       15.093657   -3.098577    2.325252
    139          1           0       14.924768   -4.821187    0.001857
    140          1           0       15.134238   -5.039895    1.644016
    141          1           0       15.341125   -6.430467    0.496053
    142          1           0       22.130238   -5.152411   -1.606262
    143          1           0       24.276742   -4.285301    0.303006
    144          1           0       21.615954   -6.222402    0.930297
    145          1           0       23.390144   -6.532174    0.662821
    146          1           0       22.272280   -7.067570   -0.492599
    147          1           0       24.830622   -3.328600   -2.316820
    148          1           0       23.740898   -4.541747   -2.668310
    149          1           0       25.781271   -5.861898   -2.743174
    150          1           0       25.865894   -5.682550   -0.956437
    151          1           0       26.678297   -4.533727   -2.039148
    152          1           0       26.165433    0.134344   -1.447476
    153          1           0       26.379569    0.859303    0.110838
    154          1           0       26.242993    1.922777   -1.341829
    155          1           0       22.163390    4.286441    1.225347
    156          1           0       20.153475    7.560333   -0.488371
    157          1           0       21.514506    7.709030   -1.766184
    158          1           0       21.524273    8.415884   -0.134363
 ---------------------------------------------------------------------

 SCF Done:  E(RPBE1PBE) =  -4067.29559260     A.U. after   16 cycles

 Excitation energies and oscillator strengths:

 Excited State   1:      Singlet-A      1.7943 eV  690.97 nm  f=0.3744  <S**2>=0.000
     309 -> 315        0.16553
     311 -> 313        0.69590
     311 <- 313       -0.11769
 This state for optimization and/or second-order correction.
 Total Energy, E(TD-HF/TD-DFT) =  -4067.22965182
 Copying the excited state density for this state as the 1-particle RhoCI density.

 Excited State   2:      Singlet-A      1.8234 eV  679.98 nm  f=0.0000  <S**2>=0.000
     312 -> 313        0.70710

 Excited State   3:      Singlet-A      1.8808 eV  659.23 nm  f=0.3634  <S**2>=0.000
     310 -> 316        0.15930
     312 -> 314        0.69582
     312 <- 314       -0.11003

 Excited State   4:      Singlet-A      2.0839 eV  594.97 nm  f=0.0000  <S**2>=0.000
     311 -> 314        0.70711

 Excited State   5:      Singlet-A      2.1559 eV  575.10 nm  f=0.1300  <S**2>=0.000
     308 -> 313        0.10065
     309 -> 313        0.65388
     311 -> 315       -0.23178

 The electronic state is 1-A.
 Alpha  occ. eigenvalues --  -46.93383 -46.92812 -19.26800 -19.24642 -19.20536
 Alpha  occ. eigenvalues --  -19.20052 -19.19207 -19.18771 -19.18549 -19.17646
 Alpha  occ. eigenvalues --  -14.42146 -14.41539 -14.41166 -14.39861 -14.39715
 Alpha  occ. eigenvalues --  -14.39663 -14.39255 -14.39209 -10.37469 -10.35496
 Alpha  occ. eigenvalues --  -10.33310 -10.31998 -10.31286 -10.30942 -10.29972
 Alpha  occ. eigenvalues --  -10.29688 -10.29232 -10.28924 -10.28867 -10.28813
 Alpha  occ. eigenvalues --  -10.28685 -10.28485 -10.28484 -10.28268 -10.28210
 Alpha  occ. eigenvalues --  -10.27983 -10.27917 -10.27902 -10.27497 -10.27441
 Alpha  occ. eigenvalues --  -10.26893 -10.26801 -10.26633 -10.26620 -10.26449
 Alpha  occ. eigenvalues --  -10.26271 -10.26266 -10.26151 -10.25992 -10.25965
 Alpha  occ. eigenvalues --  -10.25929 -10.25919 -10.25842 -10.25809 -10.25798
 Alpha  occ. eigenvalues --  -10.25730 -10.25433 -10.25388 -10.25311 -10.25281
 Alpha  occ. eigenvalues --  -10.25174 -10.25040 -10.24779 -10.24657 -10.24586
 Alpha  occ. eigenvalues --  -10.24499 -10.24429 -10.24414 -10.24342 -10.24082
 Alpha  occ. eigenvalues --  -10.23908 -10.23863 -10.23688 -10.23684 -10.23676
 Alpha  occ. eigenvalues --  -10.23639 -10.23588 -10.23447 -10.23391 -10.23237
 Alpha  occ. eigenvalues --  -10.23155 -10.23117 -10.23011 -10.22995 -10.22735
 Alpha  occ. eigenvalues --  -10.22650  -3.15435  -3.14916  -1.88231  -1.87845
 Alpha  occ. eigenvalues --   -1.87742  -1.87632  -1.87296  -1.87140  -1.10359
 Alpha  occ. eigenvalues --   -1.08936  -1.06679  -1.06412  -1.05793  -1.03943
 Alpha  occ. eigenvalues --   -1.02015  -1.00880  -1.00473  -0.99784  -0.99595
 Alpha  occ. eigenvalues --   -0.99456  -0.98971  -0.97663  -0.96944  -0.95906
 Alpha  occ. eigenvalues --   -0.87969  -0.85686  -0.84142  -0.83520  -0.83224
 Alpha  occ. eigenvalues --   -0.83038  -0.82773  -0.82277  -0.82213  -0.81949
 Alpha  occ. eigenvalues --   -0.81758  -0.81611  -0.80390  -0.79709  -0.78902
 Alpha  occ. eigenvalues --   -0.78637  -0.78260  -0.77414  -0.77371  -0.76458
 Alpha  occ. eigenvalues --   -0.76306  -0.76032  -0.75346  -0.75298  -0.74907
 Alpha  occ. eigenvalues --   -0.74697  -0.72913  -0.72829  -0.72151  -0.71434
 Alpha  occ. eigenvalues --   -0.71419  -0.71053  -0.70990  -0.70490  -0.69906
 Alpha  occ. eigenvalues --   -0.69720  -0.68100  -0.67346  -0.66248  -0.65515
 Alpha  occ. eigenvalues --   -0.64405  -0.63862  -0.63497  -0.63197  -0.62755
 Alpha  occ. eigenvalues --   -0.62381  -0.61665  -0.61204  -0.60694  -0.60461
 Alpha  occ. eigenvalues --   -0.60127  -0.60054  -0.59583  -0.59271  -0.58872
 Alpha  occ. eigenvalues --   -0.58804  -0.58144  -0.55864  -0.55621  -0.54876
 Alpha  occ. eigenvalues --   -0.54666  -0.54040  -0.53640  -0.53555  -0.52658
 Alpha  occ. eigenvalues --   -0.52544  -0.52181  -0.52019  -0.51875  -0.51776
 Alpha  occ. eigenvalues --   -0.51175  -0.51036  -0.50401  -0.50310  -0.50101
 Alpha  occ. eigenvalues --   -0.49906  -0.49686  -0.49010  -0.48545  -0.48538
 Alpha  occ. eigenvalues --   -0.48419  -0.47990  -0.47919  -0.47762  -0.47345
 Alpha  occ. eigenvalues --   -0.47104  -0.47086  -0.46982  -0.46637  -0.46522
 Alpha  occ. eigenvalues --   -0.46427  -0.46409  -0.46333  -0.46035  -0.45955
 Alpha  occ. eigenvalues --   -0.45694  -0.45406  -0.45210  -0.44937  -0.44905
 Alpha  occ. eigenvalues --   -0.44665  -0.44609  -0.44429  -0.44351  -0.44270
 Alpha  occ. eigenvalues --   -0.44173  -0.44015  -0.43874  -0.43834  -0.43670
 Alpha  occ. eigenvalues --   -0.43521  -0.43363  -0.42986  -0.42979  -0.42518
 Alpha  occ. eigenvalues --   -0.42472  -0.42350  -0.42349  -0.42210  -0.42097
 Alpha  occ. eigenvalues --   -0.42039  -0.41964  -0.41868  -0.41706  -0.41217
 Alpha  occ. eigenvalues --   -0.41116  -0.40961  -0.40928  -0.40578  -0.40359
 Alpha  occ. eigenvalues --   -0.40324  -0.40212  -0.40179  -0.40174  -0.39791
 Alpha  occ. eigenvalues --   -0.39655  -0.39601  -0.39597  -0.39372  -0.39055
 Alpha  occ. eigenvalues --   -0.39010  -0.38830  -0.38777  -0.38360  -0.38242
 Alpha  occ. eigenvalues --   -0.38159  -0.37985  -0.37925  -0.37644  -0.37543
 Alpha  occ. eigenvalues --   -0.37498  -0.37296  -0.37136  -0.37136  -0.36927
 Alpha  occ. eigenvalues --   -0.36799  -0.36715  -0.36577  -0.36445  -0.36235
 Alpha  occ. eigenvalues --   -0.36211  -0.35895  -0.35507  -0.35408  -0.35281
 Alpha  occ. eigenvalues --   -0.35161  -0.35088  -0.34825  -0.34750  -0.33973
 Alpha  occ. eigenvalues --   -0.33711  -0.33273  -0.33083  -0.32640  -0.32360
 Alpha  occ. eigenvalues --   -0.32039  -0.31865  -0.31527  -0.31181  -0.31163
 Alpha  occ. eigenvalues --   -0.30699  -0.30672  -0.29842  -0.29012  -0.28779
 Alpha  occ. eigenvalues --   -0.28617  -0.28331  -0.27688  -0.27225  -0.27189
 Alpha  occ. eigenvalues --   -0.26555  -0.26363  -0.26118  -0.26001  -0.25480
 Alpha  occ. eigenvalues --   -0.25304  -0.24973  -0.23773  -0.21443  -0.20510
 Alpha  occ. eigenvalues --   -0.19388  -0.19103
 Alpha virt. eigenvalues --   -0.12086  -0.11410  -0.05514  -0.04009  -0.03920
 Alpha virt. eigenvalues --   -0.03304  -0.01923  -0.01822  -0.01784  -0.00457
 Alpha virt. eigenvalues --   -0.00081  -0.00036   0.00582   0.01054   0.01785

 Mulliken charges:
               1
     1  Mg  11.997509
     2  C    5.999089
     3  C    6.014206
     4  C    6.017142
     5  C    5.987222
     6  N    7.004860
     7  C    6.025063
     8  C    5.990558
     9  C    6.013276
    10  C    5.964863
    11  C    6.001282
    12  C    5.999491
    13  C    5.997285
    14  H    1.010142
    15  N    7.003826
    16  C    5.957863
    17  C    5.976864
    18  C    5.993434
    19  C    5.959918
    20  C    6.003703
    21  C    5.989607
    22  O    7.981009
    23  C    5.999077
    24  N    6.997453
    25  C    5.970864
    26  C    6.009535
    27  C    5.988979
    28  C    6.034995
    29  C    6.000376
    30  C    5.997905
    31  C    6.001311
    32  N    6.999445
    33  C    6.031783
    34  C    6.024083
    35  C    6.006689
    36  C    6.023968
    37  C    5.997829
    38  C    6.016952
    39  O    8.034052
    40  C    5.998150
    41  C    6.005920
    42  O    8.010987
    43  O    7.995011
    44  C    5.995219
    45  H    0.991073
    46  H    0.993481
    47  H    1.008066
    48  H    0.998009
    49  H    0.994370
    50  H    1.005154
    51  H    0.996040
    52  H    0.991100
    53  H    0.996879
    54  H    1.008864
    55  H    0.995981
    56  H    0.996123
    57  H    0.982308
    58  H    0.985227
    59  H    0.978962
    60  H    0.995506
    61  H    0.988641
    62  H    0.987817
    63  H    0.996229
    64  H    1.003100
    65  H    0.992546
    66  H    0.999080
    67  H    1.006445
    68  H    0.997195
    69  H    1.009383
    70  H    1.004503
    71  H    1.000951
    72  H    0.995220
    73  H    1.012691
    74  H    1.017372
    75  H    1.017135
    76  H    1.008074
    77  H    1.006979
    78  H    1.006656
    79  H    1.004044
    80  Mg  12.000025
    81  C    5.999836
    82  C    5.999904
    83  C    6.000155
    84  C    6.000090
    85  N    6.999858
    86  C    6.000174
    87  C    5.999975
    88  C    6.000043
    89  C    5.999895
    90  C    6.000047
    91  C    6.000000
    92  C    6.000014
    93  H    0.999964
    94  N    7.000045
    95  C    5.999844
    96  C    5.999812
    97  C    5.999955
    98  C    5.999782
    99  C    6.000085
   100  C    5.999933
   101  O    7.999906
   102  C    6.000061
   103  N    7.000071
   104  C    5.999840
   105  C    6.000031
   106  C    5.999974
   107  C    6.000050
   108  C    5.999987
   109  C    5.999964
   110  C    5.999990
   111  N    7.000017
   112  C    6.000185
   113  C    6.000257
   114  C    5.999965
   115  C    6.000229
   116  C    5.999944
   117  C    6.000119
   118  O    8.000171
   119  C    5.999997
   120  C    6.000021
   121  O    8.000029
   122  O    8.000011
   123  C    5.999999
   124  H    0.999824
   125  H    1.000012
   126  H    1.000130
   127  H    0.999981
   128  H    0.999896
   129  H    0.999887
   130  H    0.999939
   131  H    1.000023
   132  H    1.000014
   133  H    1.000004
   134  H    1.000009
   135  H    0.999949
   136  H    0.999824
   137  H    0.999836
   138  H    0.999847
   139  H    0.999910
   140  H    0.999918
   141  H    0.999936
   142  H    1.000020
   143  H    1.000052
   144  H    1.000013
   145  H    1.000015
   146  H    1.000034
   147  H    0.999975
   148  H    1.000055
   149  H    1.000072
   150  H    1.000041
   151  H    1.000024
   152  H    1.000133
   153  H    1.000164
   154  H    1.000131
   155  H    1.000036
   156  H    0.999977
   157  H    1.000036
   158  H    1.000026
 Sum of Mulliken charges = 624.00000

 Dipole moment (field-independent basis, Debye):
    X=              8.3687    Y=              4.4045    Z=              4.5393  Tot=             10.4899
 Quadrupole moment (field-independent basis, Debye-Ang):
   XX=           -347.1433   YY=              0.8935   ZZ=              0.0142
   XY=            -92.6133   XZ=            -98.5268   YZ=             -2.9989

 Normal termination of Gaussian 16 at Thu Oct 14 05:45:14 2021.
