 Gaussian 16, Revision A.03,
 Gaussian 16:  ES64L-G16RevA.03 25-Dec-2016

 --------------------------------------------------------
 #p PBE1PBE/Def2SVP td=(nstates=5) density=(transition=1)
 --------------------------------------------------------

 --------------------------------
 TDDFT excited states in gaussian
 --------------------------------
 Symbolic Z-matrix:
 Charge =  0 Multiplicity = 1

                         Standard orientation:
 ---------------------------------------------------------------------
 Center     Atomic      Atomic             Coordinates (Angstroms)
 Number     Number       Type             X           Y           Z
 ---------------------------------------------------------------------
      1         12           0      -26.468196    0.403009    0.048493
      2          6           0      -24.209151   -2.266770    0.190858
      3          6           0      -23.724836    2.386820   -0.658007
      4          6           0      -28.573712    2.944000   -0.453674
      5          6           0      -29.117980   -1.873968   -0.071551
      6          7           0      -24.123559   -0.026862   -0.405167
      7          6           0      -23.464195   -1.173902   -0.153349
      8          6           0      -21.975672   -1.078980   -0.387685
      9          6           0      -21.888642    0.494575   -0.357960
     10          6           0      -23.303746    1.035924   -0.533336
     11          6           0      -21.348796    0.969222    1.017566
     12          6           0      -21.557465   -1.852934   -1.644297
     13          6           0      -22.447988   -1.810914   -2.903537
     14          1           0      -21.733830   -1.506821   -4.215173
     15          7           0      -26.200639    2.365385   -0.463608
     16          6           0      -24.989092    2.992396   -0.586603
     17          6           0      -25.188345    4.441440   -0.453581
     18          6           0      -26.618907    4.671785   -0.549969
     19          6           0      -27.180004    3.288372   -0.474013
     20          6           0      -24.012317    5.481715   -0.596722
     21          6           0      -27.325432    6.022560   -0.688891
     22          8           0      -26.709006    7.046977   -0.592216
     23          6           0      -28.810876    6.075008   -0.901440
     24          7           0      -28.585349    0.446519   -0.442751
     25          6           0      -29.295974    1.659658   -0.503151
     26          6           0      -30.862628    1.452982   -0.652044
     27          6           0      -30.987683   -0.132918   -0.457425
     28          6           0      -29.461360   -0.563455   -0.267940
     29          6           0      -31.885301    2.299002    0.259109
     30          6           0      -31.745522   -0.957093   -1.595581
     31          6           0      -32.532168   -2.207223   -0.959680
     32          7           0      -26.701999   -1.672851    0.108463
     33          6           0      -27.847778   -2.441397    0.141946
     34          6           0      -27.481199   -3.837001    0.349753
     35          6           0      -26.066344   -3.871868    0.449368
     36          6           0      -25.626647   -2.519300    0.214064
     37          6           0      -28.423524   -4.984089    0.604890
     38          6           0      -24.817071   -4.691483    0.573342
     39          8           0      -24.670165   -5.892789    0.610540
     40          6           0      -23.624903   -3.648747    0.462255
     41          6           0      -22.873153   -3.716806    1.763139
     42          8           0      -22.073683   -4.637905    2.065175
     43          8           0      -23.087028   -2.551860    2.485582
     44          6           0      -22.257512   -2.379633    3.631119
     45          1           0      -22.852075    3.029847   -0.790030
     46          1           0      -29.357339    3.703457   -0.408259
     47          1           0      -29.962508   -2.547433    0.089462
     48          1           0      -21.408183   -1.414149    0.480281
     49          1           0      -21.271607    0.985650   -1.109212
     50          1           0      -21.843608    1.919754    1.218416
     51          1           0      -20.259993    0.993725    1.013711
     52          1           0      -21.635672    0.424919    1.917857
     53          1           0      -21.571264   -2.903949   -1.357365
     54          1           0      -20.543302   -1.550165   -1.905162
     55          1           0      -23.186204   -1.017963   -2.786254
     56          1           0      -22.898035   -2.794990   -3.031305
     57          1           0      -23.683235    5.669493   -1.619113
     58          1           0      -23.159635    5.150575   -0.003854
     59          1           0      -24.183299    6.461616   -0.152496
     60          1           0      -29.154275    7.083145   -1.135751
     61          1           0      -29.380197    5.714923   -0.044286
     62          1           0      -28.921029    5.510791   -1.827902
     63          1           0      -30.977764    1.732120   -1.698713
     64          1           0      -31.481730   -0.372905    0.483635
     65          1           0      -32.120932    3.210841   -0.288408
     66          1           0      -31.454526    2.532539    1.232366
     67          1           0      -32.773275    1.691171    0.433933
     68          1           0      -31.036056   -1.441655   -2.266275
     69          1           0      -32.393988   -0.308386   -2.184973
     70          1           0      -32.156265   -3.149299   -1.358997
     71          1           0      -33.591757   -2.128209   -1.201077
     72          1           0      -32.435498   -2.405993    0.107119
     73          1           0      -29.098490   -5.069038   -0.246086
     74          1           0      -29.014231   -4.779858    1.498152
     75          1           0      -27.902974   -5.937683    0.691592
     76          1           0      -22.964803   -4.087933   -0.285401
     77          1           0      -22.441670   -1.395842    4.062182
     78          1           0      -21.214421   -2.596269    3.399965
     79          1           0      -22.554362   -3.031178    4.452945
     80         12           0       26.356122   -0.290297   -0.579269
     81          6           0       25.168082    1.352443    2.285174
     82          6           0       27.141669   -2.992239    1.210685
     83          6           0       27.478261   -1.608773   -3.313504
     84          6           0       26.413663    2.983384   -2.118221
     85          7           0       26.249292   -0.674857    1.538038
     86          6           0       25.605136    0.007791    2.492954
     87          6           0       25.713571   -0.664392    3.837293
     88          6           0       26.710244   -1.855909    3.541166
     89          6           0       26.698194   -1.866726    2.024811
     90          6           0       28.153805   -1.785315    4.136734
     91          6           0       24.281077   -1.249727    4.294211
     92          6           0       23.902275   -0.887474    5.767653
     93          1           0       22.344417   -1.219664    6.082478
     94          7           0       26.941112   -2.089369   -1.026836
     95          6           0       27.180720   -3.136126   -0.152967
     96          6           0       27.372057   -4.335573   -0.920937
     97          6           0       27.454791   -4.005233   -2.335383
     98          6           0       27.175849   -2.518175   -2.321266
     99          6           0       27.627873   -5.674853   -0.171787
    100          6           0       27.693909   -4.779414   -3.626654
    101          8           0       27.639140   -4.322312   -4.782647
    102          6           0       27.900071   -6.233694   -3.390253
    103          7           0       26.992744    0.655021   -2.349372
    104          6           0       27.429236   -0.207290   -3.324635
    105          6           0       27.927460    0.559773   -4.550016
    106          6           0       27.305703    1.959878   -4.306035
    107          6           0       26.929206    1.911468   -2.823938
    108          6           0       29.498816    0.436288   -4.662882
    109          6           0       26.070476    2.344897   -5.226113
    110          6           0       25.799844    3.844230   -5.429486
    111          7           0       25.861757    1.768497   -0.082062
    112          6           0       25.944399    2.919004   -0.806289
    113          6           0       25.366941    4.032309   -0.086988
    114          6           0       24.987765    3.410269    1.116638
    115          6           0       25.361526    2.058840    1.104295
    116          6           0       25.176403    5.520743   -0.459073
    117          6           0       24.342673    3.668135    2.373750
    118          8           0       23.713707    4.598567    2.805360
    119          6           0       24.597998    2.337611    3.254753
    120          6           0       23.277157    2.156307    3.862687
    121          8           0       22.251966    1.611271    3.381056
    122          8           0       23.374645    2.722535    5.077897
    123          6           0       22.186208    2.739168    5.931944
    124          1           0       27.317017   -3.912481    1.772073
    125          1           0       27.784727   -2.062477   -4.258535
    126          1           0       26.365356    3.927355   -2.665066
    127          1           0       26.046910   -0.021481    4.652414
    128          1           0       26.359953   -2.851928    3.812644
    129          1           0       28.845783   -1.630511    3.308922
    130          1           0       28.321445   -2.764177    4.585644
    131          1           0       28.382880   -1.004594    4.861216
    132          1           0       24.137991   -2.321762    4.153625
    133          1           0       23.558071   -0.877385    3.568367
    134          1           0       24.068772    0.173009    5.955615
    135          1           0       24.423648   -1.459250    6.534963
    136          1           0       26.663306   -6.149757    0.002228
    137          1           0       27.926112   -5.544362    0.869192
    138          1           0       28.441048   -6.300933   -0.538292
    139          1           0       27.056677   -6.742370   -2.924653
    140          1           0       28.807445   -6.236393   -2.785063
    141          1           0       28.152783   -6.792740   -4.291644
    142          1           0       27.481416    0.051555   -5.405021
    143          1           0       28.054218    2.724809   -4.512486
    144          1           0       29.971233    1.381060   -4.394236
    145          1           0       29.936121    0.186803   -5.629293
    146          1           0       29.989113   -0.239716   -3.962052
    147          1           0       25.219813    2.002407   -4.636274
    148          1           0       26.024734    1.902474   -6.221470
    149          1           0       24.856350    4.156107   -4.979665
    150          1           0       25.770276    4.246648   -6.442257
    151          1           0       26.552248    4.354314   -4.829622
    152          1           0       25.941086    5.737649   -1.204939
    153          1           0       25.290562    6.162115    0.415834
    154          1           0       24.187344    5.597766   -0.910538
    155          1           0       25.309821    2.557629    4.050564
    156          1           0       22.353468    2.060967    6.768522
    157          1           0       21.269615    2.572313    5.367157
    158          1           0       22.118197    3.721711    6.398774
 ---------------------------------------------------------------------

 SCF Done:  E(RPBE1PBE) =  -4067.36350113     A.U. after   16 cycles

 Excitation energies and oscillator strengths:

 Excited State   1:      Singlet-A      1.8755 eV  661.09 nm  f=0.3649  <S**2>=0.000
     309 -> 315       -0.18963
     312 -> 314        0.68798
 This state for optimization and/or second-order correction.
 Total Energy, E(TD-HF/TD-DFT) =  -4067.29457927
 Copying the excited state density for this state as the 1-particle RhoCI density.

 Excited State   2:      Singlet-A      1.8968 eV  653.63 nm  f=0.3531  <S**2>=0.000
     310 -> 316       -0.18776
     311 -> 313        0.68730

 Excited State   3:      Singlet-A      2.0096 eV  616.96 nm  f=0.0000  <S**2>=0.000
     312 -> 313        0.70711

 Excited State   4:      Singlet-A      2.1141 eV  586.48 nm  f=0.0000  <S**2>=0.000
     311 -> 314        0.70711

 Excited State   5:      Singlet-A      2.2341 eV  554.96 nm  f=0.1048  <S**2>=0.000
     310 -> 313        0.64929
     311 -> 316        0.26847

 The electronic state is 1-A.
 Alpha  occ. eigenvalues --  -46.93775 -46.90981 -19.26680 -19.25508 -19.20266
 Alpha  occ. eigenvalues --  -19.19868 -19.19807 -19.19285 -19.19096 -19.18676
 Alpha  occ. eigenvalues --  -14.42058 -14.41847 -14.41279 -14.41182 -14.40044
 Alpha  occ. eigenvalues --  -14.39209 -14.39112 -14.38086 -10.37008 -10.35549
 Alpha  occ. eigenvalues --  -10.33065 -10.33022 -10.32308 -10.31834 -10.30472
 Alpha  occ. eigenvalues --  -10.29436 -10.29287 -10.29170 -10.28978 -10.28721
 Alpha  occ. eigenvalues --  -10.28481 -10.28430 -10.28344 -10.28219 -10.28214
 Alpha  occ. eigenvalues --  -10.28064 -10.28044 -10.27716 -10.27694 -10.27598
 Alpha  occ. eigenvalues --  -10.27491 -10.27176 -10.27035 -10.27018 -10.26953
 Alpha  occ. eigenvalues --  -10.26856 -10.26564 -10.26223 -10.26211 -10.26209
 Alpha  occ. eigenvalues --  -10.26172 -10.26129 -10.26002 -10.26002 -10.25684
 Alpha  occ. eigenvalues --  -10.25661 -10.25599 -10.25571 -10.25566 -10.25539
 Alpha  occ. eigenvalues --  -10.25500 -10.25490 -10.25447 -10.25266 -10.25194
 Alpha  occ. eigenvalues --  -10.25191 -10.25046 -10.24924 -10.24468 -10.24440
 Alpha  occ. eigenvalues --  -10.24126 -10.24098 -10.23971 -10.23933 -10.23925
 Alpha  occ. eigenvalues --  -10.23867 -10.23801 -10.23787 -10.23588 -10.23509
 Alpha  occ. eigenvalues --  -10.23489 -10.23443 -10.23370 -10.23251 -10.22830
 Alpha  occ. eigenvalues --  -10.22226  -3.15721  -3.13395  -1.88522  -1.88114
 Alpha  occ. eigenvalues --   -1.87933  -1.86222  -1.85782  -1.85634  -1.11213
 Alpha  occ. eigenvalues --   -1.10700  -1.06129  -1.05558  -1.05512  -1.04019
 Alpha  occ. eigenvalues --   -1.01847  -1.00307  -0.99842  -0.99323  -0.98981
 Alpha  occ. eigenvalues --   -0.98422  -0.98266  -0.97670  -0.97030  -0.96618
 Alpha  occ. eigenvalues --   -0.87097  -0.86873  -0.83419  -0.83259  -0.82579
 Alpha  occ. eigenvalues --   -0.82525  -0.82348  -0.81992  -0.81787  -0.81685
 Alpha  occ. eigenvalues --   -0.81165  -0.80614  -0.80476  -0.79798  -0.79088
 Alpha  occ. eigenvalues --   -0.78808  -0.78112  -0.77651  -0.76855  -0.76685
 Alpha  occ. eigenvalues --   -0.76453  -0.76058  -0.75623  -0.75133  -0.74722
 Alpha  occ. eigenvalues --   -0.74619  -0.72454  -0.71828  -0.71629  -0.71588
 Alpha  occ. eigenvalues --   -0.71203  -0.70911  -0.70699  -0.70231  -0.69730
 Alpha  occ. eigenvalues --   -0.69642  -0.67295  -0.67241  -0.66591  -0.66456
 Alpha  occ. eigenvalues --   -0.64234  -0.63760  -0.63589  -0.63199  -0.62742
 Alpha  occ. eigenvalues --   -0.62298  -0.61615  -0.61529  -0.60473  -0.60329
 Alpha  occ. eigenvalues --   -0.59999  -0.59426  -0.59414  -0.59306  -0.59150
 Alpha  occ. eigenvalues --   -0.59006  -0.58285  -0.56347  -0.54771  -0.54551
 Alpha  occ. eigenvalues --   -0.54369  -0.53864  -0.53754  -0.53449  -0.53258
 Alpha  occ. eigenvalues --   -0.52807  -0.52621  -0.52287  -0.51896  -0.51554
 Alpha  occ. eigenvalues --   -0.50901  -0.50757  -0.50606  -0.50388  -0.50052
 Alpha  occ. eigenvalues --   -0.50038  -0.49616  -0.48873  -0.48822  -0.48485
 Alpha  occ. eigenvalues --   -0.48334  -0.47928  -0.47781  -0.47659  -0.47483
 Alpha  occ. eigenvalues --   -0.47451  -0.47299  -0.47088  -0.46761  -0.46524
 Alpha  occ. eigenvalues --   -0.46220  -0.46159  -0.46009  -0.45946  -0.45731
 Alpha  occ. eigenvalues --   -0.45584  -0.45325  -0.45216  -0.45150  -0.45031
 Alpha  occ. eigenvalues --   -0.44756  -0.44610  -0.44565  -0.44529  -0.44312
 Alpha  occ. eigenvalues --   -0.44109  -0.44020  -0.43713  -0.43584  -0.43511
 Alpha  occ. eigenvalues --   -0.43350  -0.43072  -0.43045  -0.42701  -0.42631
 Alpha  occ. eigenvalues --   -0.42206  -0.42114  -0.41959  -0.41950  -0.41890
 Alpha  occ. eigenvalues --   -0.41587  -0.41574  -0.41330  -0.41194  -0.41094
 Alpha  occ. eigenvalues --   -0.41063  -0.40772  -0.40594  -0.40478  -0.40471
 Alpha  occ. eigenvalues --   -0.40264  -0.40246  -0.40102  -0.39937  -0.39937
 Alpha  occ. eigenvalues --   -0.39642  -0.39603  -0.39015  -0.38907  -0.38790
 Alpha  occ. eigenvalues --   -0.38656  -0.38573  -0.38421  -0.38385  -0.38274
 Alpha  occ. eigenvalues --   -0.38151  -0.37975  -0.37927  -0.37782  -0.37699
 Alpha  occ. eigenvalues --   -0.37648  -0.37621  -0.37418  -0.37179  -0.37034
 Alpha  occ. eigenvalues --   -0.37025  -0.36857  -0.36839  -0.36677  -0.36612
 Alpha  occ. eigenvalues --   -0.36223  -0.36133  -0.36007  -0.35686  -0.35512
 Alpha  occ. eigenvalues --   -0.35256  -0.35192  -0.34822  -0.34509  -0.34175
 Alpha  occ. eigenvalues --   -0.33875  -0.33671  -0.33130  -0.32822  -0.32431
 Alpha  occ. eigenvalues --   -0.32237  -0.32193  -0.32009  -0.31710  -0.31358
 Alpha  occ. eigenvalues --   -0.30466  -0.30348  -0.29779  -0.29448  -0.29435
 Alpha  occ. eigenvalues --   -0.29173  -0.28686  -0.27861  -0.26973  -0.26909
 Alpha  occ. eigenvalues --   -0.26397  -0.26168  -0.26053  -0.25962  -0.25747
 Alpha  occ. eigenvalues --   -0.25564  -0.25432  -0.25202  -0.21101  -0.20965
 Alpha  occ. eigenvalues --   -0.19017  -0.18782
 Alpha virt. eigenvalues --   -0.11146  -0.10998  -0.05735  -0.05523  -0.04459
 Alpha virt. eigenvalues --   -0.04115  -0.02385  -0.01966  -0.01941  -0.00111
 Alpha virt. eigenvalues --    0.00180   0.00851   0.00965   0.01159   0.01499

 Mulliken charges:
               1
     1  Mg  11.999975
     2  C    6.000103
     3  C    6.000010
     4  C    5.999722
     5  C    6.000008
     6  N    7.000108
     7  C    5.999742
     8  C    6.000067
     9  C    5.999959
    10  C    6.000171
    11  C    5.999971
    12  C    6.000027
    13  C    6.000055
    14  H    0.999930
    15  N    6.999934
    16  C    6.000303
    17  C    6.000249
    18  C    6.000107
    19  C    6.000338
    20  C    5.999941
    21  C    6.000105
    22  O    8.000198
    23  C    5.999973
    24  N    6.999947
    25  C    6.000402
    26  C    5.999919
    27  C    6.000070
    28  C    5.999786
    29  C    5.999984
    30  C    6.000030
    31  C    6.000017
    32  N    7.000015
    33  C    5.999701
    34  C    5.999731
    35  C    5.999946
    36  C    5.999770
    37  C    6.000036
    38  C    5.999809
    39  O    7.999725
    40  C    6.000013
    41  C    5.999998
    42  O    7.999931
    43  O    8.000005
    44  C    6.000015
    45  H    1.000122
    46  H    1.000053
    47  H    0.999904
    48  H    1.000002
    49  H    1.000012
    50  H    0.999934
    51  H    1.000097
    52  H    1.000111
    53  H    1.000042
    54  H    0.999948
    55  H    0.999929
    56  H    1.000043
    57  H    1.000189
    58  H    1.000167
    59  H    1.000147
    60  H    1.000114
    61  H    1.000087
    62  H    1.000056
    63  H    0.999997
    64  H    0.999981
    65  H    0.999968
    66  H    1.000011
    67  H    1.000065
    68  H    1.000003
    69  H    0.999895
    70  H    1.000024
    71  H    0.999931
    72  H    1.000017
    73  H    0.999820
    74  H    0.999818
    75  H    0.999860
    76  H    0.999923
    77  H    0.999942
    78  H    0.999965
    79  H    0.999979
    80  Mg  11.997830
    81  C    6.015488
    82  C    5.986946
    83  C    5.990562
    84  C    6.016074
    85  N    7.004417
    86  C    5.965388
    87  C    6.012481
    88  C    5.992390
    89  C    6.035673
    90  C    5.998332
    91  C    6.002126
    92  C    6.001391
    93  H    0.996927
    94  N    6.995209
    95  C    6.032280
    96  C    6.021545
    97  C    6.020020
    98  C    6.020155
    99  C    5.996964
   100  C    6.013914
   101  O    8.031920
   102  C    5.994354
   103  N    7.005171
   104  C    6.024293
   105  C    5.994576
   106  C    6.007562
   107  C    5.966493
   108  C    5.995348
   109  C    6.002332
   110  C    6.000799
   111  N    7.001193
   112  C    5.964950
   113  C    5.969603
   114  C    5.999445
   115  C    5.971386
   116  C    5.998311
   117  C    5.983888
   118  O    7.972103
   119  C    5.997861
   120  C    5.997205
   121  O    7.992321
   122  O    7.999578
   123  C    6.002460
   124  H    1.007893
   125  H    1.005500
   126  H    0.991861
   127  H    0.998612
   128  H    0.997763
   129  H    0.999437
   130  H    1.001188
   131  H    1.012738
   132  H    0.987879
   133  H    1.002956
   134  H    1.004496
   135  H    0.994604
   136  H    1.018098
   137  H    1.017238
   138  H    1.015032
   139  H    1.008543
   140  H    1.005916
   141  H    1.014794
   142  H    0.997581
   143  H    0.996397
   144  H    1.011648
   145  H    1.001895
   146  H    0.994658
   147  H    0.998788
   148  H    0.988781
   149  H    1.003085
   150  H    0.994834
   151  H    1.002597
   152  H    0.985043
   153  H    0.986950
   154  H    0.983239
   155  H    0.992463
   156  H    0.993659
   157  H    0.997333
   158  H    0.997232
 Sum of Mulliken charges = 624.00000

 Dipole moment (field-independent basis, Debye):
    X=              3.2215    Y=             -9.2255    Z=             -2.6704  Tot=             10.1301
 Quadrupole moment (field-independent basis, Debye-Ang):
   XX=            166.3736   YY=              6.0452   ZZ=              1.0597
   XY=           -248.6623   XZ=            -68.4077   YZ=              7.4997

 Normal termination of Gaussian 16 at Thu Oct 14 23:01:22 2021.
