 Gaussian 16, Revision A.03,
 Gaussian 16:  ES64L-G16RevA.03 25-Dec-2016

 --------------------------------------------------------
 #p PBE1PBE/Def2SVP td=(nstates=5) density=(transition=1)
 --------------------------------------------------------

 --------------------------------
 TDDFT excited states in gaussian
 --------------------------------
 Symbolic Z-matrix:
 Charge =  0 Multiplicity = 1

                         Standard orientation:
 ---------------------------------------------------------------------
 Center     Atomic      Atomic             Coordinates (Angstroms)
 Number     Number       Type             X           Y           Z
 ---------------------------------------------------------------------
      1         12           0      -26.592363   -0.152336    0.013698
      2          6           0      -23.282897   -0.834170   -0.488699
      3          6           0      -26.289724   -1.775708    3.165792
      4          6           0      -29.738266    0.842670    0.720219
      5          6           0      -26.483612    2.149813   -2.598852
      6          7           0      -24.782794   -0.893580    1.394584
      7          6           0      -23.603440   -1.272134    0.826661
      8          6           0      -22.735413   -1.944088    1.854259
      9          6           0      -23.715146   -2.228022    3.074525
     10          6           0      -25.057564   -1.619039    2.559509
     11          6           0      -23.578038   -3.548643    3.739871
     12          6           0      -21.328565   -1.293544    2.257933
     13          6           0      -21.200051    0.200309    2.214852
     14          1           0      -20.585149    0.877073    3.431889
     15          7           0      -27.893348   -0.634565    1.593049
     16          6           0      -27.614077   -1.306442    2.742547
     17          6           0      -28.753566   -1.393030    3.607239
     18          6           0      -29.832194   -0.715432    2.834757
     19          6           0      -29.174264   -0.131424    1.645511
     20          6           0      -28.860492   -2.032448    4.908657
     21          6           0      -31.315366   -0.608826    3.159083
     22          8           0      -31.727632   -0.964811    4.205512
     23          6           0      -32.375837    0.019513    2.298030
     24          7           0      -27.844462    1.357300   -0.728694
     25          6           0      -29.138402    1.418439   -0.378935
     26          6           0      -29.862764    2.680068   -1.086452
     27          6           0      -28.916277    2.799033   -2.378531
     28          6           0      -27.680918    2.114273   -1.844143
     29          6           0      -31.343499    2.493344   -1.428862
     30          6           0      -28.783027    4.244833   -2.889945
     31          6           0      -28.950566    4.568654   -4.379209
     32          7           0      -25.148024    0.617956   -1.226803
     33          6           0      -25.221558    1.519311   -2.281520
     34          6           0      -24.011181    1.571920   -3.005264
     35          6           0      -23.197682    0.629413   -2.398254
     36          6           0      -23.931136    0.056189   -1.299721
     37          6           0      -23.699756    2.395569   -4.216504
     38          6           0      -21.981612   -0.071205   -2.384566
     39          8           0      -21.029643    0.077514   -3.148056
     40          6           0      -21.894489   -0.910180   -1.077895
     41          6           0      -21.492812   -2.289227   -1.580083
     42          8           0      -20.523546   -2.941613   -1.137715
     43          8           0      -22.458787   -2.702615   -2.466981
     44          6           0      -22.523389   -4.097429   -2.967778
     45          1           0      -26.099115   -2.172428    4.165098
     46          1           0      -30.664856    1.310535    1.058963
     47          1           0      -26.480905    2.821127   -3.459704
     48          1           0      -22.373333   -2.883828    1.435657
     49          1           0      -23.446308   -1.506057    3.845084
     50          1           0      -24.528436   -4.062062    3.885148
     51          1           0      -22.980392   -3.492289    4.649689
     52          1           0      -23.032069   -4.226088    3.083231
     53          1           0      -20.491524   -1.609817    1.635381
     54          1           0      -21.127966   -1.492601    3.311125
     55          1           0      -22.083142    0.724525    1.851067
     56          1           0      -20.415074    0.426524    1.492477
     57          1           0      -28.173207   -2.877296    4.940230
     58          1           0      -29.862731   -2.383565    5.151380
     59          1           0      -28.560239   -1.288162    5.647093
     60          1           0      -31.902666   -0.249374    1.353318
     61          1           0      -32.431238    1.101478    2.413822
     62          1           0      -33.389052   -0.372084    2.389787
     63          1           0      -29.661697    3.534400   -0.439373
     64          1           0      -29.162410    2.210980   -3.262332
     65          1           0      -31.402300    2.354574   -2.508738
     66          1           0      -31.942371    3.274238   -0.961091
     67          1           0      -31.772577    1.589885   -0.996576
     68          1           0      -27.793686    4.589462   -2.587872
     69          1           0      -29.445730    4.870816   -2.292203
     70          1           0      -29.615480    5.383920   -4.664799
     71          1           0      -29.167235    3.687521   -4.984582
     72          1           0      -27.919856    4.747749   -4.683583
     73          1           0      -23.027831    1.919783   -4.931226
     74          1           0      -23.251273    3.333576   -3.888414
     75          1           0      -24.579042    2.623638   -4.820368
     76          1           0      -21.110625   -0.400524   -0.518943
     77          1           0      -23.546024   -4.463504   -3.057245
     78          1           0      -21.976334   -4.732357   -2.270670
     79          1           0      -22.091014   -4.363099   -3.931629
     80         12           0       25.845040    0.703410    0.429766
     81          6           0       26.178033   -2.595874   -0.500697
     82          6           0       23.316767    1.046418   -2.071926
     83          6           0       25.717951    3.930586    1.005832
     84          6           0       28.434304    0.357753    2.740560
     85          7           0       24.912839   -0.678706   -1.065009
     86          6           0       25.182394   -1.976240   -1.236247
     87          6           0       24.195313   -2.562093   -2.297906
     88          6           0       23.395725   -1.297404   -2.856895
     89          6           0       23.954344   -0.180921   -1.953662
     90          6           0       23.693035   -0.868484   -4.280895
     91          6           0       23.310990   -3.711439   -1.791319
     92          6           0       23.375172   -4.911526   -2.721032
     93          1           0       22.206053   -5.902428   -2.817934
     94          7           0       24.615175    2.241887   -0.372047
     95          6           0       23.632594    2.199949   -1.318791
     96          6           0       23.019485    3.438949   -1.502869
     97          6           0       23.771368    4.369335   -0.703877
     98          6           0       24.759752    3.520997    0.047772
     99          6           0       21.841450    3.678321   -2.436041
    100          6           0       23.658065    5.883680   -0.638539
    101          8           0       24.525058    6.516466   -0.005092
    102          6           0       22.631674    6.623906   -1.394802
    103          7           0       26.894624    1.899133    1.696509
    104          6           0       26.638993    3.247957    1.834726
    105          6           0       27.569644    3.988733    2.865326
    106          6           0       28.216638    2.725430    3.578168
    107          6           0       27.850287    1.585040    2.610791
    108          6           0       28.669324    5.019589    2.392599
    109          6           0       27.927548    2.494557    5.130739
    110          6           0       26.576327    1.917447    5.460663
    111          7           0       27.157294   -0.703742    0.941519
    112          6           0       28.168089   -0.756345    1.882350
    113          6           0       28.788993   -2.016614    1.929050
    114          6           0       28.005834   -2.758675    1.037415
    115          6           0       27.006944   -1.931486    0.446089
    116          6           0       29.869446   -2.324452    2.876049
    117          6           0       27.985462   -4.045088    0.455027
    118          8           0       28.792607   -4.961372    0.623452
    119          6           0       26.752810   -4.048053   -0.591653
    120          6           0       27.251972   -4.390835   -1.911712
    121          8           0       27.887747   -3.678464   -2.654620
    122          8           0       27.014536   -5.669363   -2.177810
    123          6           0       27.538337   -6.238365   -3.382667
    124          1           0       22.582872    1.153949   -2.872823
    125          1           0       25.793543    4.978756    1.301527
    126          1           0       29.241319    0.293747    3.473486
    127          1           0       24.906179   -2.889678   -3.055827
    128          1           0       22.349220   -1.604101   -2.867739
    129          1           0       24.356606   -1.539334   -4.827370
    130          1           0       24.206642    0.092544   -4.284611
    131          1           0       22.761467   -0.643286   -4.800972
    132          1           0       22.265288   -3.450276   -1.627902
    133          1           0       23.668977   -3.987906   -0.799875
    134          1           0       24.180067   -5.540013   -2.338196
    135          1           0       23.573351   -4.509041   -3.714247
    136          1           0       21.399586    2.741535   -2.775737
    137          1           0       22.211635    4.127329   -3.357963
    138          1           0       21.139000    4.391721   -2.006702
    139          1           0       22.927466    7.664381   -1.533702
    140          1           0       21.733300    6.637137   -0.776894
    141          1           0       22.470426    6.161168   -2.368141
    142          1           0       27.005288    4.445107    3.679170
    143          1           0       29.296085    2.866954    3.614385
    144          1           0       28.607285    5.094278    1.307648
    145          1           0       29.652177    4.560125    2.504732
    146          1           0       28.676319    6.012537    2.843091
    147          1           0       27.930152    3.485302    5.584526
    148          1           0       28.709338    1.942616    5.651136
    149          1           0       26.702204    1.319172    6.362386
    150          1           0       26.014279    1.344194    4.724447
    151          1           0       25.920351    2.766467    5.652977
    152          1           0       29.883364   -1.813589    3.838485
    153          1           0       30.874771   -2.366265    2.458655
    154          1           0       29.677835   -3.380377    3.065165
    155          1           0       26.040728   -4.804226   -0.261700
    156          1           0       26.851653   -6.133944   -4.223482
    157          1           0       27.639792   -7.309078   -3.206480
    158          1           0       28.479392   -5.753407   -3.642595
 ---------------------------------------------------------------------

 SCF Done:  E(RPBE1PBE) =  -4067.34158509     A.U. after   16 cycles

 Excitation energies and oscillator strengths:

 Excited State   1:      Singlet-A      1.7944 eV  690.97 nm  f=0.3706  <S**2>=0.000
     309 -> 315        0.16554
     311 -> 313        0.69591
     311 <- 313       -0.11768
 This state for optimization and/or second-order correction.
 Total Energy, E(TD-HF/TD-DFT) =  -4067.27564360
 Copying the excited state density for this state as the 1-particle RhoCI density.

 Excited State   2:      Singlet-A      1.8372 eV  674.87 nm  f=0.0000  <S**2>=0.000
     312 -> 313        0.70711

 Excited State   3:      Singlet-A      1.8681 eV  663.70 nm  f=0.3990  <S**2>=0.000
     310 -> 316       -0.16557
     312 -> 314        0.69318
     312 <- 314       -0.11112

 Excited State   4:      Singlet-A      2.0788 eV  596.41 nm  f=0.0000  <S**2>=0.000
     311 -> 314        0.70711

 Excited State   5:      Singlet-A      2.1559 eV  575.10 nm  f=0.1301  <S**2>=0.000
     308 -> 313       -0.10051
     309 -> 313        0.65390
     311 -> 315       -0.23174

 The electronic state is 1-A.
 Alpha  occ. eigenvalues --  -46.93373 -46.91089 -19.26790 -19.25401 -19.20526
 Alpha  occ. eigenvalues --  -19.18898 -19.18788 -19.18537 -19.18405 -19.17637
 Alpha  occ. eigenvalues --  -14.42136 -14.41825 -14.41663 -14.41528 -14.39851
 Alpha  occ. eigenvalues --  -14.39319 -14.39244 -14.38659 -10.37459 -10.35207
 Alpha  occ. eigenvalues --  -10.31926 -10.31684 -10.31275 -10.30933 -10.29962
 Alpha  occ. eigenvalues --  -10.29678 -10.29222 -10.29208 -10.28914 -10.28907
 Alpha  occ. eigenvalues --  -10.28887 -10.28802 -10.28675 -10.28396 -10.28371
 Alpha  occ. eigenvalues --  -10.28257 -10.28199 -10.27928 -10.26974 -10.26883
 Alpha  occ. eigenvalues --  -10.26790 -10.26784 -10.26778 -10.26379 -10.26260
 Alpha  occ. eigenvalues --  -10.26256 -10.26140 -10.26119 -10.25981 -10.25970
 Alpha  occ. eigenvalues --  -10.25918 -10.25888 -10.25864 -10.25832 -10.25799
 Alpha  occ. eigenvalues --  -10.25779 -10.25484 -10.25466 -10.25421 -10.25271
 Alpha  occ. eigenvalues --  -10.25184 -10.25163 -10.25042 -10.25030 -10.24980
 Alpha  occ. eigenvalues --  -10.24814 -10.24770 -10.24439 -10.24418 -10.24331
 Alpha  occ. eigenvalues --  -10.24147 -10.24069 -10.23905 -10.23854 -10.23813
 Alpha  occ. eigenvalues --  -10.23665 -10.23646 -10.23580 -10.23507 -10.23212
 Alpha  occ. eigenvalues --  -10.23033 -10.23000 -10.22726 -10.22642 -10.22437
 Alpha  occ. eigenvalues --  -10.22370  -3.15424  -3.13448  -1.88220  -1.87835
 Alpha  occ. eigenvalues --   -1.87622  -1.86289  -1.85841  -1.85676  -1.12678
 Alpha  occ. eigenvalues --   -1.10348  -1.06403  -1.03931  -1.03637  -1.03148
 Alpha  occ. eigenvalues --   -1.02556  -1.02004  -0.99774  -0.99273  -0.98961
 Alpha  occ. eigenvalues --   -0.98354  -0.97920  -0.97653  -0.97196  -0.96934
 Alpha  occ. eigenvalues --   -0.87958  -0.86432  -0.84132  -0.83651  -0.83028
 Alpha  occ. eigenvalues --   -0.83011  -0.82763  -0.82604  -0.82202  -0.81932
 Alpha  occ. eigenvalues --   -0.81877  -0.81601  -0.81055  -0.80381  -0.78892
 Alpha  occ. eigenvalues --   -0.78850  -0.78249  -0.78116  -0.77404  -0.77216
 Alpha  occ. eigenvalues --   -0.76507  -0.76448  -0.75543  -0.75336  -0.74960
 Alpha  occ. eigenvalues --   -0.74896  -0.72818  -0.72588  -0.72141  -0.71650
 Alpha  occ. eigenvalues --   -0.71409  -0.71209  -0.70979  -0.70259  -0.69896
 Alpha  occ. eigenvalues --   -0.69614  -0.68089  -0.67909  -0.66237  -0.65874
 Alpha  occ. eigenvalues --   -0.64394  -0.63990  -0.63852  -0.63292  -0.62744
 Alpha  occ. eigenvalues --   -0.62155  -0.61456  -0.61194  -0.60684  -0.60117
 Alpha  occ. eigenvalues --   -0.59840  -0.59415  -0.59261  -0.59132  -0.58882
 Alpha  occ. eigenvalues --   -0.58861  -0.58134  -0.56886  -0.54931  -0.54865
 Alpha  occ. eigenvalues --   -0.54578  -0.54029  -0.53569  -0.53544  -0.53148
 Alpha  occ. eigenvalues --   -0.52820  -0.52647  -0.52196  -0.52008  -0.51864
 Alpha  occ. eigenvalues --   -0.51165  -0.51119  -0.50596  -0.50390  -0.49896
 Alpha  occ. eigenvalues --   -0.49676  -0.49651  -0.49153  -0.49000  -0.48910
 Alpha  occ. eigenvalues --   -0.48527  -0.48105  -0.47980  -0.47785  -0.47751
 Alpha  occ. eigenvalues --   -0.47295  -0.47093  -0.46906  -0.46783  -0.46628
 Alpha  occ. eigenvalues --   -0.46511  -0.46416  -0.46400  -0.46371  -0.46025
 Alpha  occ. eigenvalues --   -0.45862  -0.45683  -0.45396  -0.45200  -0.44916
 Alpha  occ. eigenvalues --   -0.44777  -0.44655  -0.44503  -0.44341  -0.44275
 Alpha  occ. eigenvalues --   -0.44163  -0.44063  -0.43889  -0.43864  -0.43733
 Alpha  occ. eigenvalues --   -0.43660  -0.43534  -0.43066  -0.42975  -0.42810
 Alpha  occ. eigenvalues --   -0.42508  -0.42432  -0.42341  -0.42029  -0.41992
 Alpha  occ. eigenvalues --   -0.41953  -0.41858  -0.41696  -0.41620  -0.41229
 Alpha  occ. eigenvalues --   -0.41206  -0.41108  -0.40951  -0.40790  -0.40313
 Alpha  occ. eigenvalues --   -0.40222  -0.40195  -0.40169  -0.40162  -0.39864
 Alpha  occ. eigenvalues --   -0.39781  -0.39689  -0.39586  -0.39303  -0.39201
 Alpha  occ. eigenvalues --   -0.38999  -0.38819  -0.38659  -0.38395  -0.38350
 Alpha  occ. eigenvalues --   -0.38272  -0.38056  -0.37975  -0.37532  -0.37514
 Alpha  occ. eigenvalues --   -0.37487  -0.37371  -0.37125  -0.36918  -0.36857
 Alpha  occ. eigenvalues --   -0.36788  -0.36566  -0.36434  -0.36328  -0.36308
 Alpha  occ. eigenvalues --   -0.36224  -0.36094  -0.35930  -0.35847  -0.35497
 Alpha  occ. eigenvalues --   -0.35382  -0.35151  -0.34121  -0.33963  -0.33801
 Alpha  occ. eigenvalues --   -0.33700  -0.33107  -0.33073  -0.32728  -0.32350
 Alpha  occ. eigenvalues --   -0.32191  -0.31854  -0.31611  -0.31332  -0.31169
 Alpha  occ. eigenvalues --   -0.31153  -0.30688  -0.29832  -0.29428  -0.29001
 Alpha  occ. eigenvalues --   -0.28857  -0.28607  -0.28454  -0.27178  -0.27094
 Alpha  occ. eigenvalues --   -0.26352  -0.25850  -0.25485  -0.25417  -0.25293
 Alpha  occ. eigenvalues --   -0.25258  -0.24963  -0.23764  -0.21433  -0.21081
 Alpha  occ. eigenvalues --   -0.19378  -0.19080
 Alpha virt. eigenvalues --   -0.12075  -0.11485  -0.05503  -0.05022  -0.03909
 Alpha virt. eigenvalues --   -0.03700  -0.01911  -0.01894  -0.01811  -0.00070
 Alpha virt. eigenvalues --    0.00264   0.00593   0.01254   0.01783   0.01796

 Mulliken charges:
               1
     1  Mg  12.002505
     2  C    6.000946
     3  C    5.985868
     4  C    5.982806
     5  C    6.012669
     6  N    6.994989
     7  C    5.974939
     8  C    6.009442
     9  C    5.986700
    10  C    6.035163
    11  C    5.998718
    12  C    6.000504
    13  C    6.002689
    14  H    0.989872
    15  N    6.996074
    16  C    6.042205
    17  C    6.023151
    18  C    6.006548
    19  C    6.040067
    20  C    5.996275
    21  C    6.010365
    22  O    8.018999
    23  C    6.000936
    24  N    7.002515
    25  C    6.029164
    26  C    5.990496
    27  C    6.011075
    28  C    5.965108
    29  C    5.999629
    30  C    6.002094
    31  C    5.998691
    32  N    7.000618
    33  C    5.968319
    34  C    5.975980
    35  C    5.993196
    36  C    5.975953
    37  C    6.002169
    38  C    5.983075
    39  O    7.965998
    40  C    6.001888
    41  C    5.994119
    42  O    7.988977
    43  O    8.005020
    44  C    6.004779
    45  H    1.008920
    46  H    1.006534
    47  H    0.991915
    48  H    1.002000
    49  H    1.005633
    50  H    0.994852
    51  H    1.003962
    52  H    1.008903
    53  H    1.003127
    54  H    0.991139
    55  H    1.004016
    56  H    1.003884
    57  H    1.017710
    58  H    1.014792
    59  H    1.021059
    60  H    1.004496
    61  H    1.011360
    62  H    1.012193
    63  H    1.003756
    64  H    0.996859
    65  H    1.007438
    66  H    1.000911
    67  H    0.993556
    68  H    1.002789
    69  H    0.990605
    70  H    0.995491
    71  H    0.999045
    72  H    1.004771
    73  H    0.987296
    74  H    0.982609
    75  H    0.982854
    76  H    0.991925
    77  H    0.993020
    78  H    0.993339
    79  H    0.995951
    80  Mg  11.999988
    81  C    6.000104
    82  C    6.000026
    83  C    5.999875
    84  C    5.999965
    85  N    7.000034
    86  C    5.999901
    87  C    6.000010
    88  C    5.999946
    89  C    6.000057
    90  C    5.999981
    91  C    5.999995
    92  C    5.999999
    93  H    1.000025
    94  N    6.999987
    95  C    6.000111
    96  C    6.000065
    97  C    6.000066
    98  C    6.000109
    99  C    5.999975
   100  C    6.000071
   101  O    8.000115
   102  C    5.999976
   103  N    6.999978
   104  C    6.000152
   105  C    5.999955
   106  C    6.000031
   107  C    5.999938
   108  C    6.000004
   109  C    6.000019
   110  C    6.000021
   111  N    6.999980
   112  C    5.999926
   113  C    5.999875
   114  C    6.000025
   115  C    5.999861
   116  C    6.000040
   117  C    5.999888
   118  O    7.999859
   119  C    6.000014
   120  C    5.999979
   121  O    7.999967
   122  O    7.999997
   123  C    6.000011
   124  H    1.000079
   125  H    1.000022
   126  H    0.999921
   127  H    1.000005
   128  H    1.000071
   129  H    1.000049
   130  H    0.999980
   131  H    1.000051
   132  H    1.000001
   133  H    1.000014
   134  H    0.999999
   135  H    0.999990
   136  H    1.000093
   137  H    1.000085
   138  H    1.000091
   139  H    1.000051
   140  H    1.000065
   141  H    1.000031
   142  H    1.000008
   143  H    0.999966
   144  H    0.999990
   145  H    1.000014
   146  H    0.999991
   147  H    0.999945
   148  H    0.999979
   149  H    0.999978
   150  H    1.000020
   151  H    0.999968
   152  H    0.999912
   153  H    0.999886
   154  H    0.999930
   155  H    0.999966
   156  H    0.999993
   157  H    0.999974
   158  H    0.999980
 Sum of Mulliken charges = 624.00000

 Dipole moment (field-independent basis, Debye):
    X=             -7.1898    Y=             -2.3382    Z=              7.1945  Tot=             10.4365
 Quadrupole moment (field-independent basis, Debye-Ang):
   XX=            374.7392   YY=             -2.2598   ZZ=              4.3408
   XY=             65.5435   XZ=           -192.7073   YZ=             -1.8320

 Normal termination of Gaussian 16 at Thu Oct 14 06:12:00 2021.
