 Gaussian 16, Revision A.03,
 Gaussian 16:  ES64L-G16RevA.03 25-Dec-2016

 --------------------------------------------------------
 #p PBE1PBE/Def2SVP td=(nstates=5) density=(transition=1)
 --------------------------------------------------------

 --------------------------------
 TDDFT excited states in gaussian
 --------------------------------
 Symbolic Z-matrix:
 Charge =  0 Multiplicity = 1

                         Standard orientation:
 ---------------------------------------------------------------------
 Center     Atomic      Atomic             Coordinates (Angstroms)
 Number     Number       Type             X           Y           Z
 ---------------------------------------------------------------------
      1         12           0       26.828738   -0.812760    0.160008
      2          6           0       27.457672    2.224801   -1.256790
      3          6           0       25.309241    0.864216    2.878978
      4          6           0       26.398719   -3.757658    1.694897
      5          6           0       28.267863   -2.333282   -2.563172
      6          7           0       26.703906    1.278273    0.902690
      7          6           0       26.941213    2.370721    0.058709
      8          6           0       26.574257    3.720596    0.737778
      9          6           0       25.969575    3.171092    2.057097
     10          6           0       26.046142    1.656367    1.993261
     11          6           0       26.462200    3.687013    3.475957
     12          6           0       25.567480    4.669199   -0.050322
     13          6           0       25.250299    5.965457    0.742518
     14          1           0       25.898230    7.214138    0.142661
     15          7           0       25.905453   -1.374528    2.053983
     16          6           0       25.156960   -0.548022    2.864153
     17          6           0       24.724895   -1.377603    3.982866
     18          6           0       25.056900   -2.724540    3.627512
     19          6           0       25.797668   -2.688352    2.405950
     20          6           0       24.007921   -0.787649    5.135480
     21          6           0       24.771532   -3.951672    4.562017
     22          8           0       25.238895   -5.092145    4.367537
     23          6           0       23.953658   -3.769248    5.813932
     24          7           0       27.270099   -2.657274   -0.315975
     25          6           0       27.005716   -3.793269    0.499746
     26          6           0       27.728424   -5.014278   -0.022481
     27          6           0       27.856170   -4.632594   -1.495976
     28          6           0       27.747173   -3.114465   -1.506952
     29          6           0       29.113337   -5.248002    0.669356
     30          6           0       26.708638   -5.198337   -2.362226
     31          6           0       26.842088   -6.595698   -2.905419
     32          7           0       27.756769   -0.269356   -1.598967
     33          6           0       28.154705   -0.961956   -2.678341
     34          6           0       28.665987   -0.054917   -3.663081
     35          6           0       28.404990    1.209362   -3.179032
     36          6           0       27.803932    1.032239   -1.923125
     37          6           0       29.236469   -0.516579   -4.958595
     38          6           0       28.519665    2.570303   -3.489254
     39          8           0       28.939765    3.142706   -4.476295
     40          6           0       27.890468    3.316773   -2.221013
     41          6           0       28.921088    4.242373   -1.678505
     42          8           0       29.960778    3.943549   -1.143221
     43          8           0       28.499499    5.510008   -1.713772
     44          6           0       29.440337    6.547107   -1.138873
     45          1           0       24.722663    1.439548    3.598065
     46          1           0       26.259486   -4.725819    2.180087
     47          1           0       28.621145   -2.741241   -3.512123
     48          1           0       27.496585    4.261884    0.948779
     49          1           0       24.896626    3.364891    2.071906
     50          1           0       25.697633    3.782522    4.247400
     51          1           0       27.109069    4.555199    3.348559
     52          1           0       27.076812    2.869822    3.853281
     53          1           0       24.713157    4.021631   -0.243668
     54          1           0       26.018390    4.920706   -1.010195
     55          1           0       25.468191    5.816961    1.800146
     56          1           0       24.175989    6.124616    0.654405
     57          1           0       24.665975   -0.844262    6.002790
     58          1           0       23.046187   -1.298852    5.178645
     59          1           0       23.750840    0.253446    4.939671
     60          1           0       23.806449   -4.731753    6.303854
     61          1           0       22.967146   -3.490432    5.441048
     62          1           0       24.303082   -3.026406    6.530523
     63          1           0       27.135599   -5.917112    0.126910
     64          1           0       28.808883   -4.923759   -1.937838
     65          1           0       29.853643   -4.530241    0.318137
     66          1           0       29.456605   -6.267861    0.493684
     67          1           0       28.925706   -5.124865    1.735432
     68          1           0       26.450357   -4.550962   -3.199296
     69          1           0       25.774481   -5.150084   -1.802476
     70          1           0       26.000249   -7.163672   -2.510454
     71          1           0       27.713716   -6.980915   -2.376066
     72          1           0       26.967378   -6.652298   -3.986837
     73          1           0       28.483332   -0.464995   -5.743905
     74          1           0       29.787134   -1.457569   -4.977357
     75          1           0       29.980034    0.235814   -5.222069
     76          1           0       27.021015    3.883150   -2.555526
     77          1           0       29.729483    6.198095   -0.147324
     78          1           0       28.972618    7.522176   -1.000074
     79          1           0       30.303452    6.614993   -1.801451
     80         12           0      -27.535914   -0.469167   -0.303762
     81          6           0      -25.438762    2.354051   -0.423619
     82          6           0      -28.907450    0.841198    2.610414
     83          6           0      -29.257608   -3.297935   -0.055945
     84          6           0      -25.452547   -2.049812   -2.763769
     85          7           0      -27.198065    1.346287    0.944767
     86          6           0      -26.359345    2.416898    0.604450
     87          6           0      -26.783799    3.648143    1.383329
     88          6           0      -27.682566    3.108010    2.531886
     89          6           0      -27.954497    1.670584    1.994578
     90          6           0      -27.099094    3.209511    3.976184
     91          6           0      -27.450447    4.772712    0.517466
     92          6           0      -27.193464    6.248654    1.056243
     93          1           0      -26.394977    6.407428    2.352861
     94          7           0      -28.937912   -1.053511    0.973245
     95          6           0      -29.425914   -0.352122    2.062308
     96          6           0      -30.526935   -1.048188    2.663116
     97          6           0      -30.575592   -2.313799    1.995694
     98          6           0      -29.604884   -2.235450    0.918662
     99          6           0      -31.309367   -0.520800    3.904431
    100          6           0      -31.432127   -3.499405    2.299068
    101          8           0      -31.254724   -4.600303    1.725021
    102          6           0      -32.565871   -3.648178    3.355963
    103          7           0      -27.227898   -2.496683   -1.062919
    104          6           0      -28.155998   -3.456328   -0.888001
    105          6           0      -27.929131   -4.618666   -1.887083
    106          6           0      -26.709386   -4.242555   -2.735922
    107          6           0      -26.467029   -2.774757   -2.168532
    108          6           0      -27.923624   -5.951155   -1.201952
    109          6           0      -26.876047   -4.293296   -4.269867
    110          6           0      -27.986622   -3.380552   -4.845804
    111          7           0      -25.739650   -0.027425   -1.376063
    112          6           0      -25.157001   -0.684819   -2.405692
    113          6           0      -24.190787    0.238299   -2.998976
    114          6           0      -24.245541    1.477595   -2.301772
    115          6           0      -25.185979    1.256590   -1.266329
    116          6           0      -23.362042   -0.025152   -4.253438
    117          6           0      -23.716251    2.801319   -2.217838
    118          8           0      -22.959706    3.463338   -2.923342
    119          6           0      -24.465427    3.446270   -0.878359
    120          6           0      -23.410636    3.962271    0.082266
    121          8           0      -22.790124    3.248976    0.846062
    122          8           0      -23.335755    5.335859    0.036251
    123          6           0      -22.153086    5.997060    0.578156
    124          1           0      -29.349741    1.402496    3.435888
    125          1           0      -29.919939   -4.163082    0.012795
    126          1           0      -24.952624   -2.547636   -3.596901
    127          1           0      -25.903543    4.116408    1.823519
    128          1           0      -28.614648    3.671174    2.495300
    129          1           0      -27.142156    2.175506    4.316703
    130          1           0      -27.773071    3.770329    4.624866
    131          1           0      -26.081790    3.571583    4.124651
    132          1           0      -28.536998    4.692652    0.529159
    133          1           0      -27.123086    4.655129   -0.514745
    134          1           0      -28.162122    6.664216    1.334366
    135          1           0      -26.716617    6.806989    0.251018
    136          1           0      -31.532765   -1.378906    4.539521
    137          1           0      -32.263800   -0.068556    3.637040
    138          1           0      -30.890354    0.246876    4.554798
    139          1           0      -33.326823   -2.880268    3.213954
    140          1           0      -32.186843   -3.646863    4.377905
    141          1           0      -33.246407   -4.478191    3.169821
    142          1           0      -28.857884   -4.699761   -2.450372
    143          1           0      -25.887916   -4.817496   -2.307000
    144          1           0      -28.859992   -6.495251   -1.326953
    145          1           0      -27.676308   -5.825426   -0.147729
    146          1           0      -27.137260   -6.625628   -1.542627
    147          1           0      -27.162678   -5.329189   -4.452312
    148          1           0      -25.924206   -4.083209   -4.758584
    149          1           0      -27.472867   -2.703036   -5.527507
    150          1           0      -28.428753   -2.853103   -4.000525
    151          1           0      -28.820033   -3.917670   -5.298874
    152          1           0      -23.333848    0.832478   -4.924980
    153          1           0      -23.817398   -0.792760   -4.878503
    154          1           0      -22.383690   -0.391141   -3.940814
    155          1           0      -25.002721    4.312000   -1.266406
    156          1           0      -21.890824    5.461519    1.490959
    157          1           0      -22.295163    7.044866    0.842992
    158          1           0      -21.410488    5.961563   -0.218995
 ---------------------------------------------------------------------

 SCF Done:  E(RPBE1PBE) =  -4067.40601246     A.U. after   16 cycles

 Excitation energies and oscillator strengths:

 Excited State   1:      Singlet-A      1.8106 eV  684.78 nm  f=0.3730  <S**2>=0.000
     309 -> 315        0.15520
     312 -> 314        0.69951
     312 <- 314       -0.12511
 This state for optimization and/or second-order correction.
 Total Energy, E(TD-HF/TD-DFT) =  -4067.33947540
 Copying the excited state density for this state as the 1-particle RhoCI density.

 Excited State   2:      Singlet-A      1.8182 eV  681.89 nm  f=0.3851  <S**2>=0.000
     310 -> 316        0.16261
     311 -> 313        0.69668
     311 <- 313       -0.11884

 Excited State   3:      Singlet-A      1.8738 eV  661.67 nm  f=0.0000  <S**2>=0.000
     312 -> 313        0.70711

 Excited State   4:      Singlet-A      1.9734 eV  628.26 nm  f=0.0000  <S**2>=0.000
     311 -> 314        0.70711

 Excited State   5:      Singlet-A      2.1901 eV  566.11 nm  f=0.1401  <S**2>=0.000
     310 -> 313        0.66503
     311 -> 316       -0.22002

 The electronic state is 1-A.
 Alpha  occ. eigenvalues --  -46.92336 -46.90895 -19.25486 -19.24935 -19.19698
 Alpha  occ. eigenvalues --  -19.19472 -19.19470 -19.18877 -19.18876 -19.18535
 Alpha  occ. eigenvalues --  -14.42137 -14.41940 -14.41360 -14.41091 -14.39895
 Alpha  occ. eigenvalues --  -14.39148 -14.38588 -14.38452 -10.36124 -10.35444
 Alpha  occ. eigenvalues --  -10.32824 -10.32562 -10.32472 -10.31945 -10.29755
 Alpha  occ. eigenvalues --  -10.29469 -10.29104 -10.29021 -10.28645 -10.28637
 Alpha  occ. eigenvalues --  -10.28550 -10.28399 -10.28363 -10.28232 -10.28024
 Alpha  occ. eigenvalues --  -10.27834 -10.27742 -10.27326 -10.27146 -10.26990
 Alpha  occ. eigenvalues --  -10.26964 -10.26938 -10.26819 -10.26557 -10.26518
 Alpha  occ. eigenvalues --  -10.26382 -10.26183 -10.25945 -10.25927 -10.25909
 Alpha  occ. eigenvalues --  -10.25892 -10.25602 -10.25599 -10.25595 -10.25589
 Alpha  occ. eigenvalues --  -10.25575 -10.25352 -10.25346 -10.25212 -10.25139
 Alpha  occ. eigenvalues --  -10.25113 -10.25066 -10.24973 -10.24950 -10.24935
 Alpha  occ. eigenvalues --  -10.24702 -10.24539 -10.24423 -10.24417 -10.24266
 Alpha  occ. eigenvalues --  -10.24050 -10.24006 -10.23870 -10.23692 -10.23521
 Alpha  occ. eigenvalues --  -10.23510 -10.23269 -10.23246 -10.23189 -10.23187
 Alpha  occ. eigenvalues --  -10.23168 -10.23163 -10.23083 -10.22549 -10.22511
 Alpha  occ. eigenvalues --  -10.22395  -3.14485  -3.13249  -1.87295  -1.86859
 Alpha  occ. eigenvalues --   -1.86722  -1.86094  -1.85642  -1.85470  -1.11611
 Alpha  occ. eigenvalues --   -1.10225  -1.05062  -1.04289  -1.03088  -1.03049
 Alpha  occ. eigenvalues --   -1.02289  -1.01888  -1.00046  -0.98899  -0.98515
 Alpha  occ. eigenvalues --   -0.98077  -0.97898  -0.97727  -0.96892  -0.96715
 Alpha  occ. eigenvalues --   -0.87605  -0.86602  -0.83533  -0.83380  -0.83117
 Alpha  occ. eigenvalues --   -0.82925  -0.82799  -0.82421  -0.82186  -0.81735
 Alpha  occ. eigenvalues --   -0.81485  -0.81011  -0.80888  -0.79745  -0.78631
 Alpha  occ. eigenvalues --   -0.78260  -0.78073  -0.77679  -0.76797  -0.76467
 Alpha  occ. eigenvalues --   -0.75813  -0.75495  -0.75352  -0.74986  -0.74902
 Alpha  occ. eigenvalues --   -0.74140  -0.72875  -0.72734  -0.71854  -0.71511
 Alpha  occ. eigenvalues --   -0.71298  -0.71072  -0.70464  -0.70164  -0.69582
 Alpha  occ. eigenvalues --   -0.69353  -0.67632  -0.67047  -0.66253  -0.65516
 Alpha  occ. eigenvalues --   -0.64266  -0.63863  -0.63553  -0.63311  -0.62859
 Alpha  occ. eigenvalues --   -0.62661  -0.61925  -0.60553  -0.60232  -0.59774
 Alpha  occ. eigenvalues --   -0.59394  -0.59312  -0.59185  -0.58762  -0.58690
 Alpha  occ. eigenvalues --   -0.58629  -0.56618  -0.56255  -0.55418  -0.54803
 Alpha  occ. eigenvalues --   -0.54574  -0.54077  -0.53704  -0.53491  -0.53391
 Alpha  occ. eigenvalues --   -0.52889  -0.52760  -0.52401  -0.52049  -0.51473
 Alpha  occ. eigenvalues --   -0.51139  -0.50502  -0.50450  -0.50303  -0.49655
 Alpha  occ. eigenvalues --   -0.49380  -0.49343  -0.49226  -0.48815  -0.48503
 Alpha  occ. eigenvalues --   -0.48025  -0.48013  -0.47977  -0.47716  -0.47390
 Alpha  occ. eigenvalues --   -0.47322  -0.47271  -0.47164  -0.46798  -0.46714
 Alpha  occ. eigenvalues --   -0.46519  -0.46301  -0.46275  -0.45925  -0.45890
 Alpha  occ. eigenvalues --   -0.45665  -0.45343  -0.45003  -0.44881  -0.44579
 Alpha  occ. eigenvalues --   -0.44479  -0.44440  -0.44265  -0.44157  -0.43885
 Alpha  occ. eigenvalues --   -0.43860  -0.43815  -0.43725  -0.43570  -0.43450
 Alpha  occ. eigenvalues --   -0.43400  -0.43221  -0.42960  -0.42843  -0.42726
 Alpha  occ. eigenvalues --   -0.42488  -0.42362  -0.42348  -0.42138  -0.42100
 Alpha  occ. eigenvalues --   -0.41834  -0.41597  -0.41426  -0.41321  -0.41115
 Alpha  occ. eigenvalues --   -0.41086  -0.40975  -0.40840  -0.40600  -0.40552
 Alpha  occ. eigenvalues --   -0.40191  -0.40173  -0.39978  -0.39939  -0.39449
 Alpha  occ. eigenvalues --   -0.39422  -0.39293  -0.39005  -0.38988  -0.38875
 Alpha  occ. eigenvalues --   -0.38817  -0.38563  -0.38552  -0.38339  -0.38225
 Alpha  occ. eigenvalues --   -0.38206  -0.38001  -0.37698  -0.37685  -0.37474
 Alpha  occ. eigenvalues --   -0.37297  -0.36872  -0.36813  -0.36762  -0.36702
 Alpha  occ. eigenvalues --   -0.36535  -0.36513  -0.36349  -0.36308  -0.35980
 Alpha  occ. eigenvalues --   -0.35777  -0.35586  -0.35578  -0.35445  -0.35320
 Alpha  occ. eigenvalues --   -0.35023  -0.34914  -0.34731  -0.34610  -0.34141
 Alpha  occ. eigenvalues --   -0.33670  -0.33354  -0.32970  -0.32825  -0.32647
 Alpha  occ. eigenvalues --   -0.32465  -0.31972  -0.31928  -0.31670  -0.31490
 Alpha  occ. eigenvalues --   -0.31382  -0.30891  -0.29486  -0.29219  -0.29104
 Alpha  occ. eigenvalues --   -0.28924  -0.28463  -0.28439  -0.27086  -0.27056
 Alpha  occ. eigenvalues --   -0.26304  -0.26193  -0.25980  -0.25830  -0.25404
 Alpha  occ. eigenvalues --   -0.25278  -0.24973  -0.24804  -0.21457  -0.21077
 Alpha  occ. eigenvalues --   -0.19004  -0.18777
 Alpha virt. eigenvalues --   -0.11647  -0.11507  -0.05101  -0.05038  -0.04292
 Alpha virt. eigenvalues --   -0.03828  -0.02332  -0.02059  -0.01285   0.00201
 Alpha virt. eigenvalues --    0.00578   0.01003   0.01053   0.01376   0.01731

 Mulliken charges:
               1
     1  Mg  12.001451
     2  C    6.024817
     3  C    6.004603
     4  C    5.970341
     5  C    5.986484
     6  N    7.011833
     7  C    5.961071
     8  C    6.014698
     9  C    5.993278
    10  C    6.024707
    11  C    5.995795
    12  C    6.002818
    13  C    5.997585
    14  H    1.004081
    15  N    6.993952
    16  C    6.036286
    17  C    6.023626
    18  C    6.007570
    19  C    6.044886
    20  C    5.995247
    21  C    6.012497
    22  O    8.025081
    23  C    5.994437
    24  N    6.982103
    25  C    6.038508
    26  C    5.992067
    27  C    6.005321
    28  C    5.979085
    29  C    5.998930
    30  C    6.007361
    31  C    6.000606
    32  N    7.003766
    33  C    5.977433
    34  C    5.965017
    35  C    6.001282
    36  C    5.968406
    37  C    6.004057
    38  C    5.984650
    39  O    7.973673
    40  C    5.997181
    41  C    5.998198
    42  O    7.996123
    43  O    7.998312
    44  C    6.000881
    45  H    1.016315
    46  H    1.004290
    47  H    0.986050
    48  H    0.998141
    49  H    1.001134
    50  H    1.000237
    51  H    1.014548
    52  H    0.998408
    53  H    0.994792
    54  H    1.007392
    55  H    0.993063
    56  H    0.997723
    57  H    1.018301
    58  H    1.017205
    59  H    1.015183
    60  H    1.013633
    61  H    1.005671
    62  H    1.005485
    63  H    0.998429
    64  H    0.998799
    65  H    1.012083
    66  H    1.005517
    67  H    0.992548
    68  H    1.004666
    69  H    0.984845
    70  H    0.992812
    71  H    0.995426
    72  H    1.000543
    73  H    0.977992
    74  H    0.982377
    75  H    0.984108
    76  H    0.992375
    77  H    0.994980
    78  H    0.995034
    79  H    0.999796
    80  Mg  12.000011
    81  C    5.999926
    82  C    5.999938
    83  C    6.000062
    84  C    6.000041
    85  N    6.999947
    86  C    6.000065
    87  C    5.999993
    88  C    6.000016
    89  C    6.000032
    90  C    6.000000
    91  C    6.000004
    92  C    6.000001
    93  H    0.999977
    94  N    7.000000
    95  C    6.000022
    96  C    5.999975
    97  C    6.000043
    98  C    5.999961
    99  C    5.999999
   100  C    5.999986
   101  O    7.999999
   102  C    5.999996
   103  N    7.000063
   104  C    5.999948
   105  C    5.999999
   106  C    5.999988
   107  C    5.999979
   108  C    6.000006
   109  C    5.999997
   110  C    6.000001
   111  N    6.999967
   112  C    5.999973
   113  C    6.000005
   114  C    5.999969
   115  C    6.000036
   116  C    6.000009
   117  C    6.000023
   118  O    8.000004
   119  C    6.000008
   120  C    6.000001
   121  O    7.999980
   122  O    8.000007
   123  C    6.000003
   124  H    0.999997
   125  H    0.999998
   126  H    1.000004
   127  H    0.999984
   128  H    1.000005
   129  H    0.999986
   130  H    0.999997
   131  H    0.999979
   132  H    1.000013
   133  H    1.000004
   134  H    1.000012
   135  H    1.000009
   136  H    0.999989
   137  H    1.000007
   138  H    0.999988
   139  H    1.000008
   140  H    0.999984
   141  H    1.000000
   142  H    1.000017
   143  H    0.999987
   144  H    1.000011
   145  H    0.999987
   146  H    0.999989
   147  H    1.000008
   148  H    0.999999
   149  H    1.000011
   150  H    1.000001
   151  H    1.000017
   152  H    1.000026
   153  H    1.000022
   154  H    0.999994
   155  H    1.000020
   156  H    0.999978
   157  H    1.000009
   158  H    1.000002
 Sum of Mulliken charges = 624.00000

 Dipole moment (field-independent basis, Debye):
    X=             -4.4097    Y=             -2.0224    Z=              9.2257  Tot=             10.4235
 Quadrupole moment (field-independent basis, Debye-Ang):
   XX=           -235.3766   YY=              0.3765   ZZ=              3.6440
   XY=            -51.7615   XZ=            245.5980   YZ=             -8.0702

 Normal termination of Gaussian 16 at Fri Oct 15 04:35:45 2021.
