 Gaussian 16, Revision A.03,
 Gaussian 16:  ES64L-G16RevA.03 25-Dec-2016

 --------------------------------------------------------
 #p PBE1PBE/Def2SVP td=(nstates=5) density=(transition=1)
 --------------------------------------------------------

 --------------------------------
 TDDFT excited states in gaussian
 --------------------------------
 Symbolic Z-matrix:
 Charge =  0 Multiplicity = 1

                         Standard orientation:
 ---------------------------------------------------------------------
 Center     Atomic      Atomic             Coordinates (Angstroms)
 Number     Number       Type             X           Y           Z
 ---------------------------------------------------------------------
      1         12           0       12.173281    0.094798    0.586645
      2          6           0        8.653700    0.103116   -0.182298
      3          6           0       12.598245    2.672049   -1.494936
      4          6           0       15.457605   -0.564794    0.680984
      5          6           0       11.595597   -2.884111    2.346373
      6          7           0       10.802683    1.186092   -0.702676
      7          6           0        9.397724    1.170418   -0.729754
      8          6           0        8.825116    2.396097   -1.538696
      9          6           0       10.121137    3.138290   -1.984838
     10          6           0       11.254473    2.319843   -1.310977
     11          6           0       10.348901    3.304091   -3.465930
     12          6           0        7.772857    3.279908   -0.677962
     13          6           0        6.418064    3.524554   -1.353859
     14          1           0        6.064396    5.046283   -1.545214
     15          7           0       13.821072    1.031603   -0.183468
     16          6           0       13.816850    2.070673   -1.024599
     17          6           0       15.175183    2.459025   -1.408284
     18          6           0       15.999031    1.431703   -0.831374
     19          6           0       15.102055    0.551573   -0.075140
     20          6           0       15.477441    3.629485   -2.241886
     21          6           0       17.530134    1.293601   -1.102429
     22          8           0       18.211336    0.448930   -0.545620
     23          6           0       18.271473    2.195303   -2.037160
     24          7           0       13.301049   -1.452320    1.381011
     25          6           0       14.691516   -1.428927    1.396453
     26          6           0       15.263403   -2.631365    2.216984
     27          6           0       14.004576   -3.136596    3.015999
     28          6           0       12.889559   -2.420034    2.254658
     29          6           0       16.095575   -3.709386    1.449018
     30          6           0       14.006146   -2.745722    4.519292
     31          6           0       13.505577   -3.747926    5.528616
     32          7           0       10.500304   -1.188359    0.973341
     33          6           0       10.435280   -2.345547    1.696286
     34          6           0        8.969234   -2.756108    1.826583
     35          6           0        8.243354   -1.802884    1.154132
     36          6           0        9.219484   -0.910048    0.592634
     37          6           0        8.521670   -3.933787    2.662169
     38          6           0        6.930235   -1.353179    0.727538
     39          8           0        5.863287   -1.932690    1.019583
     40          6           0        7.146647   -0.081094   -0.289759
     41          6           0        6.756923   -0.345745   -1.729072
     42          8           0        7.228668   -1.318644   -2.350182
     43          8           0        5.723020    0.484133   -2.164686
     44          6           0        5.068537   -0.029753   -3.362238
     45          1           0       12.798000    3.576902   -2.072323
     46          1           0       16.544116   -0.666933    0.710092
     47          1           0       11.481783   -3.744730    3.009524
     48          1           0        8.292607    1.908134   -2.354810
     49          1           0        9.959814    4.174252   -1.683588
     50          1           0        9.578813    2.830158   -4.074726
     51          1           0       11.221193    2.661691   -3.581604
     52          1           0       10.412822    4.346700   -3.778807
     53          1           0        8.322279    4.205520   -0.508546
     54          1           0        7.667525    2.838223    0.312600
     55          1           0        5.677387    2.976641   -0.771376
     56          1           0        6.434967    3.091616   -2.354866
     57          1           0       16.050185    3.513532   -3.161475
     58          1           0       16.223943    4.180142   -1.670642
     59          1           0       14.672274    4.358228   -2.337910
     60          1           0       18.154894    3.194584   -1.615987
     61          1           0       17.724972    2.179978   -2.980551
     62          1           0       19.286115    1.801540   -2.081741
     63          1           0       15.947034   -2.157135    2.921194
     64          1           0       13.812985   -4.200409    2.877650
     65          1           0       16.210965   -3.292295    0.448865
     66          1           0       15.660270   -4.708128    1.466585
     67          1           0       17.132332   -3.744550    1.785966
     68          1           0       13.336319   -1.889269    4.444788
     69          1           0       14.958518   -2.369750    4.893658
     70          1           0       14.205921   -3.696158    6.362329
     71          1           0       13.524732   -4.773940    5.159741
     72          1           0       12.576383   -3.334707    5.921758
     73          1           0        9.419986   -4.396488    3.070465
     74          1           0        8.081156   -4.673764    1.994349
     75          1           0        7.787952   -3.602870    3.396910
     76          1           0        6.625364    0.780945    0.126488
     77          1           0        4.049724   -0.387264   -3.219471
     78          1           0        5.622369   -0.820574   -3.868377
     79          1           0        5.028500    0.802819   -4.064137
     80         12           0      -11.609646   -0.376114   -0.583829
     81          6           0      -11.264790    2.511018    1.408313
     82          6           0       -8.642188    0.390495   -1.944398
     83          6           0      -11.801541   -3.318592   -1.992948
     84          6           0      -14.340895   -1.248603    1.549130
     85          7           0      -10.116075    1.253537   -0.248068
     86          6           0      -10.182302    2.360948    0.528460
     87          6           0       -8.999586    3.293234    0.361052
     88          6           0       -8.342602    2.673598   -0.937159
     89          6           0       -9.039128    1.337073   -1.088090
     90          6           0       -8.479231    3.560694   -2.242814
     91          6           0       -7.930929    3.509195    1.519595
     92          6           0       -7.835861    2.539159    2.727114
     93          1           0       -6.415615    2.280479    3.355409
     94          7           0      -10.393249   -1.253105   -1.931678
     95          6           0       -9.179972   -0.857185   -2.292539
     96          6           0       -8.568920   -1.902956   -3.157493
     97          6           0       -9.617143   -2.952667   -3.300627
     98          6           0      -10.661741   -2.525991   -2.369127
     99          6           0       -7.254810   -1.742779   -3.873281
    100          6           0       -9.497338   -4.210590   -4.120576
    101          8           0       -8.488063   -4.376469   -4.801134
    102          6           0      -10.538779   -5.389628   -4.140691
    103          7           0      -12.867087   -2.167076   -0.188339
    104          6           0      -12.770725   -3.106054   -1.064784
    105          6           0      -13.944115   -4.145851   -0.779983
    106          6           0      -14.546791   -3.553181    0.495438
    107          6           0      -13.860554   -2.211381    0.664488
    108          6           0      -14.980711   -4.425718   -1.880852
    109          6           0      -14.183586   -4.385872    1.831633
    110          6           0      -15.354236   -5.092872    2.539011
    111          7           0      -12.592464    0.364012    1.148387
    112          6           0      -13.729538   -0.010731    1.814087
    113          6           0      -14.189606    1.075569    2.717605
    114          6           0      -13.168843    2.067673    2.695847
    115          6           0      -12.292304    1.596351    1.625117
    116          6           0      -15.401842    1.042495    3.674948
    117          6           0      -12.680057    3.301323    3.214905
    118          8           0      -13.001739    4.029609    4.169389
    119          6           0      -11.455534    3.690954    2.348328
    120          6           0      -11.775724    5.047681    1.714227
    121          8           0      -11.380548    6.162586    1.929748
    122          8           0      -12.547564    4.809895    0.571756
    123          6           0      -12.891322    5.983510   -0.289816
    124          1           0       -7.670708    0.660471   -2.364126
    125          1           0      -11.842261   -4.274787   -2.520241
    126          1           0      -15.319976   -1.413414    2.002969
    127          1           0       -9.442738    4.248385    0.079845
    128          1           0       -7.271747    2.551567   -0.773782
    129          1           0       -9.067856    4.455975   -2.045412
    130          1           0       -9.122264    2.935035   -2.860844
    131          1           0       -7.490014    3.764207   -2.653266
    132          1           0       -8.085787    4.518032    1.902395
    133          1           0       -6.935900    3.551207    1.075297
    134          1           0       -8.229165    1.587809    2.368789
    135          1           0       -8.323911    2.908907    3.628363
    136          1           0       -7.099752   -2.481850   -4.659024
    137          1           0       -6.488819   -1.697150   -3.098244
    138          1           0       -7.292626   -0.720480   -4.250990
    139          1           0      -11.595840   -5.204635   -4.335428
    140          1           0      -10.561173   -5.833995   -3.145629
    141          1           0      -10.279734   -6.152136   -4.874687
    142          1           0      -13.553965   -5.148432   -0.608006
    143          1           0      -15.629237   -3.438756    0.562748
    144          1           0      -14.767088   -3.865681   -2.791390
    145          1           0      -15.997762   -4.240879   -1.533480
    146          1           0      -14.982508   -5.460791   -2.222507
    147          1           0      -13.748392   -3.747096    2.598967
    148          1           0      -13.433374   -5.114423    1.523472
    149          1           0      -15.275634   -5.160477    3.624353
    150          1           0      -15.329814   -6.118622    2.171229
    151          1           0      -16.218172   -4.495563    2.247316
    152          1           0      -15.840029    0.057309    3.831255
    153          1           0      -16.137981    1.681179    3.187422
    154          1           0      -15.116616    1.542899    4.600007
    155          1           0      -10.577570    3.784807    2.986590
    156          1           0      -13.000913    6.960750    0.179878
    157          1           0      -13.884351    5.732684   -0.662277
    158          1           0      -12.304046    6.156567   -1.191854
 ---------------------------------------------------------------------

 SCF Done:  E(RPBE1PBE) =  -4067.34890461     A.U. after   16 cycles

 Excitation energies and oscillator strengths:

 Excited State   1:      Singlet-A      1.7682 eV  701.19 nm  f=0.0000  <S**2>=0.000
     312 -> 313        0.70709
 This state for optimization and/or second-order correction.
 Total Energy, E(TD-HF/TD-DFT) =  -4067.28392486
 Copying the excited state density for this state as the 1-particle RhoCI density.

 Excited State   2:      Singlet-A      1.8517 eV  669.56 nm  f=0.4269  <S**2>=0.000
     310 -> 316        0.16661
     312 -> 314        0.69576
     312 <- 314       -0.11413

 Excited State   3:      Singlet-A      1.9111 eV  648.74 nm  f=0.3847  <S**2>=0.000
     309 -> 315        0.17691
     311 -> 313        0.69061
     311 <- 313       -0.10564

 Excited State   4:      Singlet-A      2.0777 eV  596.73 nm  f=0.0000  <S**2>=0.000
     311 -> 314        0.70708

 Excited State   5:      Singlet-A      2.2680 eV  546.67 nm  f=0.0963  <S**2>=0.000
     309 -> 313        0.65226
     311 -> 315       -0.25837

 The electronic state is 1-A.
 Alpha  occ. eigenvalues --  -46.93405 -46.91797 -19.27228 -19.25175 -19.20956
 Alpha  occ. eigenvalues --  -19.20539 -19.20020 -19.19475 -19.18909 -19.18865
 Alpha  occ. eigenvalues --  -14.42055 -14.41776 -14.41250 -14.41222 -14.39958
 Alpha  occ. eigenvalues --  -14.39828 -14.39256 -14.39062 -10.37726 -10.36816
 Alpha  occ. eigenvalues --  -10.33537 -10.32857 -10.32617 -10.32183 -10.29277
 Alpha  occ. eigenvalues --  -10.29056 -10.29034 -10.28889 -10.28789 -10.28676
 Alpha  occ. eigenvalues --  -10.28624 -10.28498 -10.28452 -10.28244 -10.27997
 Alpha  occ. eigenvalues --  -10.27954 -10.27887 -10.27745 -10.27596 -10.27580
 Alpha  occ. eigenvalues --  -10.27576 -10.27429 -10.27363 -10.26784 -10.26709
 Alpha  occ. eigenvalues --  -10.26687 -10.26541 -10.26475 -10.26438 -10.26384
 Alpha  occ. eigenvalues --  -10.26357 -10.26065 -10.25842 -10.25760 -10.25701
 Alpha  occ. eigenvalues --  -10.25536 -10.25512 -10.25417 -10.25335 -10.25194
 Alpha  occ. eigenvalues --  -10.25167 -10.25103 -10.25083 -10.24888 -10.24869
 Alpha  occ. eigenvalues --  -10.24724 -10.24621 -10.24609 -10.24413 -10.24332
 Alpha  occ. eigenvalues --  -10.24135 -10.24102 -10.23982 -10.23980 -10.23935
 Alpha  occ. eigenvalues --  -10.23628 -10.23519 -10.23517 -10.23442 -10.23283
 Alpha  occ. eigenvalues --  -10.23160 -10.23041 -10.22980 -10.22953 -10.22925
 Alpha  occ. eigenvalues --  -10.22827  -3.15465  -3.14023  -1.88293  -1.87837
 Alpha  occ. eigenvalues --   -1.87691  -1.86845  -1.86381  -1.86274  -1.10981
 Alpha  occ. eigenvalues --   -1.10717  -1.04949  -1.04391  -1.03839  -1.03629
 Alpha  occ. eigenvalues --   -1.02626  -1.02026  -1.01347  -0.99376  -0.98651
 Alpha  occ. eigenvalues --   -0.98561  -0.97976  -0.97974  -0.97226  -0.96512
 Alpha  occ. eigenvalues --   -0.87797  -0.86865  -0.84119  -0.83422  -0.83129
 Alpha  occ. eigenvalues --   -0.82996  -0.82821  -0.82577  -0.82369  -0.81615
 Alpha  occ. eigenvalues --   -0.81556  -0.81056  -0.80377  -0.79836  -0.79140
 Alpha  occ. eigenvalues --   -0.78565  -0.78142  -0.77900  -0.77119  -0.76965
 Alpha  occ. eigenvalues --   -0.76157  -0.75971  -0.75484  -0.75070  -0.74728
 Alpha  occ. eigenvalues --   -0.74538  -0.72805  -0.72784  -0.71938  -0.71892
 Alpha  occ. eigenvalues --   -0.71281  -0.71195  -0.70898  -0.70467  -0.69737
 Alpha  occ. eigenvalues --   -0.69128  -0.67689  -0.66837  -0.66835  -0.65435
 Alpha  occ. eigenvalues --   -0.63961  -0.63526  -0.63401  -0.63014  -0.62773
 Alpha  occ. eigenvalues --   -0.62181  -0.62013  -0.61259  -0.61179  -0.60113
 Alpha  occ. eigenvalues --   -0.59946  -0.59736  -0.59462  -0.59399  -0.59362
 Alpha  occ. eigenvalues --   -0.58878  -0.57621  -0.57124  -0.55078  -0.54901
 Alpha  occ. eigenvalues --   -0.54839  -0.54262  -0.53994  -0.53275  -0.53129
 Alpha  occ. eigenvalues --   -0.53118  -0.52882  -0.52687  -0.51937  -0.51626
 Alpha  occ. eigenvalues --   -0.50967  -0.50842  -0.50362  -0.50094  -0.49914
 Alpha  occ. eigenvalues --   -0.49631  -0.49554  -0.49306  -0.49018  -0.48463
 Alpha  occ. eigenvalues --   -0.48359  -0.48226  -0.48147  -0.47686  -0.47481
 Alpha  occ. eigenvalues --   -0.47325  -0.47211  -0.46870  -0.46565  -0.46419
 Alpha  occ. eigenvalues --   -0.46247  -0.46182  -0.46049  -0.46031  -0.45904
 Alpha  occ. eigenvalues --   -0.45700  -0.45700  -0.45579  -0.45296  -0.45159
 Alpha  occ. eigenvalues --   -0.44885  -0.44605  -0.44364  -0.44118  -0.44025
 Alpha  occ. eigenvalues --   -0.43932  -0.43846  -0.43659  -0.43433  -0.43386
 Alpha  occ. eigenvalues --   -0.43282  -0.43171  -0.43093  -0.42968  -0.42864
 Alpha  occ. eigenvalues --   -0.42784  -0.42600  -0.42552  -0.42270  -0.42122
 Alpha  occ. eigenvalues --   -0.41894  -0.41840  -0.41683  -0.41642  -0.41500
 Alpha  occ. eigenvalues --   -0.41300  -0.41161  -0.41038  -0.40795  -0.40726
 Alpha  occ. eigenvalues --   -0.40671  -0.40531  -0.40420  -0.40184  -0.40073
 Alpha  occ. eigenvalues --   -0.40071  -0.39609  -0.39303  -0.39084  -0.38965
 Alpha  occ. eigenvalues --   -0.38876  -0.38845  -0.38755  -0.38591  -0.38409
 Alpha  occ. eigenvalues --   -0.38344  -0.38088  -0.37904  -0.37868  -0.37819
 Alpha  occ. eigenvalues --   -0.37636  -0.37599  -0.37450  -0.37004  -0.36907
 Alpha  occ. eigenvalues --   -0.36805  -0.36617  -0.36564  -0.36254  -0.36091
 Alpha  occ. eigenvalues --   -0.35989  -0.35758  -0.35644  -0.35544  -0.35506
 Alpha  occ. eigenvalues --   -0.35064  -0.34848  -0.34413  -0.34056  -0.34047
 Alpha  occ. eigenvalues --   -0.33767  -0.33285  -0.33213  -0.32799  -0.32643
 Alpha  occ. eigenvalues --   -0.32455  -0.32250  -0.31916  -0.31507  -0.31502
 Alpha  occ. eigenvalues --   -0.31248  -0.31126  -0.30010  -0.29803  -0.29624
 Alpha  occ. eigenvalues --   -0.29366  -0.29045  -0.28528  -0.27385  -0.27072
 Alpha  occ. eigenvalues --   -0.26533  -0.26344  -0.26104  -0.25863  -0.25836
 Alpha  occ. eigenvalues --   -0.25595  -0.25422  -0.25010  -0.21365  -0.21049
 Alpha  occ. eigenvalues --   -0.19132  -0.18437
 Alpha virt. eigenvalues --   -0.11377  -0.10917  -0.05478  -0.04832  -0.04727
 Alpha virt. eigenvalues --   -0.04267  -0.02600  -0.02244  -0.01680  -0.01404
 Alpha virt. eigenvalues --   -0.00789   0.00226   0.00367   0.00586   0.01302

 Mulliken charges:
               1
     1  Mg  12.000000
     2  C    6.000000
     3  C    6.000000
     4  C    6.000000
     5  C    6.000000
     6  N    7.000000
     7  C    6.000000
     8  C    6.000000
     9  C    6.000000
    10  C    6.000000
    11  C    6.000000
    12  C    6.000000
    13  C    6.000000
    14  H    1.000000
    15  N    7.000000
    16  C    6.000000
    17  C    6.000000
    18  C    6.000000
    19  C    6.000000
    20  C    6.000000
    21  C    6.000000
    22  O    8.000000
    23  C    6.000000
    24  N    7.000000
    25  C    6.000000
    26  C    6.000000
    27  C    6.000000
    28  C    6.000000
    29  C    6.000000
    30  C    6.000000
    31  C    6.000000
    32  N    7.000000
    33  C    6.000000
    34  C    6.000000
    35  C    6.000000
    36  C    6.000000
    37  C    6.000000
    38  C    6.000000
    39  O    8.000000
    40  C    6.000000
    41  C    6.000000
    42  O    8.000000
    43  O    8.000000
    44  C    6.000000
    45  H    1.000000
    46  H    1.000000
    47  H    1.000000
    48  H    1.000000
    49  H    1.000000
    50  H    1.000000
    51  H    1.000000
    52  H    1.000000
    53  H    1.000000
    54  H    1.000000
    55  H    1.000000
    56  H    1.000000
    57  H    1.000000
    58  H    1.000000
    59  H    1.000000
    60  H    1.000000
    61  H    1.000000
    62  H    1.000000
    63  H    1.000000
    64  H    1.000000
    65  H    1.000000
    66  H    1.000000
    67  H    1.000000
    68  H    1.000000
    69  H    1.000000
    70  H    1.000000
    71  H    1.000000
    72  H    1.000000
    73  H    1.000000
    74  H    1.000000
    75  H    1.000000
    76  H    1.000000
    77  H    1.000000
    78  H    1.000000
    79  H    1.000000
    80  Mg  12.000000
    81  C    6.000000
    82  C    6.000000
    83  C    6.000000
    84  C    6.000000
    85  N    7.000000
    86  C    6.000000
    87  C    6.000000
    88  C    6.000000
    89  C    6.000000
    90  C    6.000000
    91  C    6.000000
    92  C    6.000000
    93  H    1.000000
    94  N    7.000000
    95  C    6.000000
    96  C    6.000000
    97  C    6.000000
    98  C    6.000000
    99  C    6.000000
   100  C    6.000000
   101  O    8.000000
   102  C    6.000000
   103  N    7.000000
   104  C    6.000000
   105  C    6.000000
   106  C    6.000000
   107  C    6.000000
   108  C    6.000000
   109  C    6.000000
   110  C    6.000000
   111  N    7.000000
   112  C    6.000000
   113  C    6.000000
   114  C    6.000000
   115  C    6.000000
   116  C    6.000000
   117  C    6.000000
   118  O    8.000000
   119  C    6.000000
   120  C    6.000000
   121  O    8.000000
   122  O    8.000000
   123  C    6.000000
   124  H    1.000000
   125  H    1.000000
   126  H    1.000000
   127  H    1.000000
   128  H    1.000000
   129  H    1.000000
   130  H    1.000000
   131  H    1.000000
   132  H    1.000000
   133  H    1.000000
   134  H    1.000000
   135  H    1.000000
   136  H    1.000000
   137  H    1.000000
   138  H    1.000000
   139  H    1.000000
   140  H    1.000000
   141  H    1.000000
   142  H    1.000000
   143  H    1.000000
   144  H    1.000000
   145  H    1.000000
   146  H    1.000000
   147  H    1.000000
   148  H    1.000000
   149  H    1.000000
   150  H    1.000000
   151  H    1.000000
   152  H    1.000000
   153  H    1.000000
   154  H    1.000000
   155  H    1.000000
   156  H    1.000000
   157  H    1.000000
   158  H    1.000000
 Sum of Mulliken charges = 624.00000

 Dipole moment (field-independent basis, Debye):
    X=             -0.0000    Y=             -0.0000    Z=              0.0000  Tot=              0.0000
 Quadrupole moment (field-independent basis, Debye-Ang):
   XX=             -0.0000   YY=              0.0000   ZZ=              0.0000
   XY=             -0.0000   XZ=              0.0000   YZ=             -0.0000

 Normal termination of Gaussian 16 at Thu Oct 14 21:03:22 2021.
