 Gaussian 16, Revision A.03,
 Gaussian 16:  ES64L-G16RevA.03 25-Dec-2016

 --------------------------------------------------------
 #p PBE1PBE/Def2SVP td=(nstates=5) density=(transition=1)
 --------------------------------------------------------

 --------------------------------
 TDDFT excited states in gaussian
 --------------------------------
 Symbolic Z-matrix:
 Charge =  0 Multiplicity = 1

                         Standard orientation:
 ---------------------------------------------------------------------
 Center     Atomic      Atomic             Coordinates (Angstroms)
 Number     Number       Type             X           Y           Z
 ---------------------------------------------------------------------
      1         12           0      -29.832728   -0.537583   -0.417758
      2          6           0      -26.716056    0.782525   -1.522659
      3          6           0      -28.224807   -3.362786    0.661855
      4          6           0      -32.617766   -1.309137    1.555900
      5          6           0      -31.295415    2.602403   -1.008945
      6          7           0      -27.559249   -1.040169   -0.242899
      7          6           0      -26.549623   -0.500397   -0.945073
      8          6           0      -25.437123   -1.522310   -1.092045
      9          6           0      -25.880672   -2.859328   -0.324855
     10          6           0      -27.408776   -2.410099   -0.076536
     11          6           0      -25.731632   -4.058472   -1.287984
     12          6           0      -24.121923   -0.970481   -0.565909
     13          6           0      -24.192370   -0.088328    0.703198
     14          1           0      -23.670303   -0.717268    2.023866
     15          7           0      -30.403273   -2.191734    0.883055
     16          6           0      -29.540724   -3.226132    1.174122
     17          6           0      -30.315400   -4.184510    1.898250
     18          6           0      -31.587446   -3.610391    2.280250
     19          6           0      -31.631743   -2.324148    1.539713
     20          6           0      -29.736280   -5.486080    2.402475
     21          6           0      -32.579115   -4.132058    3.321331
     22          8           0      -32.317056   -5.129907    3.964863
     23          6           0      -33.829033   -3.494928    3.609694
     24          7           0      -31.649155    0.526986    0.278119
     25          6           0      -32.647596   -0.058360    0.922857
     26          6           0      -33.822389    0.869783    1.185413
     27          6           0      -33.202273    2.236198    0.661987
     28          6           0      -32.021174    1.790833   -0.122454
     29          6           0      -35.168452    0.448324    0.416809
     30          6           0      -32.904852    3.220259    1.885251
     31          6           0      -33.701748    4.481885    2.060676
     32          7           0      -29.274097    1.176213   -1.306716
     33          6           0      -30.019880    2.337805   -1.593078
     34          6           0      -29.224788    3.279847   -2.402661
     35          6           0      -27.971551    2.667806   -2.389984
     36          6           0      -27.966374    1.452121   -1.620652
     37          6           0      -29.681157    4.563741   -3.178099
     38          6           0      -26.597511    2.862124   -2.863939
     39          8           0      -26.051746    3.743296   -3.548470
     40          6           0      -25.732949    1.663711   -2.350571
     41          6           0      -24.774971    2.400886   -1.479779
     42          8           0      -25.078064    3.096248   -0.544364
     43          8           0      -23.540414    2.285995   -1.960807
     44          6           0      -22.390846    2.880547   -1.193387
     45          1           0      -27.796031   -4.364352    0.733783
     46          1           0      -33.569861   -1.446044    2.072469
     47          1           0      -31.804556    3.568333   -1.044602
     48          1           0      -25.426051   -1.585369   -2.180189
     49          1           0      -25.324315   -3.015526    0.599742
     50          1           0      -25.027922   -4.762991   -0.845102
     51          1           0      -25.326396   -3.804642   -2.267841
     52          1           0      -26.716520   -4.521987   -1.338284
     53          1           0      -23.643078   -0.371101   -1.340265
     54          1           0      -23.452331   -1.783176   -0.282849
     55          1           0      -25.178963    0.191456    1.072337
     56          1           0      -23.611466    0.798014    0.447893
     57          1           0      -28.672434   -5.570348    2.179125
     58          1           0      -30.354066   -6.294534    2.010020
     59          1           0      -29.934176   -5.533719    3.472728
     60          1           0      -33.756918   -2.493885    4.035459
     61          1           0      -34.384605   -4.100757    4.325268
     62          1           0      -34.293909   -3.425983    2.625615
     63          1           0      -34.028315    1.037710    2.242227
     64          1           0      -34.064901    2.678693    0.163495
     65          1           0      -35.005407   -0.490532   -0.113211
     66          1           0      -35.366613    1.218729   -0.328625
     67          1           0      -36.070663    0.390656    1.027685
     68          1           0      -31.908665    3.655978    1.807830
     69          1           0      -32.971739    2.692825    2.835809
     70          1           0      -33.185025    5.380909    1.724644
     71          1           0      -33.796508    4.482796    3.147049
     72          1           0      -34.744714    4.412537    1.751184
     73          1           0      -29.828526    5.356524   -2.445206
     74          1           0      -30.572955    4.294425   -3.744257
     75          1           0      -28.859965    4.887779   -3.817172
     76          1           0      -25.319174    1.190403   -3.241761
     77          1           0      -22.236516    3.937009   -1.414041
     78          1           0      -21.459042    2.357263   -1.411728
     79          1           0      -22.647796    2.722228   -0.146019
     80         12           0       28.973983    0.449163    0.633647
     81          6           0       28.849486   -2.361394   -1.353106
     82          6           0       27.437538    2.272520   -2.027742
     83          6           0       29.379652    3.237197    2.314412
     84          6           0       30.623228   -1.338386    3.133286
     85          7           0       28.252469   -0.073662   -1.420536
     86          6           0       28.274710   -1.279039   -1.996858
     87          6           0       27.545095   -1.193315   -3.377070
     88          6           0       27.239231    0.360692   -3.583859
     89          6           0       27.731432    0.932640   -2.240343
     90          6           0       28.030578    1.081821   -4.658048
     91          6           0       26.324602   -2.115100   -3.519768
     92          6           0       26.401718   -2.944297   -4.790665
     93          1           0       25.129364   -3.456619   -5.481143
     94          7           0       28.398755    2.454042    0.218970
     95          6           0       27.756341    2.996484   -0.856488
     96          6           0       27.507243    4.359043   -0.694335
     97          6           0       28.170115    4.734771    0.525814
     98          6           0       28.684127    3.442856    1.098789
     99          6           0       26.739515    5.211497   -1.694229
    100          6           0       28.371342    6.120322    1.117512
    101          8           0       29.126346    6.240921    2.101776
    102          6           0       27.800061    7.327328    0.492917
    103          7           0       29.832221    0.835391    2.436498
    104          6           0       29.843772    2.092770    3.004516
    105          6           0       30.563451    2.173654    4.401841
    106          6           0       30.682001    0.621576    4.717570
    107          6           0       30.382568   -0.011425    3.346377
    108          6           0       31.948760    2.912623    4.575824
    109          6           0       29.902804    0.038956    5.982779
    110          6           0       28.423502   -0.170388    5.794240
    111          7           0       29.740177   -1.375684    0.850108
    112          6           0       30.390242   -2.010513    1.891283
    113          6           0       30.682761   -3.353844    1.598245
    114          6           0       30.058814   -3.522077    0.356716
    115          6           0       29.482920   -2.293773   -0.080668
    116          6           0       31.340856   -4.242689    2.565621
    117          6           0       29.935652   -4.506947   -0.647928
    118          8           0       30.439404   -5.631814   -0.666226
    119          6           0       29.098603   -3.823448   -1.850906
    120          6           0       29.880783   -3.893032   -3.072614
    121          8           0       30.846044   -3.220842   -3.355508
    122          8           0       29.463543   -4.898775   -3.831697
    123          6           0       30.185774   -5.214839   -5.026810
    124          1           0       27.015423    2.831219   -2.865164
    125          1           0       29.587937    4.074897    2.982758
    126          1           0       31.142907   -1.859727    3.939938
    127          1           0       28.360779   -1.480683   -4.039764
    128          1           0       26.202737    0.404700   -3.920156
    129          1           0       28.665638    0.435311   -5.264450
    130          1           0       28.716448    1.796432   -4.203852
    131          1           0       27.366583    1.723648   -5.237859
    132          1           0       25.359421   -1.609224   -3.489424
    133          1           0       26.304077   -2.768991   -2.648243
    134          1           0       26.901738   -3.871768   -4.509254
    135          1           0       26.967363   -2.345019   -5.503867
    136          1           0       26.227477    4.599106   -2.436522
    137          1           0       27.454066    5.779357   -2.290499
    138          1           0       26.112187    5.943171   -1.186470
    139          1           0       28.340475    8.220294    0.809047
    140          1           0       26.783768    7.428870    0.874886
    141          1           0       27.839119    7.246993   -0.593149
    142          1           0       29.895219    2.516382    5.192488
    143          1           0       31.706059    0.410519    5.023032
    144          1           0       32.228934    3.321674    3.605914
    145          1           0       32.731040    2.164472    4.709952
    146          1           0       32.035419    3.675188    5.350371
    147          1           0       29.983925    0.799883    6.758610
    148          1           0       30.357004   -0.853111    6.412390
    149          1           0       28.144349   -1.018236    6.418829
    150          1           0       27.995523   -0.299318    4.800890
    151          1           0       27.938917    0.740362    6.146147
    152          1           0       31.178315   -4.070740    3.629328
    153          1           0       32.391028   -4.462252    2.377004
    154          1           0       30.879152   -5.196260    2.310693
    155          1           0       28.175404   -4.389284   -1.974451
    156          1           0       29.818755   -4.661448   -5.891949
    157          1           0       29.997392   -6.267101   -5.238985
    158          1           0       31.242849   -4.984932   -4.892406
 ---------------------------------------------------------------------

 SCF Done:  E(RPBE1PBE) =  -4067.35290658     A.U. after   16 cycles

 Excitation energies and oscillator strengths:

 Excited State   1:      Singlet-A      1.8532 eV  669.02 nm  f=0.3388  <S**2>=0.000
     309 -> 315        0.19409
     312 -> 314        0.68720
 This state for optimization and/or second-order correction.
 Total Energy, E(TD-HF/TD-DFT) =  -4067.28480168
 Copying the excited state density for this state as the 1-particle RhoCI density.

 Excited State   2:      Singlet-A      1.9810 eV  625.87 nm  f=0.0000  <S**2>=0.000
     312 -> 313        0.70711

 Excited State   3:      Singlet-A      2.0638 eV  600.75 nm  f=0.0000  <S**2>=0.000
     311 -> 314        0.70711

 Excited State   4:      Singlet-A      2.2158 eV  559.54 nm  f=0.0719  <S**2>=0.000
     309 -> 314        0.63256
     312 -> 315       -0.30040

 Excited State   5:      Singlet-A      2.5903 eV  478.65 nm  f=0.0000  <S**2>=0.000
     309 -> 313        0.70711

 The electronic state is 1-A.
 Alpha  occ. eigenvalues --  -46.93600 -46.91106 -19.25722 -19.25416 -19.19149
 Alpha  occ. eigenvalues --  -19.19094 -19.18914 -19.18804 -19.18421 -19.18273
 Alpha  occ. eigenvalues --  -14.41943 -14.41841 -14.41679 -14.41477 -14.39861
 Alpha  occ. eigenvalues --  -14.39335 -14.39211 -14.38675 -10.35752 -10.35223
 Alpha  occ. eigenvalues --  -10.32203 -10.31943 -10.31700 -10.31425 -10.29788
 Alpha  occ. eigenvalues --  -10.29687 -10.29224 -10.29159 -10.28923 -10.28904
 Alpha  occ. eigenvalues --  -10.28815 -10.28568 -10.28522 -10.28411 -10.28387
 Alpha  occ. eigenvalues --  -10.28371 -10.27944 -10.27727 -10.27488 -10.26991
 Alpha  occ. eigenvalues --  -10.26800 -10.26794 -10.26731 -10.26590 -10.26557
 Alpha  occ. eigenvalues --  -10.26395 -10.26136 -10.26052 -10.26033 -10.25988
 Alpha  occ. eigenvalues --  -10.25905 -10.25904 -10.25881 -10.25796 -10.25775
 Alpha  occ. eigenvalues --  -10.25700 -10.25676 -10.25571 -10.25502 -10.25481
 Alpha  occ. eigenvalues --  -10.25200 -10.25104 -10.25059 -10.24996 -10.24831
 Alpha  occ. eigenvalues --  -10.24741 -10.24579 -10.24456 -10.24454 -10.24330
 Alpha  occ. eigenvalues --  -10.24185 -10.24165 -10.24108 -10.23921 -10.23829
 Alpha  occ. eigenvalues --  -10.23671 -10.23661 -10.23575 -10.23524 -10.23227
 Alpha  occ. eigenvalues --  -10.23050 -10.22986 -10.22939 -10.22484 -10.22453
 Alpha  occ. eigenvalues --  -10.22386  -3.15494  -3.13464  -1.88295  -1.87898
 Alpha  occ. eigenvalues --   -1.87693  -1.86305  -1.85857  -1.85692  -1.12694
 Alpha  occ. eigenvalues --   -1.11844  -1.04945  -1.03653  -1.03591  -1.03165
 Alpha  occ. eigenvalues --   -1.02572  -1.02536  -0.99289  -0.99232  -0.98370
 Alpha  occ. eigenvalues --   -0.98293  -0.97937  -0.97212  -0.97103  -0.96241
 Alpha  occ. eigenvalues --   -0.86448  -0.86323  -0.83668  -0.83268  -0.83069
 Alpha  occ. eigenvalues --   -0.83028  -0.82620  -0.82578  -0.81948  -0.81893
 Alpha  occ. eigenvalues --   -0.81421  -0.81071  -0.80497  -0.79629  -0.78929
 Alpha  occ. eigenvalues --   -0.78867  -0.78352  -0.78131  -0.77232  -0.77099
 Alpha  occ. eigenvalues --   -0.76852  -0.76524  -0.75559  -0.75448  -0.74977
 Alpha  occ. eigenvalues --   -0.74620  -0.72605  -0.72257  -0.71666  -0.71655
 Alpha  occ. eigenvalues --   -0.71226  -0.70712  -0.70577  -0.70275  -0.69631
 Alpha  occ. eigenvalues --   -0.69319  -0.67925  -0.67321  -0.66201  -0.65890
 Alpha  occ. eigenvalues --   -0.64005  -0.63308  -0.63246  -0.62946  -0.62554
 Alpha  occ. eigenvalues --   -0.62171  -0.61473  -0.61156  -0.60027  -0.59856
 Alpha  occ. eigenvalues --   -0.59639  -0.59432  -0.59355  -0.59148  -0.58897
 Alpha  occ. eigenvalues --   -0.58588  -0.57025  -0.56902  -0.54947  -0.54866
 Alpha  occ. eigenvalues --   -0.54594  -0.53871  -0.53612  -0.53585  -0.53164
 Alpha  occ. eigenvalues --   -0.53099  -0.52836  -0.52418  -0.52212  -0.51854
 Alpha  occ. eigenvalues --   -0.51135  -0.50765  -0.50612  -0.50379  -0.49667
 Alpha  occ. eigenvalues --   -0.49616  -0.49499  -0.49168  -0.49128  -0.48926
 Alpha  occ. eigenvalues --   -0.48477  -0.48121  -0.48101  -0.47802  -0.47709
 Alpha  occ. eigenvalues --   -0.47312  -0.47223  -0.46945  -0.46922  -0.46800
 Alpha  occ. eigenvalues --   -0.46682  -0.46646  -0.46431  -0.46388  -0.46099
 Alpha  occ. eigenvalues --   -0.45878  -0.45233  -0.44932  -0.44825  -0.44794
 Alpha  occ. eigenvalues --   -0.44520  -0.44380  -0.44299  -0.44292  -0.44079
 Alpha  occ. eigenvalues --   -0.44054  -0.43904  -0.43826  -0.43749  -0.43550
 Alpha  occ. eigenvalues --   -0.43541  -0.43140  -0.43082  -0.42938  -0.42826
 Alpha  occ. eigenvalues --   -0.42466  -0.42448  -0.42009  -0.41978  -0.41654
 Alpha  occ. eigenvalues --   -0.41636  -0.41628  -0.41348  -0.41245  -0.41123
 Alpha  occ. eigenvalues --   -0.41053  -0.40806  -0.40549  -0.40306  -0.40239
 Alpha  occ. eigenvalues --   -0.40212  -0.40106  -0.39944  -0.39880  -0.39832
 Alpha  occ. eigenvalues --   -0.39705  -0.39584  -0.39319  -0.39217  -0.39157
 Alpha  occ. eigenvalues --   -0.38780  -0.38676  -0.38591  -0.38411  -0.38368
 Alpha  occ. eigenvalues --   -0.38289  -0.38072  -0.38004  -0.37767  -0.37530
 Alpha  occ. eigenvalues --   -0.37387  -0.37275  -0.36898  -0.36872  -0.36359
 Alpha  occ. eigenvalues --   -0.36343  -0.36324  -0.36234  -0.36139  -0.36110
 Alpha  occ. eigenvalues --   -0.35946  -0.35864  -0.35736  -0.35399  -0.35027
 Alpha  occ. eigenvalues --   -0.34980  -0.34750  -0.34137  -0.33817  -0.33671
 Alpha  occ. eigenvalues --   -0.33124  -0.32949  -0.32744  -0.32426  -0.32209
 Alpha  occ. eigenvalues --   -0.32118  -0.31793  -0.31627  -0.31434  -0.31348
 Alpha  occ. eigenvalues --   -0.31169  -0.30732  -0.29445  -0.29297  -0.29148
 Alpha  occ. eigenvalues --   -0.28873  -0.28852  -0.28470  -0.27110  -0.27036
 Alpha  occ. eigenvalues --   -0.26039  -0.25866  -0.25551  -0.25501  -0.25433
 Alpha  occ. eigenvalues --   -0.25388  -0.25274  -0.24505  -0.21246  -0.21097
 Alpha  occ. eigenvalues --   -0.19097  -0.19006
 Alpha virt. eigenvalues --   -0.11501  -0.11288  -0.05949  -0.05038  -0.03987
 Alpha virt. eigenvalues --   -0.03716  -0.02087  -0.01910  -0.01685   0.00248
 Alpha virt. eigenvalues --    0.00394   0.00941   0.01238   0.01767   0.02281

 Mulliken charges:
               1
     1  Mg  11.994684
     2  C    5.988582
     3  C    6.023957
     4  C    6.012862
     5  C    5.981810
     6  N    6.993628
     7  C    6.027245
     8  C    5.998976
     9  C    6.013535
    10  C    5.959576
    11  C    6.000864
    12  C    5.997368
    13  C    5.992904
    14  H    1.012887
    15  N    7.007791
    16  C    5.959061
    17  C    5.981911
    18  C    5.989810
    19  C    5.965244
    20  C    6.002978
    21  C    5.988508
    22  O    7.982753
    23  C    6.003620
    24  N    6.996293
    25  C    5.973658
    26  C    6.012126
    27  C    5.985807
    28  C    6.036963
    29  C    6.002619
    30  C    5.999338
    31  C    5.998418
    32  N    6.996749
    33  C    6.039777
    34  C    6.026361
    35  C    6.001526
    36  C    6.029579
    37  C    6.004111
    38  C    6.016154
    39  O    8.031955
    40  C    5.999913
    41  C    6.006474
    42  O    8.002322
    43  O    8.001425
    44  C    5.998330
    45  H    0.993541
    46  H    0.990464
    47  H    1.008821
    48  H    0.994442
    49  H    0.994629
    50  H    0.995915
    51  H    0.989924
    52  H    1.003997
    53  H    0.995103
    54  H    1.007275
    55  H    0.999935
    56  H    0.996151
    57  H    0.982241
    58  H    0.982027
    59  H    0.984529
    60  H    0.989457
    61  H    0.988417
    62  H    0.993638
    63  H    0.998438
    64  H    1.004309
    65  H    1.003299
    66  H    0.988455
    67  H    0.998624
    68  H    0.996509
    69  H    1.012500
    70  H    0.997575
    71  H    1.004806
    72  H    1.004389
    73  H    1.015493
    74  H    1.013957
    75  H    1.009789
    76  H    1.009330
    77  H    1.001769
    78  H    1.005604
    79  H    1.004191
    80  Mg  12.000023
    81  C    5.999805
    82  C    6.000102
    83  C    6.000264
    84  C    5.999953
    85  N    6.999933
    86  C    6.000282
    87  C    5.999940
    88  C    6.000124
    89  C    5.999735
    90  C    6.000046
    91  C    5.999990
    92  C    5.999997
    93  H    1.000027
    94  N    7.000039
    95  C    5.999626
    96  C    5.999820
    97  C    5.999823
    98  C    5.999673
    99  C    6.000057
   100  C    5.999864
   101  O    7.999708
   102  C    6.000067
   103  N    7.000039
   104  C    5.999608
   105  C    6.000136
   106  C    5.999910
   107  C    6.000243
   108  C    5.999998
   109  C    5.999954
   110  C    5.999965
   111  N    7.000018
   112  C    6.000298
   113  C    6.000303
   114  C    6.000000
   115  C    6.000343
   116  C    5.999910
   117  C    6.000197
   118  O    8.000306
   119  C    5.999982
   120  C    6.000047
   121  O    8.000069
   122  O    8.000011
   123  C    5.999973
   124  H    0.999888
   125  H    0.999946
   126  H    1.000124
   127  H    0.999980
   128  H    0.999912
   129  H    0.999869
   130  H    1.000033
   131  H    0.999962
   132  H    1.000062
   133  H    0.999943
   134  H    0.999955
   135  H    1.000037
   136  H    0.999840
   137  H    0.999822
   138  H    0.999842
   139  H    0.999857
   140  H    0.999882
   141  H    0.999942
   142  H    0.999968
   143  H    1.000032
   144  H    1.000032
   145  H    0.999913
   146  H    0.999995
   147  H    1.000105
   148  H    0.999994
   149  H    1.000012
   150  H    0.999992
   151  H    1.000091
   152  H    1.000186
   153  H    1.000223
   154  H    1.000141
   155  H    1.000089
   156  H    1.000061
   157  H    1.000042
   158  H    1.000021
 Sum of Mulliken charges = 624.00000

 Dipole moment (field-independent basis, Debye):
    X=              2.9336    Y=              8.0909    Z=             -4.7261  Tot=              9.8186
 Quadrupole moment (field-independent basis, Debye-Ang):
   XX=           -167.5745   YY=             -7.3156   ZZ=              1.6321
   XY=           -246.5507   XZ=            141.6764   YZ=              1.0006

 Normal termination of Gaussian 16 at Thu Oct 14 00:18:13 2021.
