 Gaussian 16, Revision A.03,
 Gaussian 16:  ES64L-G16RevA.03 25-Dec-2016

 --------------------------------------------------------
 #p PBE1PBE/Def2SVP td=(nstates=5) density=(transition=1)
 --------------------------------------------------------

 --------------------------------
 TDDFT excited states in gaussian
 --------------------------------
 Symbolic Z-matrix:
 Charge =  0 Multiplicity = 1

                         Standard orientation:
 ---------------------------------------------------------------------
 Center     Atomic      Atomic             Coordinates (Angstroms)
 Number     Number       Type             X           Y           Z
 ---------------------------------------------------------------------
      1         12           0       27.781763   -0.570325    0.289238
      2          6           0       26.037170    2.279123    1.307093
      3          6           0       28.405548    1.107330   -2.725856
      4          6           0       28.995816   -3.388522   -1.045986
      5          6           0       26.218768   -2.345187    2.789281
      6          7           0       27.367901    1.553247   -0.609972
      7          6           0       26.579800    2.452476    0.037109
      8          6           0       26.388908    3.753519   -0.839051
      9          6           0       26.960471    3.237426   -2.254707
     10          6           0       27.578477    1.877465   -1.888928
     11          6           0       25.725776    2.971143   -3.187241
     12          6           0       27.314773    4.869148   -0.228977
     13          6           0       27.409234    6.217179   -0.994289
     14          1           0       28.622840    7.041240   -1.306439
     15          7           0       28.748117   -0.983833   -1.519237
     16          6           0       28.962010   -0.173307   -2.646619
     17          6           0       29.629109   -0.944576   -3.609450
     18          6           0       29.975266   -2.179816   -3.078224
     19          6           0       29.240942   -2.225081   -1.824552
     20          6           0       30.039574   -0.332540   -4.908652
     21          6           0       30.782251   -3.370118   -3.693969
     22          8           0       31.037831   -4.419027   -3.112240
     23          6           0       31.521920   -3.246162   -5.028833
     24          7           0       27.515944   -2.574802    0.752215
     25          6           0       28.246840   -3.526935    0.130544
     26          6           0       28.202386   -4.897691    0.833697
     27          6           0       27.200101   -4.598699    1.982955
     28          6           0       27.037696   -3.089807    1.942122
     29          6           0       27.920902   -6.107822   -0.117601
     30          6           0       27.549689   -5.150093    3.392402
     31          6           0       28.604799   -4.441828    4.130975
     32          7           0       26.483353   -0.157958    1.823860
     33          6           0       25.947635   -0.936003    2.735586
     34          6           0       25.161517   -0.175763    3.712667
     35          6           0       25.202232    1.135128    3.138914
     36          6           0       25.970733    1.092232    1.992090
     37          6           0       24.821906   -0.519755    5.087224
     38          6           0       24.750711    2.497838    3.359758
     39          8           0       24.160467    2.992338    4.293323
     40          6           0       25.233202    3.255455    2.116842
     41          6           0       24.073590    3.931141    1.377475
     42          8           0       23.307086    3.357341    0.648250
     43          8           0       24.012940    5.255298    1.740757
     44          6           0       22.917534    5.981167    1.057543
     45          1           0       28.703840    1.683332   -3.603346
     46          1           0       29.555603   -4.280052   -1.337168
     47          1           0       25.973983   -3.092465    3.546097
     48          1           0       25.340592    4.030233   -0.954005
     49          1           0       27.659347    3.920525   -2.739067
     50          1           0       25.462116    1.928304   -3.360574
     51          1           0       25.953758    3.204962   -4.227461
     52          1           0       24.815402    3.480756   -2.872272
     53          1           0       28.307188    4.434757   -0.111567
     54          1           0       26.977187    5.034743    0.794472
     55          1           0       26.659606    6.842309   -0.508251
     56          1           0       27.069941    5.904547   -1.981059
     57          1           0       29.727690    0.700612   -5.064034
     58          1           0       29.774130   -1.030388   -5.703966
     59          1           0       31.127562   -0.302861   -4.843403
     60          1           0       30.861100   -3.142037   -5.889469
     61          1           0       32.272129   -4.016844   -5.206572
     62          1           0       32.147539   -2.357106   -4.947384
     63          1           0       29.240190   -4.914520    1.165362
     64          1           0       26.260614   -5.022694    1.628415
     65          1           0       28.296948   -5.911120   -1.121046
     66          1           0       26.844606   -6.269427   -0.182872
     67          1           0       28.414644   -7.023957    0.207125
     68          1           0       27.872394   -6.162184    3.150235
     69          1           0       26.638001   -5.260501    3.979861
     70          1           0       28.175136   -3.577869    4.637743
     71          1           0       29.432499   -4.175085    3.474102
     72          1           0       29.005464   -5.044771    4.946396
     73          1           0       25.585160   -1.237560    5.388653
     74          1           0       23.897496   -1.057014    5.299756
     75          1           0       24.839528    0.411995    5.651593
     76          1           0       25.952348    4.006077    2.446363
     77          1           0       22.520175    6.727633    1.745032
     78          1           0       22.010069    5.408996    0.863439
     79          1           0       23.289115    6.516803    0.184579
     80         12           0      -27.535987   -0.707804   -0.055195
     81          6           0      -25.618822    2.225649   -1.005622
     82          6           0      -29.271271    1.369456    1.954450
     83          6           0      -29.170224   -3.311761    0.811675
     84          6           0      -25.331860   -2.682352   -1.999379
     85          7           0      -27.435822    1.657635    0.390016
     86          6           0      -26.659928    2.597412   -0.177136
     87          6           0      -27.117908    4.001786    0.260541
     88          6           0      -27.964633    3.551990    1.540882
     89          6           0      -28.292671    2.145966    1.259725
     90          6           0      -27.454688    3.944316    2.917473
     91          6           0      -27.902088    4.648340   -0.894424
     92          6           0      -27.869161    6.204532   -0.851773
     93          1           0      -26.881600    7.032755    0.093575
     94          7           0      -29.089536   -0.967619    1.204037
     95          6           0      -29.641337   -0.011549    2.035052
     96          6           0      -30.656118   -0.663465    2.857278
     97          6           0      -30.692695   -2.027920    2.477628
     98          6           0      -29.610753   -2.136597    1.458370
     99          6           0      -31.455114    0.017969    3.877181
    100          6           0      -31.671106   -3.218500    2.968844
    101          8           0      -31.686498   -4.285844    2.419352
    102          6           0      -32.828667   -2.955442    3.948690
    103          7           0      -27.095116   -2.746723   -0.332380
    104          6           0      -28.043653   -3.613631    0.012931
    105          6           0      -27.807652   -5.018872   -0.471707
    106          6           0      -26.851254   -4.711975   -1.649926
    107          6           0      -26.286319   -3.325069   -1.186781
    108          6           0      -27.125873   -5.981943    0.608012
    109          6           0      -27.501425   -4.711442   -3.096835
    110          6           0      -28.730543   -5.618268   -3.395935
    111          7           0      -25.780442   -0.380630   -1.161500
    112          6           0      -25.032882   -1.207607   -1.933521
    113          6           0      -24.088718   -0.507910   -2.680573
    114          6           0      -24.264242    0.792108   -2.300819
    115          6           0      -25.304458    0.869263   -1.395912
    116          6           0      -23.148105   -1.103224   -3.724704
    117          6           0      -23.739672    2.137775   -2.577843
    118          8           0      -22.749480    2.541538   -3.169058
    119          6           0      -24.699243    3.117402   -1.771203
    120          6           0      -23.857729    3.991536   -0.972877
    121          8           0      -23.294464    3.713068    0.090468
    122          8           0      -23.586708    5.074009   -1.731576
    123          6           0      -22.466581    5.844485   -1.221904
    124          1           0      -29.701781    2.006493    2.729985
    125          1           0      -29.724602   -4.184646    1.161073
    126          1           0      -24.740165   -3.320510   -2.658728
    127          1           0      -26.282822    4.601723    0.622433
    128          1           0      -28.904551    4.098328    1.475248
    129          1           0      -28.106439    4.668497    3.405293
    130          1           0      -26.453057    4.367054    2.841496
    131          1           0      -27.313139    3.102885    3.595787
    132          1           0      -28.953253    4.397308   -0.750782
    133          1           0      -27.628556    4.275206   -1.881193
    134          1           0      -28.869267    6.626667   -0.748220
    135          1           0      -27.737015    6.449780   -1.905479
    136          1           0      -31.527824    1.088325    3.685604
    137          1           0      -30.941686   -0.181324    4.817962
    138          1           0      -32.484229   -0.335345    3.945548
    139          1           0      -33.607363   -2.307323    3.546672
    140          1           0      -32.338033   -2.637095    4.868752
    141          1           0      -33.280697   -3.901241    4.248557
    142          1           0      -28.813767   -5.361408   -0.712396
    143          1           0      -26.012070   -5.404494   -1.710704
    144          1           0      -27.739382   -6.877974    0.516832
    145          1           0      -27.174669   -5.615117    1.633874
    146          1           0      -26.093825   -6.265624    0.405409
    147          1           0      -26.718688   -4.907030   -3.828377
    148          1           0      -27.909021   -3.700878   -3.129164
    149          1           0      -29.654533   -5.104775   -3.131210
    150          1           0      -28.504546   -6.533027   -2.846879
    151          1           0      -28.773063   -5.923168   -4.440986
    152          1           0      -23.689991   -1.962680   -4.120125
    153          1           0      -22.227425   -1.499879   -3.297782
    154          1           0      -22.960690   -0.345787   -4.485587
    155          1           0      -25.255452    3.684794   -2.518453
    156          1           0      -22.221012    6.709701   -1.837033
    157          1           0      -21.584559    5.281166   -0.916811
    158          1           0      -22.736020    6.328704   -0.282637
 ---------------------------------------------------------------------

 SCF Done:  E(RPBE1PBE) =  -4067.36638994     A.U. after   16 cycles

 Excitation energies and oscillator strengths:

 Excited State   1:      Singlet-A      1.8847 eV  657.86 nm  f=0.3801  <S**2>=0.000
     309 -> 315       -0.17969
     312 -> 313        0.69128
     312 <- 313       -0.10354
 This state for optimization and/or second-order correction.
 Total Energy, E(TD-HF/TD-DFT) =  -4067.29713002
 Copying the excited state density for this state as the 1-particle RhoCI density.

 Excited State   2:      Singlet-A      1.9474 eV  636.65 nm  f=0.3558  <S**2>=0.000
     310 -> 316       -0.18524
     311 -> 314        0.68731

 Excited State   3:      Singlet-A      2.0803 eV  595.98 nm  f=0.0000  <S**2>=0.000
     312 -> 314        0.70711

 Excited State   4:      Singlet-A      2.1082 eV  588.10 nm  f=0.0000  <S**2>=0.000
     311 -> 313        0.70711

 Excited State   5:      Singlet-A      2.2406 eV  553.36 nm  f=0.1494  <S**2>=0.000
     310 -> 314        0.66536
     311 -> 316        0.23005

 The electronic state is 1-A.
 Alpha  occ. eigenvalues --  -46.92746 -46.92108 -19.26439 -19.25557 -19.20617
 Alpha  occ. eigenvalues --  -19.20494 -19.19507 -19.19303 -19.19097 -19.19021
 Alpha  occ. eigenvalues --  -14.41547 -14.40767 -14.40732 -14.40729 -14.39426
 Alpha  occ. eigenvalues --  -14.38825 -14.38761 -14.38463 -10.36786 -10.35213
 Alpha  occ. eigenvalues --  -10.33934 -10.33187 -10.32173 -10.31690 -10.29042
 Alpha  occ. eigenvalues --  -10.28665 -10.28577 -10.28477 -10.28225 -10.28212
 Alpha  occ. eigenvalues --  -10.28108 -10.28026 -10.27821 -10.27796 -10.27775
 Alpha  occ. eigenvalues --  -10.27530 -10.27488 -10.27482 -10.27132 -10.26728
 Alpha  occ. eigenvalues --  -10.26656 -10.26506 -10.26436 -10.26401 -10.26183
 Alpha  occ. eigenvalues --  -10.25915 -10.25792 -10.25729 -10.25716 -10.25603
 Alpha  occ. eigenvalues --  -10.25584 -10.25464 -10.25377 -10.25276 -10.25245
 Alpha  occ. eigenvalues --  -10.25223 -10.25182 -10.25165 -10.25164 -10.25113
 Alpha  occ. eigenvalues --  -10.25072 -10.24953 -10.24810 -10.24648 -10.24544
 Alpha  occ. eigenvalues --  -10.24429 -10.24420 -10.24259 -10.24231 -10.23908
 Alpha  occ. eigenvalues --  -10.23836 -10.23834 -10.23574 -10.23510 -10.23484
 Alpha  occ. eigenvalues --  -10.23453 -10.23446 -10.23264 -10.23103 -10.23065
 Alpha  occ. eigenvalues --  -10.23012 -10.22896 -10.22868 -10.22573 -10.22137
 Alpha  occ. eigenvalues --  -10.21728  -3.14828  -3.14248  -1.87670  -1.87220
 Alpha  occ. eigenvalues --   -1.87075  -1.87036  -1.86637  -1.86458  -1.11583
 Alpha  occ. eigenvalues --   -1.11286  -1.07151  -1.05098  -1.04996  -1.04393
 Alpha  occ. eigenvalues --   -1.03595  -1.01451  -1.00433  -0.99761  -0.99753
 Alpha  occ. eigenvalues --   -0.99150  -0.98365  -0.98338  -0.97967  -0.97004
 Alpha  occ. eigenvalues --   -0.88239  -0.86791  -0.83723  -0.83211  -0.82952
 Alpha  occ. eigenvalues --   -0.82781  -0.82424  -0.82402  -0.81715  -0.81713
 Alpha  occ. eigenvalues --   -0.81535  -0.81238  -0.80619  -0.80164  -0.78580
 Alpha  occ. eigenvalues --   -0.78289  -0.77980  -0.77457  -0.76663  -0.76615
 Alpha  occ. eigenvalues --   -0.75890  -0.75704  -0.75146  -0.75070  -0.74679
 Alpha  occ. eigenvalues --   -0.74447  -0.72724  -0.72677  -0.71913  -0.71138
 Alpha  occ. eigenvalues --   -0.70970  -0.70930  -0.70446  -0.70100  -0.69580
 Alpha  occ. eigenvalues --   -0.69157  -0.67300  -0.66974  -0.66192  -0.66051
 Alpha  occ. eigenvalues --   -0.64378  -0.63960  -0.63607  -0.63149  -0.62778
 Alpha  occ. eigenvalues --   -0.62182  -0.61341  -0.61061  -0.59909  -0.59828
 Alpha  occ. eigenvalues --   -0.59526  -0.59199  -0.59123  -0.58940  -0.58578
 Alpha  occ. eigenvalues --   -0.58244  -0.57091  -0.56431  -0.55174  -0.54525
 Alpha  occ. eigenvalues --   -0.54025  -0.53991  -0.53907  -0.53828  -0.53036
 Alpha  occ. eigenvalues --   -0.52955  -0.52879  -0.52501  -0.52119  -0.51922
 Alpha  occ. eigenvalues --   -0.51048  -0.50992  -0.50177  -0.50120  -0.50006
 Alpha  occ. eigenvalues --   -0.49799  -0.49774  -0.49201  -0.49130  -0.48539
 Alpha  occ. eigenvalues --   -0.48539  -0.48205  -0.48023  -0.47797  -0.47559
 Alpha  occ. eigenvalues --   -0.47549  -0.47285  -0.47228  -0.46816  -0.46813
 Alpha  occ. eigenvalues --   -0.46722  -0.46065  -0.45922  -0.45735  -0.45699
 Alpha  occ. eigenvalues --   -0.45599  -0.45358  -0.45237  -0.44987  -0.44737
 Alpha  occ. eigenvalues --   -0.44706  -0.44521  -0.44267  -0.44156  -0.44033
 Alpha  occ. eigenvalues --   -0.43802  -0.43551  -0.43519  -0.43441  -0.43431
 Alpha  occ. eigenvalues --   -0.43329  -0.43292  -0.42936  -0.42866  -0.42640
 Alpha  occ. eigenvalues --   -0.42527  -0.42214  -0.42151  -0.42074  -0.41767
 Alpha  occ. eigenvalues --   -0.41719  -0.41443  -0.41321  -0.40822  -0.40771
 Alpha  occ. eigenvalues --   -0.40717  -0.40557  -0.40552  -0.40264  -0.40096
 Alpha  occ. eigenvalues --   -0.39829  -0.39824  -0.39727  -0.39442  -0.39423
 Alpha  occ. eigenvalues --   -0.39178  -0.39110  -0.39042  -0.38954  -0.38833
 Alpha  occ. eigenvalues --   -0.38815  -0.38659  -0.38633  -0.38427  -0.38403
 Alpha  occ. eigenvalues --   -0.38163  -0.38059  -0.37996  -0.37959  -0.37817
 Alpha  occ. eigenvalues --   -0.37713  -0.37550  -0.37387  -0.37370  -0.37245
 Alpha  occ. eigenvalues --   -0.37144  -0.37143  -0.37049  -0.36771  -0.36625
 Alpha  occ. eigenvalues --   -0.36280  -0.36157  -0.35582  -0.35338  -0.35124
 Alpha  occ. eigenvalues --   -0.34625  -0.34543  -0.34206  -0.33841  -0.33599
 Alpha  occ. eigenvalues --   -0.33387  -0.33164  -0.32980  -0.32802  -0.32675
 Alpha  occ. eigenvalues --   -0.32422  -0.32242  -0.31791  -0.31661  -0.31397
 Alpha  occ. eigenvalues --   -0.30845  -0.30688  -0.29793  -0.29487  -0.29408
 Alpha  occ. eigenvalues --   -0.28716  -0.28656  -0.27973  -0.26943  -0.26931
 Alpha  occ. eigenvalues --   -0.26563  -0.26147  -0.25873  -0.25731  -0.25521
 Alpha  occ. eigenvalues --   -0.25516  -0.25279  -0.24971  -0.20705  -0.20333
 Alpha  occ. eigenvalues --   -0.18870  -0.18643
 Alpha virt. eigenvalues --   -0.10880  -0.10757  -0.04833  -0.04630  -0.03769
 Alpha virt. eigenvalues --   -0.03608  -0.02093  -0.01815  -0.00557  -0.00433
 Alpha virt. eigenvalues --    0.00131   0.00566   0.01115   0.01356   0.02077

 Mulliken charges:
               1
     1  Mg  11.998498
     2  C    6.007074
     3  C    5.986487
     4  C    5.990544
     5  C    6.020693
     6  N    6.998179
     7  C    5.979627
     8  C    6.009205
     9  C    5.989273
    10  C    6.033948
    11  C    5.998168
    12  C    6.003718
    13  C    6.000053
    14  H    0.993034
    15  N    6.996414
    16  C    6.038145
    17  C    6.013334
    18  C    6.022033
    19  C    6.021891
    20  C    5.997447
    21  C    6.012067
    22  O    8.027379
    23  C    5.995719
    24  N    7.004633
    25  C    6.029398
    26  C    5.993952
    27  C    6.009759
    28  C    5.964214
    29  C    5.997382
    30  C    6.002760
    31  C    6.004642
    32  N    6.999004
    33  C    5.967060
    34  C    5.960200
    35  C    6.002852
    36  C    5.971514
    37  C    6.004888
    38  C    5.983051
    39  O    7.975777
    40  C    6.000958
    41  C    5.996311
    42  O    7.993663
    43  O    7.999198
    44  C    6.001784
    45  H    1.008671
    46  H    1.007506
    47  H    0.992629
    48  H    0.999262
    49  H    1.001419
    50  H    0.998950
    51  H    0.999876
    52  H    1.012956
    53  H    0.993126
    54  H    1.007424
    55  H    1.002352
    56  H    0.994406
    57  H    1.017248
    58  H    1.016035
    59  H    1.016298
    60  H    1.008753
    61  H    1.013598
    62  H    1.006275
    63  H    0.998292
    64  H    0.994813
    65  H    0.992204
    66  H    1.007579
    67  H    1.005916
    68  H    0.991601
    69  H    1.003275
    70  H    1.008504
    71  H    0.990643
    72  H    0.995774
    73  H    0.979285
    74  H    0.974865
    75  H    0.985219
    76  H    0.991210
    77  H    0.996970
    78  H    0.997717
    79  H    0.993418
    80  Mg  11.999992
    81  C    6.000083
    82  C    6.000005
    83  C    5.999926
    84  C    5.999976
    85  N    7.000072
    86  C    5.999926
    87  C    5.999994
    88  C    6.000006
    89  C    5.999961
    90  C    5.999998
    91  C    6.000001
    92  C    6.000002
    93  H    1.000028
    94  N    6.999987
    95  C    5.999981
    96  C    6.000002
    97  C    5.999941
    98  C    6.000035
    99  C    6.000007
   100  C    5.999988
   101  O    7.999963
   102  C    6.000008
   103  N    6.999973
   104  C    6.000046
   105  C    6.000018
   106  C    6.000001
   107  C    6.000040
   108  C    5.999999
   109  C    5.999990
   110  C    6.000012
   111  N    7.000038
   112  C    6.000027
   113  C    6.000008
   114  C    5.999964
   115  C    6.000007
   116  C    6.000001
   117  C    6.000063
   118  O    8.000027
   119  C    5.999980
   120  C    6.000006
   121  O    8.000029
   122  O    7.999986
   123  C    5.999980
   124  H    0.999993
   125  H    0.999992
   126  H    1.000008
   127  H    1.000018
   128  H    0.999990
   129  H    0.999999
   130  H    1.000007
   131  H    1.000014
   132  H    0.999996
   133  H    0.999984
   134  H    0.999991
   135  H    0.999987
   136  H    0.999983
   137  H    0.999990
   138  H    0.999971
   139  H    0.999980
   140  H    1.000004
   141  H    0.999975
   142  H    0.999985
   143  H    1.000003
   144  H    0.999982
   145  H    1.000015
   146  H    0.999996
   147  H    0.999992
   148  H    0.999998
   149  H    1.000001
   150  H    1.000000
   151  H    0.999976
   152  H    0.999999
   153  H    1.000041
   154  H    1.000008
   155  H    0.999993
   156  H    1.000009
   157  H    1.000026
   158  H    1.000018
 Sum of Mulliken charges = 624.00000

 Dipole moment (field-independent basis, Debye):
    X=              5.5314    Y=             -2.7656    Z=             -8.2544  Tot=             10.3140
 Quadrupole moment (field-independent basis, Debye-Ang):
   XX=            303.2664   YY=              0.6601   ZZ=             -0.9748
   XY=            -79.9097   XZ=           -226.6724   YZ=              5.4884

 Normal termination of Gaussian 16 at Thu Oct 14 02:12:46 2021.
