 Gaussian 16, Revision A.03,
 Gaussian 16:  ES64L-G16RevA.03 25-Dec-2016

 --------------------------------------------------------
 #p PBE1PBE/Def2SVP td=(nstates=5) density=(transition=1)
 --------------------------------------------------------

 --------------------------------
 TDDFT excited states in gaussian
 --------------------------------
 Symbolic Z-matrix:
 Charge =  0 Multiplicity = 1

                         Standard orientation:
 ---------------------------------------------------------------------
 Center     Atomic      Atomic             Coordinates (Angstroms)
 Number     Number       Type             X           Y           Z
 ---------------------------------------------------------------------
      1         12           0       16.846617   -0.627944    0.169236
      2          6           0       15.624239    2.247411   -1.465478
      3          6           0       18.520873    1.426705    2.357088
      4          6           0       18.116341   -3.315192    1.733533
      5          6           0       15.607502   -2.647819   -2.405232
      6          7           0       16.881785    1.543996    0.419675
      7          6           0       16.363311    2.554918   -0.271709
      8          6           0       16.657723    3.974399    0.256460
      9          6           0       17.817920    3.560159    1.285324
     10          6           0       17.770591    2.052287    1.326957
     11          6           0       19.184793    4.068693    0.896243
     12          6           0       15.393589    4.693327    0.987675
     13          6           0       15.456910    6.222453    0.930990
     14          1           0       14.268811    6.879059    0.181884
     15          7           0       18.029600   -0.943222    1.945491
     16          6           0       18.667143    0.090237    2.675622
     17          6           0       19.178391   -0.511455    3.886540
     18          6           0       19.055782   -1.891156    3.748744
     19          6           0       18.359201   -2.130263    2.445902
     20          6           0       19.926690    0.254855    4.960904
     21          6           0       19.427882   -3.028644    4.672012
     22          8           0       19.149882   -4.152782    4.371421
     23          6           0       20.073397   -2.794948    6.001386
     24          7           0       17.043414   -2.656682   -0.350933
     25          6           0       17.547409   -3.597566    0.499036
     26          6           0       17.305669   -4.974006   -0.180471
     27          6           0       16.103415   -4.790483   -1.089223
     28          6           0       16.229929   -3.271658   -1.353681
     29          6           0       18.525229   -5.342441   -1.024137
     30          6           0       14.807880   -5.206781   -0.497368
     31          6           0       14.465858   -4.765233    0.904111
     32          7           0       15.794094   -0.332850   -1.576571
     33          6           0       15.357947   -1.221653   -2.541085
     34          6           0       14.635104   -0.474309   -3.581801
     35          6           0       14.703743    0.868794   -3.172606
     36          6           0       15.392738    0.898646   -1.990923
     37          6           0       14.034505   -1.033481   -4.798581
     38          6           0       14.222609    2.201821   -3.418467
     39          8           0       13.461446    2.654071   -4.323491
     40          6           0       14.806767    3.138722   -2.258284
     41          6           0       15.663766    4.173899   -2.939669
     42          8           0       16.478843    3.898206   -3.769333
     43          8           0       15.486130    5.509971   -2.488800
     44          6           0       16.545330    6.471883   -2.920824
     45          1           0       19.101305    2.060951    3.029490
     46          1           0       18.594253   -4.203320    2.153067
     47          1           0       15.048318   -3.226775   -3.143546
     48          1           0       16.935885    4.629818   -0.569802
     49          1           0       17.503322    4.012692    2.226530
     50          1           0       19.344281    4.978399    1.474896
     51          1           0       19.303859    4.182186   -0.181483
     52          1           0       19.867371    3.348670    1.347517
     53          1           0       15.363108    4.406973    2.039404
     54          1           0       14.453271    4.335434    0.567885
     55          1           0       16.427482    6.380153    0.460197
     56          1           0       15.566012    6.666007    1.920481
     57          1           0       19.643971    1.293406    4.793127
     58          1           0       20.966636    0.139557    4.656750
     59          1           0       19.644072   -0.054777    5.967268
     60          1           0       19.223806   -2.372641    6.538273
     61          1           0       20.882569   -2.065210    5.991779
     62          1           0       20.413211   -3.738799    6.429113
     63          1           0       17.173286   -5.812744    0.502094
     64          1           0       16.130565   -5.357836   -2.018940
     65          1           0       18.493829   -5.213838   -2.106118
     66          1           0       18.754876   -6.388345   -0.820817
     67          1           0       19.375361   -4.770154   -0.651094
     68          1           0       14.665278   -6.286430   -0.549168
     69          1           0       14.065550   -4.770818   -1.165676
     70          1           0       13.640085   -4.061378    0.796344
     71          1           0       15.174539   -4.279069    1.575227
     72          1           0       14.061286   -5.624626    1.438539
     73          1           0       14.841504   -1.345679   -5.461358
     74          1           0       13.417872   -0.219232   -5.179020
     75          1           0       13.459815   -1.935131   -4.582553
     76          1           0       13.923237    3.510871   -1.739322
     77          1           0       16.388118    6.766234   -3.958438
     78          1           0       17.555691    6.073600   -2.817288
     79          1           0       16.545773    7.438599   -2.418089
     80         12           0      -16.223764   -0.723617    0.194782
     81          6           0      -18.566012    1.760733    1.101290
     82          6           0      -14.056915    1.602262   -0.682429
     83          6           0      -14.477052   -3.158078   -1.446932
     84          6           0      -19.077694   -3.075171    0.216340
     85          7           0      -16.370935    1.448539    0.173209
     86          6           0      -17.284855    2.222361    0.793883
     87          6           0      -16.732878    3.656207    0.916269
     88          6           0      -15.334859    3.597979    0.389493
     89          6           0      -15.221058    2.130466   -0.123453
     90          6           0      -15.002440    4.779178   -0.611281
     91          6           0      -16.850364    4.386255    2.295975
     92          6           0      -15.736179    5.385156    2.829639
     93          1           0      -16.183598    6.714758    3.454454
     94          7           0      -14.378290   -0.783909   -0.694961
     95          6           0      -13.614604    0.329202   -0.964827
     96          6           0      -12.381352   -0.119473   -1.546097
     97          6           0      -12.456663   -1.536944   -1.838648
     98          6           0      -13.821329   -1.870740   -1.374555
     99          6           0      -11.365400    0.894345   -1.886331
    100          6           0      -11.396652   -2.510141   -2.411102
    101          8           0      -11.677150   -3.644659   -2.617720
    102          6           0       -9.958744   -2.109302   -2.473575
    103          7           0      -16.765851   -2.811616   -0.555620
    104          6           0      -15.768651   -3.568461   -1.066101
    105          6           0      -16.235921   -5.027925   -1.369586
    106          6           0      -17.691195   -5.035900   -0.809567
    107          6           0      -17.902887   -3.568802   -0.360550
    108          6           0      -16.179410   -5.442894   -2.815768
    109          6           0      -18.030831   -6.031307    0.354394
    110          6           0      -17.600802   -5.701238    1.743714
    111          7           0      -18.378259   -0.789218    0.570146
    112          6           0      -19.312767   -1.784659    0.586567
    113          6           0      -20.556921   -1.262921    1.097381
    114          6           0      -20.352820    0.123961    1.322329
    115          6           0      -19.018154    0.366805    0.939036
    116          6           0      -21.868158   -1.960144    1.190714
    117          6           0      -20.955895    1.360926    1.729295
    118          8           0      -22.067952    1.656726    2.151316
    119          6           0      -19.814573    2.471765    1.653273
    120          6           0      -20.250796    3.720917    0.906383
    121          8           0      -20.521357    3.741664   -0.266607
    122          8           0      -20.236165    4.800094    1.775653
    123          6           0      -20.678002    6.048884    1.153832
    124          1           0      -13.210696    2.281554   -0.807750
    125          1           0      -13.836023   -3.893913   -1.936367
    126          1           0      -19.895957   -3.789926    0.325143
    127          1           0      -17.442916    4.151494    0.253956
    128          1           0      -14.662579    3.780766    1.228234
    129          1           0      -15.826532    5.492405   -0.615002
    130          1           0      -14.721720    4.332536   -1.565079
    131          1           0      -14.183072    5.394177   -0.238646
    132          1           0      -16.935727    3.605690    3.052371
    133          1           0      -17.785090    4.940698    2.383543
    134          1           0      -15.108848    5.576422    1.958792
    135          1           0      -15.115825    4.865281    3.559801
    136          1           0      -10.904810    0.546048   -2.810528
    137          1           0      -10.607289    0.859519   -1.104822
    138          1           0      -11.619947    1.946210   -2.017336
    139          1           0       -9.880547   -1.690574   -3.476045
    140          1           0       -9.338247   -2.972107   -2.229475
    141          1           0       -9.679709   -1.283529   -1.818727
    142          1           0      -15.713250   -5.758275   -0.751599
    143          1           0      -18.531272   -5.149409   -1.494040
    144          1           0      -15.629590   -4.718125   -3.417595
    145          1           0      -17.170137   -5.501484   -3.267241
    146          1           0      -15.672361   -6.407440   -2.822038
    147          1           0      -17.616369   -7.013749    0.128020
    148          1           0      -19.096905   -6.252180    0.296825
    149          1           0      -16.760722   -5.007100    1.713555
    150          1           0      -17.216895   -6.471480    2.412998
    151          1           0      -18.499287   -5.321108    2.230886
    152          1           0      -22.260142   -2.327644    0.242789
    153          1           0      -22.600035   -1.170684    1.363441
    154          1           0      -21.861936   -2.734668    1.958139
    155          1           0      -19.572501    2.714659    2.688120
    156          1           0      -19.668111    6.449910    1.234084
    157          1           0      -21.374875    6.457957    1.884974
    158          1           0      -21.071310    5.912105    0.146278
 ---------------------------------------------------------------------

 SCF Done:  E(RPBE1PBE) =  -4067.35666839     A.U. after   16 cycles

 Excitation energies and oscillator strengths:

 Excited State   1:      Singlet-A      1.8249 eV  679.40 nm  f=0.3637  <S**2>=0.000
     309 -> 315        0.17180
     311 -> 313        0.69412
     311 <- 313       -0.10911
 This state for optimization and/or second-order correction.
 Total Energy, E(TD-HF/TD-DFT) =  -4067.28960464
 Copying the excited state density for this state as the 1-particle RhoCI density.

 Excited State   2:      Singlet-A      1.8448 eV  672.08 nm  f=0.0000  <S**2>=0.000
     312 -> 313        0.70710

 Excited State   3:      Singlet-A      1.8612 eV  666.17 nm  f=0.3671  <S**2>=0.000
     310 -> 316        0.17928
     312 -> 314        0.69090
     312 <- 314       -0.10758

 Excited State   4:      Singlet-A      2.0554 eV  603.21 nm  f=0.0000  <S**2>=0.000
     311 -> 314        0.70710

 Excited State   5:      Singlet-A      2.1781 eV  569.23 nm  f=0.1083  <S**2>=0.000
     309 -> 313        0.65708
     311 -> 315       -0.25110

 The electronic state is 1-A.
 Alpha  occ. eigenvalues --  -46.93365 -46.92084 -19.25435 -19.25234 -19.20310
 Alpha  occ. eigenvalues --  -19.20239 -19.19659 -19.19093 -19.18887 -19.18787
 Alpha  occ. eigenvalues --  -14.42771 -14.41727 -14.41221 -14.41122 -14.39295
 Alpha  occ. eigenvalues --  -14.39106 -14.38945 -14.38489 -10.36518 -10.36117
 Alpha  occ. eigenvalues --  -10.32739 -10.32173 -10.32113 -10.31953 -10.29399
 Alpha  occ. eigenvalues --  -10.29259 -10.29086 -10.28998 -10.28876 -10.28852
 Alpha  occ. eigenvalues --  -10.28565 -10.28522 -10.28500 -10.28378 -10.28321
 Alpha  occ. eigenvalues --  -10.28169 -10.28003 -10.27550 -10.27127 -10.27001
 Alpha  occ. eigenvalues --  -10.26779 -10.26766 -10.26732 -10.26436 -10.26382
 Alpha  occ. eigenvalues --  -10.26331 -10.26233 -10.26175 -10.26044 -10.26018
 Alpha  occ. eigenvalues --  -10.25882 -10.25793 -10.25629 -10.25559 -10.25472
 Alpha  occ. eigenvalues --  -10.25453 -10.25426 -10.25302 -10.25269 -10.25211
 Alpha  occ. eigenvalues --  -10.25054 -10.24964 -10.24954 -10.24935 -10.24634
 Alpha  occ. eigenvalues --  -10.24577 -10.24388 -10.24366 -10.24309 -10.23977
 Alpha  occ. eigenvalues --  -10.23951 -10.23835 -10.23807 -10.23753 -10.23748
 Alpha  occ. eigenvalues --  -10.23718 -10.23405 -10.23128 -10.22870 -10.22830
 Alpha  occ. eigenvalues --  -10.22653 -10.22625 -10.22537 -10.22465 -10.22352
 Alpha  occ. eigenvalues --  -10.21962  -3.15259  -3.14162  -1.88069  -1.87640
 Alpha  occ. eigenvalues --   -1.87471  -1.87025  -1.86513  -1.86401  -1.11060
 Alpha  occ. eigenvalues --   -1.10424  -1.07553  -1.06684  -1.03976  -1.03378
 Alpha  occ. eigenvalues --   -1.02296  -1.01625  -0.99886  -0.98801  -0.98028
 Alpha  occ. eigenvalues --   -0.97894  -0.97757  -0.97100  -0.96470  -0.96451
 Alpha  occ. eigenvalues --   -0.87473  -0.85959  -0.84316  -0.83774  -0.83529
 Alpha  occ. eigenvalues --   -0.83124  -0.83047  -0.82522  -0.82049  -0.81667
 Alpha  occ. eigenvalues --   -0.81390  -0.81350  -0.80854  -0.80426  -0.78948
 Alpha  occ. eigenvalues --   -0.78243  -0.77956  -0.77928  -0.76880  -0.76631
 Alpha  occ. eigenvalues --   -0.76616  -0.76212  -0.75555  -0.75140  -0.74739
 Alpha  occ. eigenvalues --   -0.74281  -0.73038  -0.72554  -0.71729  -0.71559
 Alpha  occ. eigenvalues --   -0.71415  -0.71375  -0.70634  -0.70176  -0.69390
 Alpha  occ. eigenvalues --   -0.68998  -0.67063  -0.66776  -0.65848  -0.65807
 Alpha  occ. eigenvalues --   -0.64108  -0.64075  -0.63618  -0.63350  -0.62677
 Alpha  occ. eigenvalues --   -0.62360  -0.61457  -0.61296  -0.60258  -0.59497
 Alpha  occ. eigenvalues --   -0.59461  -0.58888  -0.58751  -0.58618  -0.58487
 Alpha  occ. eigenvalues --   -0.57949  -0.56447  -0.56249  -0.54822  -0.54513
 Alpha  occ. eigenvalues --   -0.54501  -0.54067  -0.53813  -0.53671  -0.53359
 Alpha  occ. eigenvalues --   -0.53128  -0.52912  -0.52531  -0.52341  -0.51916
 Alpha  occ. eigenvalues --   -0.50970  -0.50587  -0.50393  -0.50383  -0.49888
 Alpha  occ. eigenvalues --   -0.49584  -0.49298  -0.49147  -0.49122  -0.48706
 Alpha  occ. eigenvalues --   -0.48607  -0.48552  -0.48162  -0.48130  -0.47987
 Alpha  occ. eigenvalues --   -0.47752  -0.47713  -0.47390  -0.47177  -0.46933
 Alpha  occ. eigenvalues --   -0.46575  -0.46352  -0.46097  -0.45999  -0.45702
 Alpha  occ. eigenvalues --   -0.45531  -0.45472  -0.45411  -0.45339  -0.45148
 Alpha  occ. eigenvalues --   -0.44817  -0.44790  -0.44659  -0.44626  -0.44356
 Alpha  occ. eigenvalues --   -0.44114  -0.44015  -0.43899  -0.43843  -0.43775
 Alpha  occ. eigenvalues --   -0.43606  -0.43360  -0.43210  -0.43077  -0.42900
 Alpha  occ. eigenvalues --   -0.42887  -0.42448  -0.42290  -0.42240  -0.41981
 Alpha  occ. eigenvalues --   -0.41880  -0.41819  -0.41498  -0.41446  -0.41114
 Alpha  occ. eigenvalues --   -0.40814  -0.40748  -0.40481  -0.40476  -0.40256
 Alpha  occ. eigenvalues --   -0.40198  -0.40151  -0.40062  -0.39664  -0.39338
 Alpha  occ. eigenvalues --   -0.39297  -0.39179  -0.39024  -0.38921  -0.38843
 Alpha  occ. eigenvalues --   -0.38625  -0.38478  -0.38449  -0.38367  -0.38081
 Alpha  occ. eigenvalues --   -0.38074  -0.37890  -0.37795  -0.37699  -0.37664
 Alpha  occ. eigenvalues --   -0.37457  -0.37378  -0.37339  -0.37180  -0.36879
 Alpha  occ. eigenvalues --   -0.36743  -0.36702  -0.36458  -0.36402  -0.35938
 Alpha  occ. eigenvalues --   -0.35883  -0.35732  -0.35465  -0.35323  -0.35256
 Alpha  occ. eigenvalues --   -0.34980  -0.34761  -0.34504  -0.34062  -0.33878
 Alpha  occ. eigenvalues --   -0.33344  -0.33035  -0.32821  -0.32755  -0.32397
 Alpha  occ. eigenvalues --   -0.32357  -0.32164  -0.31947  -0.31506  -0.31272
 Alpha  occ. eigenvalues --   -0.30858  -0.30759  -0.29866  -0.29589  -0.29515
 Alpha  occ. eigenvalues --   -0.28865  -0.28785  -0.28651  -0.27179  -0.26503
 Alpha  occ. eigenvalues --   -0.26425  -0.26034  -0.25636  -0.25574  -0.25365
 Alpha  occ. eigenvalues --   -0.25353  -0.25312  -0.24997  -0.21082  -0.20736
 Alpha  occ. eigenvalues --   -0.19013  -0.18661
 Alpha virt. eigenvalues --   -0.11489  -0.11059  -0.05302  -0.05065  -0.03870
 Alpha virt. eigenvalues --   -0.03751  -0.02286  -0.01926  -0.01631  -0.00017
 Alpha virt. eigenvalues --    0.00345   0.00681   0.00881   0.00988   0.01290

 Mulliken charges:
               1
     1  Mg  12.004501
     2  C    5.982936
     3  C    6.011886
     4  C    6.013712
     5  C    5.990105
     6  N    6.988651
     7  C    6.038336
     8  C    5.986315
     9  C    6.016361
    10  C    5.962711
    11  C    6.003548
    12  C    5.998985
    13  C    5.999805
    14  H    0.996539
    15  N    7.006951
    16  C    5.957689
    17  C    5.987631
    18  C    5.979008
    19  C    5.972982
    20  C    6.000382
    21  C    5.988642
    22  O    7.971742
    23  C    6.002646
    24  N    7.000865
    25  C    5.974027
    26  C    6.003387
    27  C    5.996055
    28  C    6.027386
    29  C    5.998323
    30  C    5.993981
    31  C    6.000397
    32  N    7.001790
    33  C    6.037602
    34  C    6.032792
    35  C    6.000141
    36  C    6.026439
    37  C    5.999497
    38  C    6.013312
    39  O    8.029011
    40  C    6.003138
    41  C    6.005583
    42  O    8.001937
    43  O    8.002898
    44  C    5.997918
    45  H    0.989622
    46  H    0.995736
    47  H    1.007873
    48  H    0.997716
    49  H    0.994549
    50  H    0.992099
    51  H    0.986365
    52  H    1.005717
    53  H    1.010639
    54  H    0.994002
    55  H    1.002837
    56  H    1.005299
    57  H    0.985918
    58  H    0.985774
    59  H    0.986350
    60  H    0.992463
    61  H    0.992923
    62  H    0.986345
    63  H    1.001289
    64  H    1.000414
    65  H    0.988720
    66  H    0.998547
    67  H    1.006381
    68  H    1.007053
    69  H    0.993649
    70  H    0.994066
    71  H    1.015234
    72  H    1.002720
    73  H    1.020895
    74  H    1.012735
    75  H    1.019386
    76  H    1.005870
    77  H    1.001469
    78  H    1.005292
    79  H    1.005513
    80  Mg  12.000016
    81  C    5.999240
    82  C    6.000178
    83  C    6.000494
    84  C    6.000012
    85  N    6.999626
    86  C    6.001034
    87  C    5.999820
    88  C    6.000348
    89  C    5.999033
    90  C    6.000003
    91  C    5.999921
    92  C    6.000064
    93  H    1.000022
    94  N    7.000302
    95  C    5.998854
    96  C    5.999313
    97  C    5.999419
    98  C    5.999147
    99  C    6.000214
   100  C    5.999549
   101  O    7.999205
   102  C    6.000099
   103  N    7.000041
   104  C    5.999154
   105  C    6.000373
   106  C    5.999852
   107  C    6.000784
   108  C    6.000014
   109  C    5.999840
   110  C    5.999760
   111  N    6.999958
   112  C    6.000929
   113  C    6.001217
   114  C    6.000016
   115  C    6.001042
   116  C    5.999924
   117  C    6.000516
   118  O    8.001002
   119  C    6.000050
   120  C    6.000114
   121  O    8.000156
   122  O    8.000020
   123  C    5.999985
   124  H    0.999601
   125  H    0.999792
   126  H    1.000450
   127  H    0.999935
   128  H    0.999856
   129  H    0.999690
   130  H    1.000032
   131  H    0.999871
   132  H    0.999983
   133  H    0.999918
   134  H    1.000137
   135  H    1.000081
   136  H    0.999301
   137  H    0.999273
   138  H    0.999345
   139  H    0.999581
   140  H    0.999482
   141  H    0.999834
   142  H    0.999990
   143  H    1.000009
   144  H    1.000153
   145  H    0.999768
   146  H    0.999959
   147  H    1.000373
   148  H    1.000009
   149  H    1.000257
   150  H    1.000298
   151  H    0.999846
   152  H    1.000737
   153  H    1.000457
   154  H    1.000711
   155  H    1.000262
   156  H    1.000155
   157  H    1.000127
   158  H    1.000066
 Sum of Mulliken charges = 624.00000

 Dipole moment (field-independent basis, Debye):
    X=             -5.9183    Y=              1.5804    Z=             -8.2205  Tot=             10.2518
 Quadrupole moment (field-independent basis, Debye-Ang):
   XX=           -177.1049   YY=              0.3048   ZZ=             -3.3450
   XY=             30.1857   XZ=           -144.2993   YZ=              5.0141

 Normal termination of Gaussian 16 at Wed Oct 13 21:09:59 2021.
