 Gaussian 16, Revision A.03,
 Gaussian 16:  ES64L-G16RevA.03 25-Dec-2016

 --------------------------------------------------------
 #p PBE1PBE/Def2SVP td=(nstates=5) density=(transition=1)
 --------------------------------------------------------

 --------------------------------
 TDDFT excited states in gaussian
 --------------------------------
 Symbolic Z-matrix:
 Charge =  0 Multiplicity = 1

                         Standard orientation:
 ---------------------------------------------------------------------
 Center     Atomic      Atomic             Coordinates (Angstroms)
 Number     Number       Type             X           Y           Z
 ---------------------------------------------------------------------
      1         12           0        8.413990    0.578674    0.065034
      2          6           0        6.399658   -1.906394   -1.254224
      3          6           0        6.413282    2.963943   -1.442089
      4          6           0        9.931830    2.914118    1.972046
      5          6           0       10.108309   -1.992814    1.783863
      6          7           0        6.431772    0.529560   -0.977406
      7          6           0        5.966156   -0.592176   -1.533940
      8          6           0        4.653215   -0.292873   -2.321525
      9          6           0        4.821579    1.273554   -2.608588
     10          6           0        6.029770    1.640768   -1.664619
     11          6           0        4.977311    1.597366   -4.114045
     12          6           0        3.445279   -0.538477   -1.446321
     13          6           0        2.264663   -1.208417   -2.131841
     14          1           0        0.768245   -0.832471   -1.814784
     15          7           0        8.283325    2.709736    0.080950
     16          6           0        7.382821    3.502218   -0.525536
     17          6           0        7.711690    4.852456   -0.201710
     18          6           0        8.852082    4.884055    0.657004
     19          6           0        9.115369    3.466044    0.931539
     20          6           0        7.050265    5.997393   -0.875472
     21          6           0        9.409868    6.124452    1.259258
     22          8           0        8.957121    7.213884    0.949292
     23          6           0       10.595124    6.084461    2.216416
     24          7           0        9.945818    0.448490    1.659730
     25          6           0       10.312724    1.594373    2.298941
     26          6           0       11.109272    1.282965    3.524152
     27          6           0       11.150453   -0.316531    3.451495
     28          6           0       10.419286   -0.705686    2.190648
     29          6           0       12.478887    1.983354    3.599717
     30          6           0       10.610403   -1.087296    4.736488
     31          6           0       11.468047   -2.181104    5.415198
     32          7           0        8.329317   -1.481663    0.234086
     33          6           0        9.111614   -2.374141    0.897219
     34          6           0        8.899214   -3.660399    0.399264
     35          6           0        7.839400   -3.569257   -0.492312
     36          6           0        7.481599   -2.244395   -0.502131
     37          6           0        9.640980   -4.934437    0.899662
     38          6           0        7.013924   -4.259968   -1.368079
     39          8           0        6.941898   -5.471494   -1.541774
     40          6           0        5.926196   -3.231106   -1.944610
     41          6           0        6.053431   -3.054342   -3.346207
     42          8           0        6.873907   -2.414627   -4.008538
     43          8           0        5.003296   -3.765737   -3.918389
     44          6           0        4.828765   -3.803826   -5.360241
     45          1           0        5.886439    3.713236   -2.036218
     46          1           0       10.502990    3.548962    2.653317
     47          1           0       10.756234   -2.704455    2.300034
     48          1           0        4.633829   -0.942784   -3.195923
     49          1           0        4.028678    1.890076   -2.186381
     50          1           0        5.052802    0.692617   -4.716909
     51          1           0        5.862174    2.217002   -4.262999
     52          1           0        4.122619    2.206600   -4.407144
     53          1           0        3.038041    0.310622   -0.897048
     54          1           0        3.833335   -1.118704   -0.609172
     55          1           0        2.413411   -2.282215   -2.019391
     56          1           0        2.468884   -0.971794   -3.176052
     57          1           0        7.763761    6.257898   -1.657017
     58          1           0        6.873482    6.821445   -0.183985
     59          1           0        6.085947    5.739472   -1.313405
     60          1           0       10.180741    5.802786    3.184547
     61          1           0       10.903657    7.121919    2.342886
     62          1           0       11.363585    5.402504    1.852637
     63          1           0       10.425840    1.649639    4.289350
     64          1           0       12.174133   -0.689942    3.423639
     65          1           0       12.370175    2.767715    4.349486
     66          1           0       12.805416    2.383637    2.639341
     67          1           0       13.221520    1.282267    3.979825
     68          1           0        9.673996   -1.577272    4.470106
     69          1           0       10.418192   -0.422846    5.579189
     70          1           0       11.119299   -3.051384    4.859391
     71          1           0       11.180446   -2.294373    6.459650
     72          1           0       12.541629   -2.227873    5.233097
     73          1           0        9.251379   -5.195150    1.882875
     74          1           0       10.712566   -4.830109    1.070822
     75          1           0        9.468597   -5.774755    0.226595
     76          1           0        4.958069   -3.616061   -1.623862
     77          1           0        4.380550   -4.767574   -5.599919
     78          1           0        5.720429   -3.570494   -5.942735
     79          1           0        4.049698   -3.084720   -5.613705
     80         12           0       -8.436459    0.227894   -0.022315
     81          6           0       -6.168903   -2.328825   -0.260935
     82          6           0       -6.555655    2.105276   -2.056371
     83          6           0      -10.631762    2.730285    0.508573
     84          6           0      -10.145832   -1.658754    2.573427
     85          7           0       -6.390206   -0.020130   -0.836696
     86          6           0       -5.703929   -1.166745   -0.913231
     87          6           0       -4.389440   -0.983854   -1.832123
     88          6           0       -4.631823    0.479104   -2.361261
     89          6           0       -5.938085    0.943943   -1.686430
     90          6           0       -3.419175    1.412571   -2.179403
     91          6           0       -4.262310   -2.042774   -2.963865
     92          6           0       -3.252082   -1.768986   -4.125500
     93          1           0       -1.884237   -2.551221   -4.105581
     94          7           0       -8.546519    2.188505   -0.653863
     95          6           0       -7.758278    2.743148   -1.551091
     96          6           0       -8.235906    4.091233   -1.818899
     97          6           0       -9.374954    4.373855   -1.006515
     98          6           0       -9.567987    3.067930   -0.338636
     99          6           0       -7.535462    5.118073   -2.693330
    100          6           0      -10.167038    5.663099   -0.815391
    101          8           0      -10.930057    5.802332    0.136158
    102          6           0       -9.996175    6.761331   -1.805758
    103          7           0      -10.125282    0.505435    1.390199
    104          6           0      -10.878064    1.598718    1.360720
    105          6           0      -12.127696    1.464044    2.246600
    106          6           0      -12.012395    0.005942    2.683350
    107          6           0      -10.662107   -0.385116    2.210561
    108          6           0      -12.306506    2.463956    3.398669
    109          6           0      -13.207136   -0.841151    2.325047
    110          6           0      -14.017699   -1.441726    3.528511
    111          7           0       -8.270587   -1.582043    0.913719
    112          6           0       -9.067910   -2.272315    1.887261
    113          6           0       -8.590640   -3.622383    2.091188
    114          6           0       -7.459787   -3.639446    1.228123
    115          6           0       -7.319170   -2.409268    0.573550
    116          6           0       -9.169276   -4.773459    2.835841
    117          6           0       -6.528759   -4.595649    0.684268
    118          8           0       -6.419236   -5.829261    0.747987
    119          6           0       -5.566411   -3.831070   -0.189898
    120          6           0       -4.205605   -3.752231    0.536653
    121          8           0       -4.001092   -3.523054    1.738601
    122          8           0       -3.231573   -3.974688   -0.390880
    123          6           0       -1.810420   -3.985491    0.080453
    124          1           0       -6.103977    2.768071   -2.797428
    125          1           0      -11.262464    3.536587    0.888773
    126          1           0      -10.787831   -2.215641    3.258294
    127          1           0       -3.568479   -1.018722   -1.116867
    128          1           0       -4.864588    0.407235   -3.423667
    129          1           0       -3.319844    1.983756   -3.101790
    130          1           0       -2.490386    0.855489   -2.055991
    131          1           0       -3.564227    2.077978   -1.328261
    132          1           0       -5.216494   -2.008643   -3.489642
    133          1           0       -3.992399   -3.009971   -2.540012
    134          1           0       -2.927972   -0.732944   -4.021928
    135          1           0       -3.734982   -2.012034   -5.071359
    136          1           0       -6.628271    4.709116   -3.138088
    137          1           0       -7.264441    5.985523   -2.092009
    138          1           0       -8.178476    5.472232   -3.498063
    139          1           0      -10.108216    6.284622   -2.779966
    140          1           0       -9.091661    7.365037   -1.873366
    141          1           0      -10.746736    7.544136   -1.701775
    142          1           0      -12.999503    1.580102    1.603623
    143          1           0      -11.981048   -0.000881    3.772734
    144          1           0      -13.374911    2.678421    3.396097
    145          1           0      -11.658501    3.329329    3.260437
    146          1           0      -11.952687    2.104945    4.365068
    147          1           0      -12.767329   -1.704604    1.826941
    148          1           0      -13.936301   -0.326647    1.699848
    149          1           0      -13.550226   -1.156933    4.471471
    150          1           0      -13.967295   -2.527422    3.440372
    151          1           0      -15.086293   -1.226297    3.527366
    152          1           0      -10.179748   -4.535914    3.167390
    153          1           0       -8.583712   -4.841891    3.751922
    154          1           0       -9.137658   -5.604456    2.129702
    155          1           0       -5.507522   -4.424730   -1.102345
    156          1           0       -1.533567   -3.161438    0.738471
    157          1           0       -1.072081   -4.053512   -0.717820
    158          1           0       -1.723196   -4.871887    0.708547
 ---------------------------------------------------------------------

 SCF Done:  E(RPBE1PBE) =  -4067.35780301     A.U. after   16 cycles

 Excitation energies and oscillator strengths:

 Excited State   1:      Singlet-A      1.6883 eV  734.37 nm  f=0.0000  <S**2>=0.000
     312 -> 313        0.70708
 This state for optimization and/or second-order correction.
 Total Energy, E(TD-HF/TD-DFT) =  -4067.29575889
 Copying the excited state density for this state as the 1-particle RhoCI density.

 Excited State   2:      Singlet-A      1.8587 eV  667.05 nm  f=0.1900  <S**2>=0.000
     309 -> 315        0.16992
     311 -> 313        0.66264
     312 -> 314        0.20095
     311 <- 313       -0.10509

 Excited State   3:      Singlet-A      1.8809 eV  659.18 nm  f=0.5594  <S**2>=0.000
     310 -> 316        0.16024
     311 -> 313       -0.20045
     312 -> 314        0.66078
     312 <- 314       -0.10130

 Excited State   4:      Singlet-A      2.0449 eV  606.32 nm  f=0.0000  <S**2>=0.000
     311 -> 314        0.70708

 Excited State   5:      Singlet-A      2.2367 eV  554.32 nm  f=0.1120  <S**2>=0.000
     309 -> 313        0.64350
     311 -> 315       -0.26398

 The electronic state is 1-A.
 Alpha  occ. eigenvalues --  -46.93181 -46.92589 -19.26238 -19.25421 -19.20488
 Alpha  occ. eigenvalues --  -19.19689 -19.19669 -19.19630 -19.18699 -19.17991
 Alpha  occ. eigenvalues --  -14.42014 -14.41610 -14.41459 -14.41384 -14.39642
 Alpha  occ. eigenvalues --  -14.39582 -14.38993 -14.38965 -10.36666 -10.36593
 Alpha  occ. eigenvalues --  -10.33155 -10.32481 -10.31880 -10.30526 -10.29422
 Alpha  occ. eigenvalues --  -10.29419 -10.29307 -10.29292 -10.29154 -10.28973
 Alpha  occ. eigenvalues --  -10.28923 -10.28726 -10.28663 -10.28253 -10.28107
 Alpha  occ. eigenvalues --  -10.27919 -10.27810 -10.27803 -10.27603 -10.27225
 Alpha  occ. eigenvalues --  -10.26897 -10.26777 -10.26483 -10.26435 -10.26287
 Alpha  occ. eigenvalues --  -10.26276 -10.26241 -10.26224 -10.26224 -10.26214
 Alpha  occ. eigenvalues --  -10.26199 -10.26144 -10.26063 -10.25808 -10.25795
 Alpha  occ. eigenvalues --  -10.25616 -10.25594 -10.25588 -10.25566 -10.25205
 Alpha  occ. eigenvalues --  -10.25192 -10.24956 -10.24835 -10.24727 -10.24519
 Alpha  occ. eigenvalues --  -10.24513 -10.24480 -10.24459 -10.24424 -10.24374
 Alpha  occ. eigenvalues --  -10.24053 -10.24026 -10.23963 -10.23949 -10.23903
 Alpha  occ. eigenvalues --  -10.23777 -10.23721 -10.23626 -10.23507 -10.23432
 Alpha  occ. eigenvalues --  -10.23391 -10.23162 -10.23148 -10.22647 -10.22511
 Alpha  occ. eigenvalues --  -10.22201  -3.15090  -3.14694  -1.87942  -1.87526
 Alpha  occ. eigenvalues --   -1.87458  -1.87304  -1.87063  -1.86930  -1.10585
 Alpha  occ. eigenvalues --   -1.10297  -1.05043  -1.04910  -1.04848  -1.02738
 Alpha  occ. eigenvalues --   -1.02416  -1.01334  -1.00340  -1.00312  -0.99051
 Alpha  occ. eigenvalues --   -0.98851  -0.98586  -0.98573  -0.97683  -0.97427
 Alpha  occ. eigenvalues --   -0.88409  -0.85667  -0.84232  -0.83918  -0.83638
 Alpha  occ. eigenvalues --   -0.83025  -0.82770  -0.82492  -0.82371  -0.81789
 Alpha  occ. eigenvalues --   -0.81480  -0.81351  -0.81312  -0.80669  -0.79857
 Alpha  occ. eigenvalues --   -0.79025  -0.78478  -0.77595  -0.77463  -0.76638
 Alpha  occ. eigenvalues --   -0.76506  -0.76406  -0.75940  -0.75371  -0.75210
 Alpha  occ. eigenvalues --   -0.74420  -0.72867  -0.72621  -0.72043  -0.71838
 Alpha  occ. eigenvalues --   -0.71049  -0.71041  -0.70932  -0.70396  -0.69714
 Alpha  occ. eigenvalues --   -0.69675  -0.68056  -0.67109  -0.66999  -0.66156
 Alpha  occ. eigenvalues --   -0.64449  -0.63788  -0.63745  -0.63465  -0.62725
 Alpha  occ. eigenvalues --   -0.62211  -0.61999  -0.61992  -0.60681  -0.60483
 Alpha  occ. eigenvalues --   -0.60298  -0.60187  -0.59556  -0.59457  -0.58921
 Alpha  occ. eigenvalues --   -0.58449  -0.57378  -0.57183  -0.55242  -0.55182
 Alpha  occ. eigenvalues --   -0.54637  -0.54239  -0.53825  -0.53656  -0.53480
 Alpha  occ. eigenvalues --   -0.53270  -0.52967  -0.52737  -0.52625  -0.51856
 Alpha  occ. eigenvalues --   -0.51057  -0.50906  -0.50786  -0.50245  -0.50227
 Alpha  occ. eigenvalues --   -0.49644  -0.49468  -0.49123  -0.49045  -0.48615
 Alpha  occ. eigenvalues --   -0.48365  -0.48288  -0.48189  -0.48000  -0.47276
 Alpha  occ. eigenvalues --   -0.47156  -0.47094  -0.47026  -0.46816  -0.46772
 Alpha  occ. eigenvalues --   -0.46631  -0.46466  -0.46381  -0.46269  -0.46100
 Alpha  occ. eigenvalues --   -0.45764  -0.45654  -0.45340  -0.45085  -0.45028
 Alpha  occ. eigenvalues --   -0.44862  -0.44661  -0.44606  -0.44398  -0.44386
 Alpha  occ. eigenvalues --   -0.44197  -0.44189  -0.43974  -0.43816  -0.43797
 Alpha  occ. eigenvalues --   -0.43614  -0.43567  -0.43234  -0.43190  -0.43091
 Alpha  occ. eigenvalues --   -0.42859  -0.42454  -0.42299  -0.42279  -0.41946
 Alpha  occ. eigenvalues --   -0.41688  -0.41634  -0.41541  -0.41471  -0.41430
 Alpha  occ. eigenvalues --   -0.41187  -0.40954  -0.40913  -0.40838  -0.40657
 Alpha  occ. eigenvalues --   -0.40625  -0.40425  -0.40210  -0.39953  -0.39715
 Alpha  occ. eigenvalues --   -0.39672  -0.39563  -0.39452  -0.39284  -0.39136
 Alpha  occ. eigenvalues --   -0.38864  -0.38825  -0.38807  -0.38679  -0.38579
 Alpha  occ. eigenvalues --   -0.38383  -0.38347  -0.38142  -0.37901  -0.37767
 Alpha  occ. eigenvalues --   -0.37691  -0.37153  -0.37076  -0.37023  -0.36937
 Alpha  occ. eigenvalues --   -0.36851  -0.36801  -0.36799  -0.36742  -0.36457
 Alpha  occ. eigenvalues --   -0.36380  -0.36007  -0.35945  -0.35694  -0.35395
 Alpha  occ. eigenvalues --   -0.35278  -0.34854  -0.34229  -0.34027  -0.33612
 Alpha  occ. eigenvalues --   -0.33285  -0.33250  -0.33062  -0.32882  -0.32597
 Alpha  occ. eigenvalues --   -0.32469  -0.32089  -0.31656  -0.31305  -0.31191
 Alpha  occ. eigenvalues --   -0.31029  -0.30858  -0.29935  -0.29703  -0.29511
 Alpha  occ. eigenvalues --   -0.29173  -0.29136  -0.28653  -0.27562  -0.26786
 Alpha  occ. eigenvalues --   -0.26634  -0.26532  -0.26151  -0.26036  -0.25595
 Alpha  occ. eigenvalues --   -0.25366  -0.25201  -0.24784  -0.21626  -0.20868
 Alpha  occ. eigenvalues --   -0.19329  -0.18739
 Alpha virt. eigenvalues --   -0.11763  -0.11037  -0.05879  -0.05343  -0.04533
 Alpha virt. eigenvalues --   -0.03597  -0.02221  -0.01882  -0.00905  -0.00743
 Alpha virt. eigenvalues --   -0.00556  -0.00306   0.00912   0.00978   0.01210

 Mulliken charges:
               1
     1  Mg  11.999975
     2  C    6.000016
     3  C    6.000030
     4  C    5.999992
     5  C    5.999944
     6  N    7.000013
     7  C    6.000025
     8  C    5.999985
     9  C    6.000016
    10  C    5.999941
    11  C    6.000000
    12  C    5.999991
    13  C    5.999991
    14  H    0.999965
    15  N    6.999999
    16  C    5.999938
    17  C    5.999974
    18  C    5.999984
    19  C    5.999959
    20  C    6.000007
    21  C    5.999984
    22  O    7.999970
    23  C    6.000003
    24  N    6.999978
    25  C    5.999975
    26  C    6.000014
    27  C    5.999985
    28  C    6.000046
    29  C    6.000008
    30  C    6.000003
    31  C    6.000003
    32  N    7.000009
    33  C    6.000048
    34  C    6.000021
    35  C    6.000016
    36  C    6.000019
    37  C    6.000004
    38  C    6.000016
    39  O    8.000042
    40  C    6.000010
    41  C    6.000003
    42  O    8.000015
    43  O    8.000002
    44  C    5.999996
    45  H    0.999986
    46  H    0.999972
    47  H    0.999994
    48  H    0.999999
    49  H    1.000000
    50  H    0.999982
    51  H    1.000005
    52  H    0.999996
    53  H    1.000031
    54  H    0.999996
    55  H    0.999994
    56  H    0.999999
    57  H    0.999964
    58  H    0.999969
    59  H    0.999962
    60  H    0.999983
    61  H    0.999973
    62  H    0.999989
    63  H    0.999998
    64  H    0.999997
    65  H    0.999997
    66  H    1.000000
    67  H    0.999978
    68  H    0.999992
    69  H    1.000007
    70  H    0.999988
    71  H    0.999998
    72  H    1.000000
    73  H    1.000023
    74  H    1.000025
    75  H    1.000009
    76  H    1.000015
    77  H    1.000004
    78  H    1.000006
    79  H    1.000010
    80  Mg  12.000013
    81  C    5.999993
    82  C    6.000033
    83  C    5.999992
    84  C    5.999987
    85  N    7.000002
    86  C    6.000025
    87  C    6.000020
    88  C    5.999986
    89  C    5.999986
    90  C    6.000064
    91  C    5.999998
    92  C    5.999999
    93  H    1.000013
    94  N    6.999992
    95  C    5.999967
    96  C    6.000003
    97  C    5.999994
    98  C    6.000001
    99  C    6.000001
   100  C    5.999999
   101  O    7.999988
   102  C    6.000001
   103  N    6.999988
   104  C    6.000002
   105  C    5.999999
   106  C    5.999984
   107  C    6.000044
   108  C    6.000000
   109  C    5.999995
   110  C    6.000002
   111  N    7.000001
   112  C    6.000035
   113  C    6.000018
   114  C    6.000013
   115  C    6.000016
   116  C    6.000005
   117  C    6.000022
   118  O    8.000030
   119  C    6.000000
   120  C    6.000007
   121  O    8.000006
   122  O    8.000006
   123  C    6.000005
   124  H    1.000010
   125  H    0.999999
   126  H    1.000013
   127  H    0.999978
   128  H    1.000011
   129  H    1.000001
   130  H    0.999906
   131  H    0.999993
   132  H    1.000000
   133  H    0.999996
   134  H    0.999999
   135  H    1.000003
   136  H    0.999996
   137  H    0.999998
   138  H    0.999997
   139  H    0.999998
   140  H    0.999998
   141  H    0.999997
   142  H    1.000011
   143  H    1.000010
   144  H    1.000004
   145  H    1.000009
   146  H    0.999998
   147  H    0.999999
   148  H    1.000013
   149  H    1.000002
   150  H    1.000001
   151  H    1.000008
   152  H    1.000017
   153  H    1.000016
   154  H    1.000012
   155  H    1.000014
   156  H    1.000003
   157  H    1.000003
   158  H    0.999997
 Sum of Mulliken charges = 624.00000

 Dipole moment (field-independent basis, Debye):
    X=             -0.0206    Y=             -0.0217    Z=              0.0007  Tot=              0.0299
 Quadrupole moment (field-independent basis, Debye-Ang):
   XX=             -0.0099   YY=             -0.0187   ZZ=              0.0023
   XY=             -0.0836   XZ=             -0.0506   YZ=             -0.0036

 Normal termination of Gaussian 16 at Thu Oct 14 10:07:38 2021.
