 Gaussian 16, Revision A.03,
 Gaussian 16:  ES64L-G16RevA.03 25-Dec-2016

 --------------------------------------------------------
 #p PBE1PBE/Def2SVP td=(nstates=5) density=(transition=1)
 --------------------------------------------------------

 --------------------------------
 TDDFT excited states in gaussian
 --------------------------------
 Symbolic Z-matrix:
 Charge =  0 Multiplicity = 1

                         Standard orientation:
 ---------------------------------------------------------------------
 Center     Atomic      Atomic             Coordinates (Angstroms)
 Number     Number       Type             X           Y           Z
 ---------------------------------------------------------------------
      1         12           0        0.728870    0.048121   -0.249134
      2          6           0       -2.805671    0.198349   -0.269140
      3          6           0        0.519065   -3.396701   -0.219809
      4          6           0        4.100832   -0.064877    0.065070
      5          6           0        0.887103    3.545265   -0.063801
      6          7           0       -0.998981   -1.332135   -0.142167
      7          6           0       -2.346409   -1.073865   -0.382529
      8          6           0       -3.182135   -2.414606   -0.489258
      9          6           0       -2.101340   -3.487165   -0.189236
     10          6           0       -0.764976   -2.714488   -0.122144
     11          6           0       -2.285839   -4.389947    1.087510
     12          6           0       -4.068563   -2.598408   -1.788551
     13          6           0       -5.538048   -2.759366   -1.541426
     14          1           0       -6.297121   -3.761453   -2.498568
     15          7           0        2.042219   -1.507699   -0.095732
     16          6           0        1.803472   -2.865054   -0.168777
     17          6           0        3.057888   -3.585608   -0.017312
     18          6           0        4.136348   -2.660095    0.067210
     19          6           0        3.449906   -1.318218   -0.009448
     20          6           0        3.190235   -5.118528   -0.118839
     21          6           0        5.638429   -2.906487    0.164899
     22          8           0        6.471122   -2.023586    0.142907
     23          6           0        6.305152   -4.342569    0.198586
     24          7           0        2.280383    1.553258    0.068515
     25          6           0        3.568026    1.247609    0.160366
     26          6           0        4.468037    2.526024    0.307835
     27          6           0        3.434823    3.697018    0.068102
     28          6           0        2.098439    2.898659   -0.009258
     29          6           0        5.268728    2.524802    1.642130
     30          6           0        3.785956    4.529617   -1.149033
     31          6           0        3.608133    6.033497   -0.947914
     32          7           0       -0.605791    1.633691   -0.039457
     33          6           0       -0.417857    3.002112   -0.074918
     34          6           0       -1.700290    3.612431    0.096500
     35          6           0       -2.677110    2.592174   -0.015857
     36          6           0       -1.969828    1.360128   -0.094531
     37          6           0       -1.960653    5.061923    0.259484
     38          6           0       -4.122255    2.325994   -0.122642
     39          8           0       -5.113318    3.037675    0.012266
     40          6           0       -4.220501    0.628680   -0.344293
     41          6           0       -5.034409    0.055861    0.682023
     42          8           0       -4.610682   -0.567459    1.631073
     43          8           0       -6.370404    0.190619    0.378826
     44          6           0       -7.255681   -0.340163    1.445248
     45          1           0        0.503810   -4.482738   -0.334368
     46          1           0        5.181645   -0.042380    0.215906
     47          1           0        1.028801    4.628200   -0.094323
     48          1           0       -3.779849   -2.425975    0.421538
     49          1           0       -2.009855   -4.184105   -1.022359
     50          1           0       -1.984837   -5.397957    0.800477
     51          1           0       -3.330510   -4.343237    1.394071
     52          1           0       -1.679851   -4.089212    1.942396
     53          1           0       -3.646458   -3.453794   -2.316220
     54          1           0       -3.949974   -1.689574   -2.378763
     55          1           0       -6.037771   -1.796983   -1.659434
     56          1           0       -5.585056   -3.079916   -0.501069
     57          1           0        3.756168   -5.291132   -1.033590
     58          1           0        2.208643   -5.545482   -0.325847
     59          1           0        3.715658   -5.606498    0.703025
     60          1           0        5.984079   -4.881337   -0.693549
     61          1           0        6.224944   -4.823455    1.173928
     62          1           0        7.374988   -4.141425    0.245446
     63          1           0        5.208087    2.630283   -0.485358
     64          1           0        3.416135    4.269443    0.995717
     65          1           0        5.109416    3.483028    2.137440
     66          1           0        6.324218    2.283720    1.513448
     67          1           0        4.883449    1.745931    2.298132
     68          1           0        3.220236    4.228774   -2.030216
     69          1           0        4.803670    4.382356   -1.513841
     70          1           0        3.088827    6.252400   -0.014849
     71          1           0        2.981118    6.377649   -1.770897
     72          1           0        4.543080    6.582683   -1.060243
     73          1           0       -1.098285    5.728430    0.269216
     74          1           0       -2.692264    5.147865    1.063794
     75          1           0       -2.343746    5.346197   -0.720874
     76          1           0       -4.662057    0.424799   -1.320190
     77          1           0       -7.068390    0.190216    2.379169
     78          1           0       -7.076992   -1.414943    1.476088
     79          1           0       -8.313008   -0.179624    1.238206
 ---------------------------------------------------------------------

 SCF Done:  E(RPBE1PBE) =  -2033.68719399     A.U. after   16 cycles

 Excitation energies and oscillator strengths:

 Excited State   1:      Singlet-A      1.8744 eV  661.48 nm  f=0.3615  <S**2>=0.000
     155 ->158         0.17467
     156 ->157         0.69063
 This state for optimization and/or second-order correction.
 Total Energy, E(TD-HF/TD-DFT) =  -2033.61831275
 Copying the excited state density for this state as the 1-particle RhoCI density.

 Excited State   2:      Singlet-A      2.2446 eV  552.36 nm  f=0.1099  <S**2>=0.000
     155 ->157         0.65165
     156 ->158        -0.25981

 Excited State   3:      Singlet-A      2.9678 eV  417.76 nm  f=0.0055  <S**2>=0.000
     154 ->157         0.69662

 Excited State   4:      Singlet-A      3.0902 eV  401.22 nm  f=0.0000  <S**2>=0.000
     151 ->157        -0.17973
     152 ->157         0.63963
     152 ->158        -0.10265
     152 ->159        -0.15883

 Excited State   5:      Singlet-A      3.1312 eV  395.97 nm  f=0.0001  <S**2>=0.000
     153 ->157         0.67668
     153 ->159         0.15551

 The electronic state is 1-A.
 Alpha  occ. eigenvalues --  -46.91672 -19.25025 -19.19987 -19.19767 -19.19519
 Alpha  occ. eigenvalues --  -14.41815 -14.41247 -14.39892 -14.38669 -10.35347
 Alpha  occ. eigenvalues --  -10.33470 -10.33258 -10.29966 -10.29330 -10.28723
 Alpha  occ. eigenvalues --  -10.28538 -10.28336 -10.28200 -10.27854 -10.27377
 Alpha  occ. eigenvalues --  -10.26795 -10.26752 -10.26209 -10.26169 -10.25746
 Alpha  occ. eigenvalues --  -10.25689 -10.25471 -10.25385 -10.25355 -10.25292
 Alpha  occ. eigenvalues --  -10.25131 -10.25108 -10.25081 -10.24397 -10.24115
 Alpha  occ. eigenvalues --  -10.24036 -10.23764 -10.23683 -10.23643 -10.23238
 Alpha  occ. eigenvalues --  -10.23114 -10.22911 -10.22800  -3.13781  -1.86630
 Alpha  occ. eigenvalues --   -1.86148  -1.86012  -1.10676  -1.05951  -1.04349
 Alpha  occ. eigenvalues --   -1.02315  -0.98711  -0.97012  -0.96651  -0.95657
 Alpha  occ. eigenvalues --   -0.86383  -0.83459  -0.82676  -0.82222  -0.81264
 Alpha  occ. eigenvalues --   -0.81200  -0.80264  -0.78622  -0.77992  -0.76804
 Alpha  occ. eigenvalues --   -0.75354  -0.75018  -0.74178  -0.72497  -0.71313
 Alpha  occ. eigenvalues --   -0.70814  -0.70112  -0.69091  -0.66810  -0.65754
 Alpha  occ. eigenvalues --   -0.63334  -0.63262  -0.61997  -0.61536  -0.60066
 Alpha  occ. eigenvalues --   -0.59355  -0.59065  -0.58975  -0.55804  -0.54419
 Alpha  occ. eigenvalues --   -0.53817  -0.53311  -0.52622  -0.52409  -0.51799
 Alpha  occ. eigenvalues --   -0.50505  -0.50291  -0.49389  -0.48885  -0.48320
 Alpha  occ. eigenvalues --   -0.47749  -0.47653  -0.47230  -0.47173  -0.46784
 Alpha  occ. eigenvalues --   -0.46309  -0.46061  -0.45650  -0.45379  -0.45229
 Alpha  occ. eigenvalues --   -0.44868  -0.44257  -0.44120  -0.43995  -0.43269
 Alpha  occ. eigenvalues --   -0.42926  -0.42744  -0.42691  -0.42405  -0.41954
 Alpha  occ. eigenvalues --   -0.41470  -0.41171  -0.40916  -0.40854  -0.40295
 Alpha  occ. eigenvalues --   -0.39954  -0.39676  -0.39389  -0.39199  -0.38904
 Alpha  occ. eigenvalues --   -0.38696  -0.38475  -0.38184  -0.37956  -0.37547
 Alpha  occ. eigenvalues --   -0.37407  -0.37212  -0.36916  -0.36338  -0.36091
 Alpha  occ. eigenvalues --   -0.35446  -0.35205  -0.34924  -0.34613  -0.34370
 Alpha  occ. eigenvalues --   -0.33653  -0.32655  -0.32253  -0.31942  -0.31255
 Alpha  occ. eigenvalues --   -0.31004  -0.29320  -0.28988  -0.28720  -0.27142
 Alpha  occ. eigenvalues --   -0.26204  -0.25931  -0.25590  -0.24681  -0.20946
 Alpha  occ. eigenvalues --   -0.18888
 Alpha virt. eigenvalues --   -0.11095  -0.05334  -0.04134  -0.02359   0.00113
 Alpha virt. eigenvalues --    0.00222   0.01116   0.01467   0.03265   0.04227
 Alpha virt. eigenvalues --    0.04680   0.05667   0.06000   0.06717   0.06840

 Mulliken charges:
               1
     1  Mg  12.004925
     2  C    5.981352
     3  C    6.006997
     4  C    6.016357
     5  C    5.990026
     6  N    6.987429
     7  C    6.026899
     8  C    5.989124
     9  C    6.007891
    10  C    5.968543
    11  C    6.004822
    12  C    5.998633
    13  C    5.997378
    14  H    1.005803
    15  N    7.006735
    16  C    5.967667
    17  C    5.980125
    18  C    5.984130
    19  C    5.972167
    20  C    6.001506
    21  C    5.990679
    22  O    7.973814
    23  C    6.003094
    24  N    7.000850
    25  C    5.971688
    26  C    6.008387
    27  C    5.989826
    28  C    6.028411
    29  C    6.001904
    30  C    5.996034
    31  C    5.999583
    32  N    6.998344
    33  C    6.034263
    34  C    6.027524
    35  C    6.001275
    36  C    6.031260
    37  C    5.998265
    38  C    6.014636
    39  O    8.024294
    40  C    6.010243
    41  C    6.000318
    42  O    8.010678
    43  O    8.000180
    44  C    5.997873
    45  H    0.989408
    46  H    0.995286
    47  H    1.009506
    48  H    1.003368
    49  H    0.998684
    50  H    0.999912
    51  H    0.985803
    52  H    0.999126
    53  H    1.008233
    54  H    0.995162
    55  H    0.995147
    56  H    1.002062
    57  H    0.983863
    58  H    0.984685
    59  H    0.983249
    60  H    0.994528
    61  H    0.990791
    62  H    0.987649
    63  H    0.999763
    64  H    1.001946
    65  H    0.990575
    66  H    1.002108
    67  H    1.003295
    68  H    1.000685
    69  H    1.010052
    70  H    0.997298
    71  H    0.998382
    72  H    1.005196
    73  H    1.018484
    74  H    1.016607
    75  H    1.019643
    76  H    1.006433
    77  H    1.001095
    78  H    1.006146
    79  H    1.003902
 Sum of Mulliken charges = 312.00000

 Dipole moment (field-independent basis, Debye):
    X=             -6.6036    Y=              7.6206    Z=             -0.1714  Tot=             10.0852
 Quadrupole moment (field-independent basis, Debye-Ang):
   XX=             -7.4868   YY=             -0.2241   ZZ=              0.2635
   XY=              6.8521   XZ=             -0.8253   YZ=             -0.0278

 Normal termination of Gaussian 16 at Wed Oct 13 19:56:39 2021.
