 Gaussian 16, Revision A.03,
 Gaussian 16:  ES64L-G16RevA.03 25-Dec-2016

 ---------------------------------------------------------
 #p PBE1PBE/Def2SVP td=(nstates=5, root=1) density=current
 ---------------------------------------------------------

 --------------------------------
 TDDFT excited states in gaussian
 --------------------------------
 Symbolic Z-matrix:
 Charge =  0 Multiplicity = 1

                         Standard orientation:
 ---------------------------------------------------------------------
 Center     Atomic      Atomic             Coordinates (Angstroms)
 Number     Number       Type             X           Y           Z
 ---------------------------------------------------------------------
      1         12           0       -0.731818    0.085937   -0.367333
      2          6           0        2.749173    0.093407    0.158108
      3          6           0       -0.634029   -3.325703    0.299720
      4          6           0       -4.061446    0.021636   -0.399026
      5          6           0       -0.671232    3.543461   -0.075352
      6          7           0        0.913141   -1.371650    0.331882
      7          6           0        2.284700   -1.211542    0.364790
      8          6           0        3.088269   -2.494930    0.379776
      9          6           0        1.999454   -3.594132    0.401422
     10          6           0        0.675389   -2.762996    0.359082
     11          6           0        2.104472   -4.640306   -0.781392
     12          6           0        4.108782   -2.681552    1.589680
     13          6           0        3.745571   -2.049312    2.943178
     14          1           0        3.231451   -2.981576    4.079901
     15          7           0       -2.114360   -1.412712   -0.102145
     16          6           0       -1.884726   -2.743949    0.099854
     17          6           0       -3.156990   -3.479556    0.085552
     18          6           0       -4.183785   -2.508627   -0.123491
     19          6           0       -3.447683   -1.209940   -0.207909
     20          6           0       -3.259773   -4.991570    0.246862
     21          6           0       -5.689674   -2.966127   -0.090135
     22          8           0       -5.925807   -4.141754    0.151101
     23          6           0       -6.852657   -1.902593   -0.272920
     24          7           0       -2.127397    1.543921   -0.128545
     25          6           0       -3.483126    1.304468   -0.340923
     26          6           0       -4.317943    2.706193   -0.366954
     27          6           0       -3.118179    3.765778   -0.094792
     28          6           0       -1.908433    2.887809   -0.109574
     29          6           0       -5.070920    2.931482   -1.711136
     30          6           0       -3.230788    4.584753    1.261983
     31          6           0       -3.121728    6.116800    1.217883
     32          7           0        0.737050    1.587200   -0.148838
     33          6           0        0.647696    2.950540   -0.030631
     34          6           0        2.008445    3.495051    0.161256
     35          6           0        2.870289    2.366434    0.117960
     36          6           0        2.014278    1.238768   -0.024354
     37          6           0        2.403140    4.929658    0.377929
     38          6           0        4.284749    1.977383    0.272171
     39          8           0        5.334641    2.631838    0.351403
     40          6           0        4.251947    0.466281    0.098115
     41          6           0        4.947255    0.026417   -1.064327
     42          8           0        4.437964    0.096682   -2.212800
     43          8           0        6.210873   -0.506056   -0.740149
     44          6           0        6.982179   -1.149000   -1.799150
     45          1           0       -0.647670   -4.416913    0.329400
     46          1           0       -5.139318    0.025154   -0.571632
     47          1           0       -0.732813    4.633075   -0.052724
     48          1           0        3.633660   -2.441524   -0.561693
     49          1           0        2.022788   -4.006289    1.409577
     50          1           0        2.401732   -5.609978   -0.382147
     51          1           0        2.859312   -4.246089   -1.462296
     52          1           0        1.146762   -4.767112   -1.287275
     53          1           0        4.983359   -2.153170    1.208056
     54          1           0        4.350011   -3.739859    1.691762
     55          1           0        3.000749   -1.263632    2.812211
     56          1           0        4.617698   -1.507696    3.307053
     57          1           0       -3.591660   -5.324701    1.230236
     58          1           0       -2.372202   -5.488797   -0.144595
     59          1           0       -3.981410   -5.406243   -0.456757
     60          1           0       -6.591659   -1.297747   -1.141666
     61          1           0       -6.891359   -1.304635    0.637212
     62          1           0       -7.854108   -2.332325   -0.249984
     63          1           0       -5.106963    2.595074    0.376225
     64          1           0       -3.072680    4.421254   -0.964789
     65          1           0       -4.427558    3.539951   -2.346365
     66          1           0       -6.070522    3.343583   -1.572562
     67          1           0       -5.312430    2.013011   -2.245845
     68          1           0       -2.490639    4.161001    1.941501
     69          1           0       -4.239532    4.325434    1.583347
     70          1           0       -2.865403    6.537484    2.190601
     71          1           0       -4.126645    6.409676    0.914635
     72          1           0       -2.344109    6.305894    0.477550
     73          1           0        1.517374    5.381516    0.823592
     74          1           0        2.502421    5.297632   -0.643249
     75          1           0        3.349195    5.079536    0.898972
     76          1           0        4.747067    0.136218    1.011093
     77          1           0        7.324432   -0.521430   -2.622065
     78          1           0        6.410347   -1.972520   -2.227852
     79          1           0        7.785684   -1.694389   -1.303873
 ---------------------------------------------------------------------

 SCF Done:  E(RPBE1PBE) =  -2033.67995321     A.U. after   15 cycles

 Excitation energies and oscillator strengths:

 Excited State   1:      Singlet-A      1.8697 eV  663.14 nm  f=0.3673  <S**2>=0.000
     155 ->158         0.17512
     156 ->157         0.69212
     156 <-157        -0.10392
 This state for optimization and/or second-order correction.
 Total Energy, E(TD-HF/TD-DFT) =  -2033.61124475
 Copying the excited state density for this state as the 1-particle RhoCI density.

 Excited State   2:      Singlet-A      2.3114 eV  536.41 nm  f=0.0751  <S**2>=0.000
     155 ->157         0.63099
     156 ->158        -0.30786

 Excited State   3:      Singlet-A      3.1852 eV  389.25 nm  f=0.0225  <S**2>=0.000
     152 ->157         0.61666
     152 ->159        -0.20093
     153 ->157        -0.11776
     156 ->158        -0.18598

 Excited State   4:      Singlet-A      3.2078 eV  386.51 nm  f=0.0016  <S**2>=0.000
     152 ->157         0.10139
     153 ->157         0.25766
     154 ->157         0.62988

 Excited State   5:      Singlet-A      3.2439 eV  382.21 nm  f=0.0152  <S**2>=0.000
     151 ->157         0.10074
     153 ->157         0.59790
     154 ->157        -0.22535
     156 ->158        -0.21277

 The electronic state is 1-A.
 Alpha  occ. eigenvalues --  -46.92356 -19.26417 -19.20437 -19.19799 -19.19472
 Alpha  occ. eigenvalues --  -14.42063 -14.41727 -14.39533 -14.39022 -10.36977
 Alpha  occ. eigenvalues --  -10.33647 -10.32540 -10.29562 -10.29316 -10.29083
 Alpha  occ. eigenvalues --  -10.28462 -10.28443 -10.28443 -10.27970 -10.27452
 Alpha  occ. eigenvalues --  -10.27156 -10.26497 -10.26248 -10.26219 -10.26123
 Alpha  occ. eigenvalues --  -10.26102 -10.25937 -10.25910 -10.25485 -10.25380
 Alpha  occ. eigenvalues --  -10.25178 -10.25024 -10.24661 -10.24485 -10.24433
 Alpha  occ. eigenvalues --  -10.24419 -10.24269 -10.24262 -10.24067 -10.23538
 Alpha  occ. eigenvalues --  -10.23395 -10.23030 -10.22846  -3.14556  -1.87354
 Alpha  occ. eigenvalues --   -1.86948  -1.86783  -1.09683  -1.05119  -1.03822
 Alpha  occ. eigenvalues --   -1.01780  -0.98865  -0.98185  -0.97227  -0.96495
 Alpha  occ. eigenvalues --   -0.87528  -0.83491  -0.83098  -0.82344  -0.81136
 Alpha  occ. eigenvalues --   -0.80456  -0.79817  -0.78832  -0.78178  -0.77064
 Alpha  occ. eigenvalues --   -0.75867  -0.75241  -0.74429  -0.72528  -0.71510
 Alpha  occ. eigenvalues --   -0.71014  -0.70843  -0.69279  -0.66818  -0.66196
 Alpha  occ. eigenvalues --   -0.63653  -0.63345  -0.62842  -0.61242  -0.60207
 Alpha  occ. eigenvalues --   -0.59687  -0.59117  -0.58744  -0.57040  -0.54792
 Alpha  occ. eigenvalues --   -0.54145  -0.53621  -0.53230  -0.52352  -0.51781
 Alpha  occ. eigenvalues --   -0.50671  -0.50079  -0.49508  -0.48988  -0.48803
 Alpha  occ. eigenvalues --   -0.48398  -0.47613  -0.47186  -0.46956  -0.46682
 Alpha  occ. eigenvalues --   -0.46172  -0.45809  -0.45484  -0.45184  -0.44950
 Alpha  occ. eigenvalues --   -0.44561  -0.43953  -0.43933  -0.43848  -0.43550
 Alpha  occ. eigenvalues --   -0.43229  -0.42937  -0.42849  -0.42105  -0.41796
 Alpha  occ. eigenvalues --   -0.41358  -0.41144  -0.40993  -0.40947  -0.40568
 Alpha  occ. eigenvalues --   -0.40089  -0.39763  -0.39540  -0.39444  -0.39305
 Alpha  occ. eigenvalues --   -0.38938  -0.38709  -0.38046  -0.37821  -0.37774
 Alpha  occ. eigenvalues --   -0.37461  -0.37264  -0.37076  -0.36909  -0.36514
 Alpha  occ. eigenvalues --   -0.35975  -0.35538  -0.35247  -0.34798  -0.34662
 Alpha  occ. eigenvalues --   -0.33864  -0.32615  -0.32527  -0.32094  -0.32066
 Alpha  occ. eigenvalues --   -0.31611  -0.29993  -0.29079  -0.28866  -0.26906
 Alpha  occ. eigenvalues --   -0.26214  -0.25987  -0.25624  -0.25333  -0.21046
 Alpha  occ. eigenvalues --   -0.18494
 Alpha virt. eigenvalues --   -0.10752  -0.05284  -0.03984  -0.02401  -0.01178
 Alpha virt. eigenvalues --   -0.01039   0.00808   0.01098   0.03203   0.03815
 Alpha virt. eigenvalues --    0.04853   0.05308   0.05781   0.05984   0.06937

 Mulliken charges:
               1
     1  Mg   0.984649
     2  C   -0.123503
     3  C   -0.079796
     4  C   -0.097700
     5  C   -0.087329
     6  N   -0.389381
     7  C    0.014038
     8  C   -0.090827
     9  C   -0.087192
    10  C    0.055758
    11  C    0.015485
    12  C   -0.033489
    13  C   -0.136301
    14  H    0.044658
    15  N   -0.484226
    16  C    0.163041
    17  C   -0.170301
    18  C   -0.109029
    19  C    0.204411
    20  C    0.084037
    21  C    0.069485
    22  O   -0.234529
    23  C   -0.039282
    24  N   -0.460393
    25  C    0.100097
    26  C   -0.128027
    27  C   -0.101267
    28  C    0.103540
    29  C   -0.000319
    30  C   -0.038811
    31  C   -0.056821
    32  N   -0.447684
    33  C    0.138569
    34  C   -0.217096
    35  C   -0.094899
    36  C    0.293741
    37  C    0.081741
    38  C    0.154908
    39  O   -0.232953
    40  C   -0.099056
    41  C    0.341915
    42  O   -0.286178
    43  O   -0.385001
    44  C    0.138507
    45  H   -0.002723
    46  H   -0.022194
    47  H   -0.005443
    48  H    0.069976
    49  H    0.060531
    50  H    0.049706
    51  H    0.046840
    52  H    0.055539
    53  H    0.052380
    54  H    0.056638
    55  H    0.073302
    56  H    0.062311
    57  H    0.066256
    58  H    0.026038
    59  H    0.048120
    60  H    0.076784
    61  H    0.063889
    62  H    0.052257
    63  H    0.056292
    64  H    0.051583
    65  H    0.044195
    66  H    0.044607
    67  H    0.040862
    68  H    0.058506
    69  H    0.036877
    70  H    0.057527
    71  H    0.048706
    72  H    0.046773
    73  H    0.040906
    74  H    0.061699
    75  H    0.070885
    76  H    0.068507
    77  H    0.072185
    78  H    0.037713
    79  H    0.054786
 Sum of Mulliken charges =  -0.00000

 Dipole moment (field-independent basis, Debye):
    X=             -2.1465    Y=              0.2895    Z=             -0.7849  Tot=              2.3038
 Quadrupole moment (field-independent basis, Debye-Ang):
   XX=           -257.0463   YY=           -245.6390   ZZ=           -259.5686
   XY=            -52.7494   XZ=              1.4156   YZ=              3.8013

 Normal termination of Gaussian 16 at Wed Oct 13 14:32:29 2021.
