 Gaussian 16, Revision A.03,
 Gaussian 16:  ES64L-G16RevA.03 25-Dec-2016

 ---------------------------------------------------------
 #p PBE1PBE/Def2SVP td=(nstates=5, root=1) density=current
 ---------------------------------------------------------

 --------------------------------
 TDDFT excited states in gaussian
 --------------------------------
 Symbolic Z-matrix:
 Charge =  0 Multiplicity = 1

                         Standard orientation:
 ---------------------------------------------------------------------
 Center     Atomic      Atomic             Coordinates (Angstroms)
 Number     Number       Type             X           Y           Z
 ---------------------------------------------------------------------
      1         12           0       -0.637665   -0.025660   -0.217153
      2          6           0        2.830579    0.274591    0.452073
      3          6           0       -0.288682   -3.386037    0.120034
      4          6           0       -4.027445   -0.213348   -0.034004
      5          6           0       -0.872481    3.425637   -0.002310
      6          7           0        1.130167   -1.291105    0.399275
      7          6           0        2.465736   -1.015533    0.527333
      8          6           0        3.273505   -2.246493    0.709531
      9          6           0        2.270115   -3.409232    0.257949
     10          6           0        0.968266   -2.683381    0.269710
     11          6           0        2.646889   -3.989166   -1.095825
     12          6           0        3.761698   -2.260537    2.166615
     13          6           0        5.321298   -2.411309    2.417274
     14          1           0        5.889978   -3.541168    3.327618
     15          7           0       -2.021382   -1.543244   -0.036003
     16          6           0       -1.650840   -2.894681    0.000518
     17          6           0       -2.845227   -3.675961   -0.117766
     18          6           0       -3.979032   -2.795144   -0.134200
     19          6           0       -3.356071   -1.444443   -0.142479
     20          6           0       -2.777753   -5.194555   -0.216323
     21          6           0       -5.450786   -3.140201   -0.180367
     22          8           0       -5.673632   -4.376430   -0.330553
     23          6           0       -6.676126   -2.207754    0.036190
     24          7           0       -2.270440    1.410941   -0.049081
     25          6           0       -3.579760    1.077763   -0.024914
     26          6           0       -4.520173    2.304518    0.110770
     27          6           0       -3.493742    3.484910    0.006899
     28          6           0       -2.093930    2.708759    0.038672
     29          6           0       -5.556181    2.278987   -0.998724
     30          6           0       -3.565066    4.497405    1.108959
     31          6           0       -4.050368    5.849812    0.662414
     32          7           0        0.626431    1.549558   -0.036483
     33          6           0        0.448489    2.938609   -0.011141
     34          6           0        1.641677    3.612950   -0.098545
     35          6           0        2.616642    2.604454    0.042876
     36          6           0        1.947054    1.388093    0.154888
     37          6           0        1.751213    5.087921   -0.422293
     38          6           0        4.082910    2.356867    0.025660
     39          8           0        4.977471    3.131184   -0.118135
     40          6           0        4.187439    0.825556    0.381239
     41          6           0        5.284343    0.245784   -0.484963
     42          8           0        6.415245   -0.034692   -0.087671
     43          8           0        4.807676    0.024290   -1.799869
     44          6           0        5.792606   -0.651983   -2.643551
     45          1           0       -0.160245   -4.464563    0.004941
     46          1           0       -5.119114   -0.225470   -0.075963
     47          1           0       -0.884962    4.476735    0.291310
     48          1           0        4.141038   -2.211472    0.050425
     49          1           0        2.325699   -4.209614    0.995301
     50          1           0        3.018877   -3.241751   -1.795263
     51          1           0        1.741595   -4.375045   -1.565671
     52          1           0        3.336230   -4.831428   -1.037074
     53          1           0        3.249533   -3.082887    2.665933
     54          1           0        3.411640   -1.413682    2.756869
     55          1           0        5.525699   -1.452147    2.893722
     56          1           0        5.872559   -2.318067    1.482325
     57          1           0       -2.163048   -5.612365    0.580983
     58          1           0       -2.289870   -5.413043   -1.166160
     59          1           0       -3.708191   -5.749734   -0.089637
     60          1           0       -6.667044   -1.577929   -0.852811
     61          1           0       -6.507886   -1.618294    0.937559
     62          1           0       -7.607177   -2.761409    0.160366
     63          1           0       -5.074351    2.338532    1.048423
     64          1           0       -3.530011    3.921033   -0.991060
     65          1           0       -6.016612    1.290864   -0.997574
     66          1           0       -5.042376    2.447630   -1.945664
     67          1           0       -6.318344    3.056349   -1.037276
     68          1           0       -2.601476    4.706928    1.573395
     69          1           0       -4.178050    4.240248    1.972576
     70          1           0       -4.895195    6.125916    1.292188
     71          1           0       -4.454120    5.840812   -0.350012
     72          1           0       -3.280030    6.621669    0.655029
     73          1           0        2.779408    5.247160   -0.748782
     74          1           0        1.541872    5.718043    0.441799
     75          1           0        1.014744    5.252744   -1.208456
     76          1           0        4.643476    0.858261    1.371390
     77          1           0        5.295881   -1.219168   -3.430856
     78          1           0        6.312813   -1.436815   -2.096274
     79          1           0        6.540790    0.026029   -3.055105
 ---------------------------------------------------------------------

 SCF Done:  E(RPBE1PBE) =  -2033.68711246     A.U. after   16 cycles

 Excitation energies and oscillator strengths:

 Excited State   1:      Singlet-A      1.8485 eV  670.73 nm  f=0.3426  <S**2>=0.000
     155 ->158         0.16639
     156 ->157         0.69424
     156 <-157        -0.11258
 This state for optimization and/or second-order correction.
 Total Energy, E(TD-HF/TD-DFT) =  -2033.61918102
 Copying the excited state density for this state as the 1-particle RhoCI density.

 Excited State   2:      Singlet-A      2.2338 eV  555.04 nm  f=0.1562  <S**2>=0.000
     155 ->157         0.65764
     156 ->158        -0.24163

 Excited State   3:      Singlet-A      2.7897 eV  444.44 nm  f=0.0006  <S**2>=0.000
     152 ->157        -0.10582
     154 ->157         0.65413
     154 ->159         0.15908

 Excited State   4:      Singlet-A      2.9119 eV  425.78 nm  f=0.0022  <S**2>=0.000
     152 ->157         0.11475
     153 ->157         0.67681

 Excited State   5:      Singlet-A      2.9994 eV  413.36 nm  f=0.0111  <S**2>=0.000
     151 ->157        -0.31415
     152 ->157         0.59208
     153 ->157        -0.13087
     154 ->157         0.12692

 The electronic state is 1-A.
 Alpha  occ. eigenvalues --  -46.92426 -19.26301 -19.21276 -19.20111 -19.18533
 Alpha  occ. eigenvalues --  -14.41940 -14.41697 -14.39719 -14.38741 -10.37431
 Alpha  occ. eigenvalues --  -10.32847 -10.32690 -10.29697 -10.28923 -10.28913
 Alpha  occ. eigenvalues --  -10.28547 -10.28314 -10.28295 -10.28295 -10.26805
 Alpha  occ. eigenvalues --  -10.26663 -10.26342 -10.26199 -10.26196 -10.26139
 Alpha  occ. eigenvalues --  -10.26041 -10.26029 -10.25979 -10.25831 -10.25447
 Alpha  occ. eigenvalues --  -10.25314 -10.25053 -10.24684 -10.24656 -10.24636
 Alpha  occ. eigenvalues --  -10.24361 -10.24070 -10.23972 -10.23781 -10.23579
 Alpha  occ. eigenvalues --  -10.22914 -10.22817 -10.22632  -3.14569  -1.87389
 Alpha  occ. eigenvalues --   -1.86948  -1.86797  -1.10357  -1.06868  -1.02815
 Alpha  occ. eigenvalues --   -1.02326  -0.99894  -0.98964  -0.98008  -0.97419
 Alpha  occ. eigenvalues --   -0.87709  -0.84213  -0.83650  -0.83378  -0.82206
 Alpha  occ. eigenvalues --   -0.81430  -0.80253  -0.79116  -0.78631  -0.76951
 Alpha  occ. eigenvalues --   -0.76114  -0.75032  -0.74846  -0.72159  -0.71765
 Alpha  occ. eigenvalues --   -0.71201  -0.70816  -0.69884  -0.68005  -0.66689
 Alpha  occ. eigenvalues --   -0.63796  -0.63393  -0.62138  -0.61697  -0.60711
 Alpha  occ. eigenvalues --   -0.60170  -0.59959  -0.59518  -0.57700  -0.55094
 Alpha  occ. eigenvalues --   -0.54644  -0.54227  -0.53660  -0.52733  -0.51398
 Alpha  occ. eigenvalues --   -0.50849  -0.50356  -0.50228  -0.49448  -0.48996
 Alpha  occ. eigenvalues --   -0.48467  -0.48244  -0.47826  -0.47407  -0.46853
 Alpha  occ. eigenvalues --   -0.46532  -0.46217  -0.45748  -0.45538  -0.45166
 Alpha  occ. eigenvalues --   -0.44851  -0.44689  -0.44514  -0.44292  -0.43602
 Alpha  occ. eigenvalues --   -0.43315  -0.43016  -0.42665  -0.42436  -0.41903
 Alpha  occ. eigenvalues --   -0.41646  -0.41342  -0.41186  -0.40837  -0.40667
 Alpha  occ. eigenvalues --   -0.40493  -0.40224  -0.40096  -0.39960  -0.39694
 Alpha  occ. eigenvalues --   -0.38960  -0.38692  -0.38502  -0.38153  -0.37584
 Alpha  occ. eigenvalues --   -0.37335  -0.37279  -0.37229  -0.36918  -0.36580
 Alpha  occ. eigenvalues --   -0.36419  -0.36225  -0.36026  -0.35068  -0.34064
 Alpha  occ. eigenvalues --   -0.33776  -0.33213  -0.32783  -0.32403  -0.32213
 Alpha  occ. eigenvalues --   -0.31468  -0.30314  -0.29869  -0.28867  -0.27435
 Alpha  occ. eigenvalues --   -0.26174  -0.25684  -0.25500  -0.25113  -0.21392
 Alpha  occ. eigenvalues --   -0.19289
 Alpha virt. eigenvalues --   -0.11758  -0.05381  -0.03995  -0.02127  -0.00967
 Alpha virt. eigenvalues --   -0.00482   0.00706   0.01381   0.02868   0.03956
 Alpha virt. eigenvalues --    0.04349   0.05038   0.05627   0.06014   0.06718

 Mulliken charges:
               1
     1  Mg   0.969626
     2  C    0.035908
     3  C   -0.059569
     4  C   -0.053737
     5  C   -0.080924
     6  N   -0.400054
     7  C   -0.017956
     8  C   -0.081072
     9  C   -0.112648
    10  C    0.088935
    11  C    0.022705
    12  C   -0.002615
    13  C   -0.135449
    14  H    0.054973
    15  N   -0.506653
    16  C    0.160034
    17  C   -0.159606
    18  C   -0.069688
    19  C    0.194994
    20  C    0.059656
    21  C    0.024223
    22  O   -0.285140
    23  C    0.005698
    24  N   -0.351942
    25  C    0.034198
    26  C   -0.075203
    27  C   -0.094352
    28  C    0.082220
    29  C   -0.002418
    30  C   -0.015191
    31  C   -0.077415
    32  N   -0.498788
    33  C    0.118789
    34  C   -0.193296
    35  C   -0.079364
    36  C    0.162639
    37  C    0.076041
    38  C    0.133298
    39  O   -0.173511
    40  C   -0.092660
    41  C    0.266148
    42  O   -0.248181
    43  O   -0.389904
    44  C    0.124694
    45  H    0.011969
    46  H   -0.038531
    47  H    0.014881
    48  H    0.057231
    49  H    0.048626
    50  H    0.044890
    51  H    0.033428
    52  H    0.052631
    53  H    0.039782
    54  H    0.056904
    55  H    0.057659
    56  H    0.062521
    57  H    0.038451
    58  H    0.050680
    59  H    0.067459
    60  H    0.067648
    61  H    0.067195
    62  H    0.062277
    63  H    0.056416
    64  H    0.058482
    65  H    0.043871
    66  H    0.032202
    67  H    0.045528
    68  H    0.041509
    69  H    0.035155
    70  H    0.037689
    71  H    0.029183
    72  H    0.046361
    73  H    0.066578
    74  H    0.056127
    75  H    0.051382
    76  H    0.079729
    77  H    0.050178
    78  H    0.048722
    79  H    0.067740
 Sum of Mulliken charges =  -0.00000

 Dipole moment (field-independent basis, Debye):
    X=             -3.3994    Y=              1.1164    Z=             -1.2449  Tot=              3.7884
 Quadrupole moment (field-independent basis, Debye-Ang):
   XX=           -282.8736   YY=           -255.2516   ZZ=           -249.7289
   XY=            -50.3895   XZ=            -10.1331   YZ=              2.3024

 Normal termination of Gaussian 16 at Wed Oct 13 14:50:55 2021.
