 Gaussian 16, Revision A.03,
 Gaussian 16:  ES64L-G16RevA.03 25-Dec-2016

 --------------------------------------------------------
 #p PBE1PBE/Def2SVP td=(nstates=5) density=(transition=1)
 --------------------------------------------------------

 --------------------------------
 TDDFT excited states in gaussian
 --------------------------------
 Symbolic Z-matrix:
 Charge =  0 Multiplicity = 1

                         Standard orientation:
 ---------------------------------------------------------------------
 Center     Atomic      Atomic             Coordinates (Angstroms)
 Number     Number       Type             X           Y           Z
 ---------------------------------------------------------------------
      1         12           0        4.929361    0.609668    0.011839
      2          6           0        2.894585   -2.228336    0.821174
      3          6           0        7.442697   -1.419925   -0.575937
      4          6           0        6.812424    3.335526    0.102405
      5          6           0        2.067635    2.649980    1.096453
      6          7           0        5.113837   -1.580929    0.071344
      7          6           0        4.186657   -2.570022    0.455505
      8          6           0        4.757177   -4.037011    0.387792
      9          6           0        6.270466   -3.670831   -0.157641
     10          6           0        6.316868   -2.149139   -0.254084
     11          6           0        7.407731   -4.206664    0.813939
     12          6           0        3.941087   -5.047875   -0.490905
     13          6           0        4.678186   -6.318779   -0.896049
     14          1           0        4.113889   -7.612796   -0.281500
     15          7           0        6.856260    0.917485   -0.307134
     16          6           0        7.820488   -0.026251   -0.572731
     17          6           0        9.121245    0.564454   -0.807126
     18          6           0        8.897270    1.984612   -0.610629
     19          6           0        7.425706    2.125421   -0.321364
     20          6           0       10.334193   -0.128545   -1.218084
     21          6           0        9.865674    3.149719   -0.718321
     22          8           0        9.541285    4.301984   -0.649214
     23          6           0       11.314172    2.755438   -0.833835
     24          7           0        4.514264    2.698499    0.590291
     25          6           0        5.500411    3.625367    0.492661
     26          6           0        4.959689    5.046831    0.802777
     27          6           0        3.422671    4.789678    0.978796
     28          6           0        3.298445    3.285313    0.832362
     29          6           0        5.578456    5.825908    2.013051
     30          6           0        2.478011    5.520233   -0.039599
     31          6           0        2.272512    7.017154    0.281650
     32          7           0        2.929188    0.356953    0.809469
     33          6           0        1.908174    1.228682    1.110510
     34          6           0        0.750196    0.488465    1.420263
     35          6           0        1.056335   -0.820249    1.387275
     36          6           0        2.434899   -0.900469    1.024058
     37          6           0       -0.586656    1.178024    1.659579
     38          6           0        0.640044   -2.209360    1.604870
     39          8           0       -0.415834   -2.663207    1.963702
     40          6           0        1.870679   -3.174356    1.253828
     41          6           0        2.330721   -3.789768    2.536792
     42          8           0        3.111855   -3.409410    3.379521
     43          8           0        1.687027   -5.010255    2.588715
     44          6           0        1.969333   -5.871104    3.761953
     45          1           0        8.347883   -2.007860   -0.740828
     46          1           0        7.508802    4.162331    0.261623
     47          1           0        1.289219    3.393773    1.281732
     48          1           0        4.882627   -4.389671    1.411641
     49          1           0        6.411535   -4.175039   -1.113947
     50          1           0        8.199940   -4.666096    0.223017
     51          1           0        7.137333   -4.884412    1.623217
     52          1           0        7.926957   -3.371287    1.282669
     53          1           0        3.659628   -4.390165   -1.314311
     54          1           0        2.964901   -5.375999   -0.133166
     55          1           0        5.722295   -6.234620   -0.595947
     56          1           0        4.523054   -6.485432   -1.961646
     57          1           0       10.458615    0.308855   -2.208665
     58          1           0       10.193177   -1.209428   -1.206122
     59          1           0       11.249448    0.066160   -0.659437
     60          1           0       11.592652    2.712756   -1.886711
     61          1           0       11.621887    2.002161   -0.108007
     62          1           0       11.821828    3.535724   -0.267488
     63          1           0        4.981199    5.569435   -0.153994
     64          1           0        3.152194    4.964460    2.020375
     65          1           0        4.885761    6.125504    2.800043
     66          1           0        5.893423    6.784674    1.601752
     67          1           0        6.399254    5.321758    2.523162
     68          1           0        1.493700    5.054007   -0.014879
     69          1           0        2.928882    5.340398   -1.016539
     70          1           0        2.492991    7.214991    1.330805
     71          1           0        1.241809    7.240369    0.006357
     72          1           0        2.943990    7.686120   -0.257421
     73          1           0       -1.419664    0.517715    1.418098
     74          1           0       -0.615854    2.097476    1.074806
     75          1           0       -0.648278    1.539708    2.686215
     76          1           0        1.596848   -3.923478    0.510526
     77          1           0        1.012255   -6.317739    4.031143
     78          1           0        2.380981   -5.340019    4.620076
     79          1           0        2.660533   -6.575588    3.298263
     80         12           0       -4.973895    0.468690   -0.329995
     81          6           0       -2.859347   -2.061954   -1.164039
     82          6           0       -7.491531   -1.774212    0.353955
     83          6           0       -7.017046    3.094921    0.293871
     84          6           0       -2.531430    2.741986   -1.495434
     85          7           0       -5.215492   -1.679571   -0.614226
     86          6           0       -4.126061   -2.492683   -0.646452
     87          6           0       -4.430235   -3.907268   -0.285974
     88          6           0       -6.024554   -3.786497   -0.052337
     89          6           0       -6.289113   -2.317452   -0.101897
     90          6           0       -6.870317   -4.577391   -1.150155
     91          6           0       -3.649811   -4.276080    1.060785
     92          6           0       -3.378413   -5.757604    1.331051
     93          1           0       -4.060795   -6.924233    0.574194
     94          7           0       -6.943071    0.688372    0.339693
     95          6           0       -7.827942   -0.383509    0.541094
     96          6           0       -9.091869    0.183891    0.950051
     97          6           0       -8.959895    1.587344    0.966243
     98          6           0       -7.578036    1.817267    0.567718
     99          6           0      -10.284946   -0.719470    1.340333
    100          6           0      -10.112314    2.684315    1.258142
    101          8           0       -9.868782    3.890594    1.388711
    102          6           0      -11.584250    2.351017    1.437173
    103          7           0       -4.739675    2.661774   -0.518429
    104          6           0       -5.771964    3.486737   -0.221105
    105          6           0       -5.500443    4.913655   -0.694723
    106          6           0       -3.889845    4.863469   -0.977449
    107          6           0       -3.625239    3.351403   -0.904928
    108          6           0       -6.433889    5.453910   -1.872611
    109          6           0       -2.942113    5.524822    0.146820
    110          6           0       -1.854262    6.500829   -0.262007
    111          7           0       -3.042063    0.443994   -1.123883
    112          6           0       -2.192551    1.393465   -1.553594
    113          6           0       -0.891316    0.768270   -1.947967
    114          6           0       -1.140433   -0.608796   -1.737976
    115          6           0       -2.500824   -0.724552   -1.361291
    116          6           0        0.387891    1.377898   -2.401330
    117          6           0       -0.486275   -1.858583   -1.847313
    118          8           0        0.677964   -2.131405   -2.205209
    119          6           0       -1.573412   -2.866718   -1.483567
    120          6           0       -1.792293   -3.743520   -2.611170
    121          8           0       -2.068020   -3.500791   -3.744387
    122          8           0       -1.735697   -5.040391   -2.109403
    123          6           0       -1.979844   -6.254038   -2.979363
    124          1           0       -8.252615   -2.417408    0.799732
    125          1           0       -7.711075    3.931150    0.404274
    126          1           0       -1.816462    3.357296   -2.044491
    127          1           0       -4.224192   -4.728709   -0.971897
    128          1           0       -6.312318   -4.174629    0.924704
    129          1           0       -7.784117   -5.053185   -0.794972
    130          1           0       -6.208611   -5.255598   -1.688715
    131          1           0       -7.196618   -3.833007   -1.877192
    132          1           0       -4.162643   -3.885093    1.939769
    133          1           0       -2.695886   -3.753397    0.986122
    134          1           0       -3.558669   -5.896317    2.397809
    135          1           0       -2.308618   -5.936471    1.230071
    136          1           0      -10.062626   -1.786408    1.328387
    137          1           0      -11.094452   -0.477615    0.652429
    138          1           0      -10.606362   -0.409834    2.335045
    139          1           0      -11.627436    1.818080    2.386302
    140          1           0      -11.915898    1.552903    0.772699
    141          1           0      -12.200125    3.228569    1.241510
    142          1           0       -5.648565    5.577079    0.158187
    143          1           0       -3.647199    5.327740   -1.933515
    144          1           0       -5.844425    5.753278   -2.739543
    145          1           0       -7.037891    6.288430   -1.518269
    146          1           0       -7.084024    4.660457   -2.241973
    147          1           0       -2.496537    4.771057    0.795809
    148          1           0       -3.609681    6.050131    0.829165
    149          1           0       -0.917991    6.096062    0.120679
    150          1           0       -2.033457    7.513698    0.097597
    151          1           0       -1.751274    6.500955   -1.348034
    152          1           0        0.406926    2.467540   -2.389145
    153          1           0        0.617604    1.082879   -3.425522
    154          1           0        1.186466    1.018500   -1.752632
    155          1           0       -1.302725   -3.469758   -0.616376
    156          1           0       -2.248120   -5.948199   -3.990827
    157          1           0       -2.831965   -6.814838   -2.592992
    158          1           0       -1.045564   -6.815101   -2.960443
 ---------------------------------------------------------------------

 SCF Done:  E(RPBE1PBE) =  -4067.39446801     A.U. after   16 cycles

 Excitation energies and oscillator strengths:

 Excited State   1:      Singlet-A      1.6737 eV  740.76 nm  f=0.0270  <S**2>=0.000
     312 -> 313       -0.47681
     312 -> 314        0.51077
 This state for optimization and/or second-order correction.
 Total Energy, E(TD-HF/TD-DFT) =  -4067.33295917
 Copying the excited state density for this state as the 1-particle RhoCI density.

 Excited State   2:      Singlet-A      1.6879 eV  734.53 nm  f=0.0173  <S**2>=0.000
     311 -> 313        0.62663
     311 -> 314        0.28428
     312 -> 314       -0.13535

 Excited State   3:      Singlet-A      1.8235 eV  679.94 nm  f=0.8268  <S**2>=0.000
     310 -> 316        0.11625
     311 -> 314        0.41332
     312 -> 313        0.44329
     312 -> 314        0.33703

 Excited State   4:      Singlet-A      1.8991 eV  652.85 nm  f=0.0523  <S**2>=0.000
     309 -> 315        0.15566
     311 -> 313       -0.31095
     311 -> 314        0.47132
     312 -> 313       -0.23821
     312 -> 314       -0.31489

 Excited State   5:      Singlet-A      2.1670 eV  572.14 nm  f=0.0119  <S**2>=0.000
     309 -> 313        0.12381
     310 -> 313        0.65452
     310 -> 314       -0.12098
     312 -> 316       -0.13464

 The electronic state is 1-A.
 Alpha  occ. eigenvalues --  -46.92436 -46.91735 -19.24512 -19.24043 -19.20022
 Alpha  occ. eigenvalues --  -19.19706 -19.19431 -19.19261 -19.19013 -19.18920
 Alpha  occ. eigenvalues --  -14.41612 -14.41423 -14.40876 -14.40680 -14.39060
 Alpha  occ. eigenvalues --  -14.38920 -14.38664 -14.38342 -10.35865 -10.35254
 Alpha  occ. eigenvalues --  -10.33260 -10.32644 -10.31736 -10.31343 -10.28966
 Alpha  occ. eigenvalues --  -10.28886 -10.28476 -10.28353 -10.28350 -10.28128
 Alpha  occ. eigenvalues --  -10.28060 -10.27951 -10.27757 -10.27749 -10.27701
 Alpha  occ. eigenvalues --  -10.27638 -10.27404 -10.27326 -10.27210 -10.26614
 Alpha  occ. eigenvalues --  -10.26443 -10.26400 -10.26297 -10.26262 -10.26102
 Alpha  occ. eigenvalues --  -10.26080 -10.25985 -10.25960 -10.25718 -10.25713
 Alpha  occ. eigenvalues --  -10.25648 -10.25461 -10.25415 -10.25387 -10.25130
 Alpha  occ. eigenvalues --  -10.25103 -10.25065 -10.24992 -10.24736 -10.24635
 Alpha  occ. eigenvalues --  -10.24634 -10.24433 -10.24422 -10.24406 -10.24264
 Alpha  occ. eigenvalues --  -10.24250 -10.24246 -10.24206 -10.24121 -10.23909
 Alpha  occ. eigenvalues --  -10.23801 -10.23743 -10.23711 -10.23474 -10.23394
 Alpha  occ. eigenvalues --  -10.23308 -10.23281 -10.23253 -10.23231 -10.23153
 Alpha  occ. eigenvalues --  -10.23069 -10.23020 -10.22878 -10.22779 -10.22249
 Alpha  occ. eigenvalues --  -10.22075  -3.14435  -3.13862  -1.87295  -1.86791
 Alpha  occ. eigenvalues --   -1.86697  -1.86669  -1.86216  -1.86111  -1.10384
 Alpha  occ. eigenvalues --   -1.10026  -1.05974  -1.05922  -1.04090  -1.02854
 Alpha  occ. eigenvalues --   -1.02226  -1.01704  -0.99883  -0.98698  -0.98269
 Alpha  occ. eigenvalues --   -0.97994  -0.97795  -0.97032  -0.96944  -0.95918
 Alpha  occ. eigenvalues --   -0.87414  -0.87125  -0.83099  -0.82678  -0.82409
 Alpha  occ. eigenvalues --   -0.81871  -0.81774  -0.81531  -0.81286  -0.81163
 Alpha  occ. eigenvalues --   -0.81023  -0.80964  -0.80246  -0.80129  -0.78275
 Alpha  occ. eigenvalues --   -0.77952  -0.77490  -0.77360  -0.76328  -0.76277
 Alpha  occ. eigenvalues --   -0.76004  -0.75456  -0.75087  -0.74858  -0.74333
 Alpha  occ. eigenvalues --   -0.74254  -0.72477  -0.72247  -0.71587  -0.71206
 Alpha  occ. eigenvalues --   -0.70952  -0.70658  -0.70173  -0.69668  -0.69256
 Alpha  occ. eigenvalues --   -0.69020  -0.66997  -0.66700  -0.66128  -0.65540
 Alpha  occ. eigenvalues --   -0.63737  -0.63427  -0.63023  -0.62899  -0.62081
 Alpha  occ. eigenvalues --   -0.61982  -0.61225  -0.60096  -0.59600  -0.59382
 Alpha  occ. eigenvalues --   -0.59058  -0.59006  -0.58721  -0.58495  -0.58320
 Alpha  occ. eigenvalues --   -0.58231  -0.56046  -0.55918  -0.54776  -0.54473
 Alpha  occ. eigenvalues --   -0.54068  -0.53916  -0.53386  -0.53111  -0.53062
 Alpha  occ. eigenvalues --   -0.52667  -0.52447  -0.52323  -0.52001  -0.51414
 Alpha  occ. eigenvalues --   -0.50491  -0.50375  -0.50051  -0.49820  -0.49466
 Alpha  occ. eigenvalues --   -0.49388  -0.48965  -0.48666  -0.48399  -0.48368
 Alpha  occ. eigenvalues --   -0.48125  -0.47780  -0.47444  -0.47360  -0.47213
 Alpha  occ. eigenvalues --   -0.46899  -0.46764  -0.46537  -0.46404  -0.46371
 Alpha  occ. eigenvalues --   -0.46187  -0.46155  -0.46019  -0.45740  -0.45499
 Alpha  occ. eigenvalues --   -0.45334  -0.45090  -0.44908  -0.44856  -0.44726
 Alpha  occ. eigenvalues --   -0.44554  -0.44209  -0.44130  -0.43916  -0.43867
 Alpha  occ. eigenvalues --   -0.43766  -0.43504  -0.43457  -0.43284  -0.43017
 Alpha  occ. eigenvalues --   -0.42833  -0.42708  -0.42523  -0.42477  -0.42312
 Alpha  occ. eigenvalues --   -0.42257  -0.42219  -0.42018  -0.41745  -0.41616
 Alpha  occ. eigenvalues --   -0.41502  -0.41261  -0.40940  -0.40889  -0.40813
 Alpha  occ. eigenvalues --   -0.40682  -0.40509  -0.40339  -0.40251  -0.40139
 Alpha  occ. eigenvalues --   -0.40114  -0.39852  -0.39706  -0.39636  -0.39593
 Alpha  occ. eigenvalues --   -0.39420  -0.39351  -0.39107  -0.38972  -0.38717
 Alpha  occ. eigenvalues --   -0.38636  -0.38531  -0.38453  -0.38426  -0.38147
 Alpha  occ. eigenvalues --   -0.38119  -0.37893  -0.37779  -0.37476  -0.37243
 Alpha  occ. eigenvalues --   -0.36866  -0.36771  -0.36739  -0.36495  -0.36340
 Alpha  occ. eigenvalues --   -0.36194  -0.36060  -0.35926  -0.35832  -0.35757
 Alpha  occ. eigenvalues --   -0.35596  -0.35561  -0.35430  -0.35189  -0.35138
 Alpha  occ. eigenvalues --   -0.34927  -0.34624  -0.34270  -0.33634  -0.33446
 Alpha  occ. eigenvalues --   -0.33273  -0.33020  -0.32587  -0.32460  -0.31912
 Alpha  occ. eigenvalues --   -0.31807  -0.31297  -0.31235  -0.31180  -0.31053
 Alpha  occ. eigenvalues --   -0.30740  -0.30483  -0.29339  -0.29161  -0.29022
 Alpha  occ. eigenvalues --   -0.28949  -0.28370  -0.28044  -0.26701  -0.26467
 Alpha  occ. eigenvalues --   -0.25921  -0.25767  -0.25752  -0.25610  -0.25570
 Alpha  occ. eigenvalues --   -0.25399  -0.25295  -0.25053  -0.20476  -0.20302
 Alpha  occ. eigenvalues --   -0.18456  -0.18390
 Alpha virt. eigenvalues --   -0.10864  -0.10648  -0.04852  -0.04515  -0.04090
 Alpha virt. eigenvalues --   -0.03167  -0.01917  -0.01650   0.00108   0.00370
 Alpha virt. eigenvalues --    0.01096   0.01329   0.01536   0.01871   0.01903

 Mulliken charges:
               1
     1  Mg  12.000207
     2  C    6.001464
     3  C    5.998551
     4  C    5.998523
     5  C    6.001542
     6  N    7.000377
     7  C    5.999076
     8  C    6.001666
     9  C    5.997692
    10  C    6.005570
    11  C    5.999766
    12  C    6.000650
    13  C    5.999320
    14  H    1.000972
    15  N    6.999382
    16  C    6.006444
    17  C    6.002363
    18  C    6.003197
    19  C    6.004189
    20  C    5.999275
    21  C    6.002419
    22  O    8.004727
    23  C    5.998555
    24  N    7.000024
    25  C    6.005068
    26  C    5.998154
    27  C    6.001082
    28  C    5.996002
    29  C    5.999699
    30  C    6.001194
    31  C    5.999597
    32  N    6.999154
    33  C    5.996541
    34  C    5.993749
    35  C    5.999060
    36  C    5.997370
    37  C    6.001032
    38  C    5.996417
    39  O    7.995520
    40  C    5.999654
    41  C    5.999995
    42  O    7.998500
    43  O    8.000032
    44  C    6.000219
    45  H    1.001857
    46  H    1.001315
    47  H    0.999393
    48  H    1.000316
    49  H    1.001419
    50  H    1.000536
    51  H    1.002209
    52  H    0.999382
    53  H    0.999703
    54  H    1.001439
    55  H    0.998967
    56  H    1.000106
    57  H    1.002787
    58  H    1.002760
    59  H    1.003147
    60  H    1.001899
    61  H    1.001180
    62  H    1.002521
    63  H    1.000453
    64  H    1.000726
    65  H    1.001776
    66  H    1.000540
    67  H    0.999504
    68  H    1.000747
    69  H    0.998799
    70  H    0.999782
    71  H    1.000495
    72  H    0.999246
    73  H    0.997757
    74  H    0.996538
    75  H    0.996490
    76  H    0.998814
    77  H    1.000067
    78  H    0.999636
    79  H    0.999023
    80  Mg  12.000014
    81  C    5.998845
    82  C    5.999480
    83  C    6.001237
    84  C    6.000188
    85  N    6.999297
    86  C    6.002103
    87  C    5.998926
    88  C    6.000964
    89  C    5.998443
    90  C    6.000236
    91  C    5.999797
    92  C    6.000373
    93  H    0.999121
    94  N    7.000406
    95  C    5.997575
    96  C    5.998962
    97  C    5.998732
    98  C    5.998144
    99  C    6.000093
   100  C    5.999072
   101  O    7.997999
   102  C    6.000103
   103  N    7.000808
   104  C    5.997703
   105  C    6.000745
   106  C    5.999279
   107  C    6.001500
   108  C    6.000148
   109  C    5.999670
   110  C    5.999904
   111  N    6.999849
   112  C    6.002317
   113  C    6.001816
   114  C    6.001255
   115  C    6.001012
   116  C    6.000451
   117  C    6.000924
   118  O    7.998436
   119  C    6.000437
   120  C    5.999927
   121  O    7.999447
   122  O    8.000196
   123  C    6.000137
   124  H    0.998704
   125  H    0.999316
   126  H    1.000074
   127  H    0.999685
   128  H    0.999438
   129  H    0.999418
   130  H    0.998766
   131  H    0.999710
   132  H    1.000341
   133  H    1.000490
   134  H    0.999806
   135  H    0.999725
   136  H    0.998906
   137  H    0.998652
   138  H    0.998674
   139  H    0.999437
   140  H    0.999507
   141  H    0.998808
   142  H    0.999661
   143  H    0.999617
   144  H    0.999001
   145  H    0.999594
   146  H    1.000143
   147  H    1.000783
   148  H    1.000292
   149  H    0.999991
   150  H    0.999728
   151  H    0.999599
   152  H    0.999643
   153  H    0.998993
   154  H    1.002179
   155  H    1.000643
   156  H    0.999710
   157  H    1.000117
   158  H    0.999452
 Sum of Mulliken charges = 624.00000

 Dipole moment (field-independent basis, Debye):
    X=              2.8638    Y=              0.3062    Z=             -0.4550  Tot=              2.9159
 Quadrupole moment (field-independent basis, Debye-Ang):
   XX=              9.7343   YY=             -0.0054   ZZ=             -0.5087
   XY=              2.8623   XZ=             -0.6396   YZ=             -0.0596

 Normal termination of Gaussian 16 at Thu Oct 14 13:01:41 2021.
