 Gaussian 16, Revision A.03,
 Gaussian 16:  ES64L-G16RevA.03 25-Dec-2016

 --------------------------------------------------------
 #p PBE1PBE/Def2SVP td=(nstates=5) density=(transition=1)
 --------------------------------------------------------

 --------------------------------
 TDDFT excited states in gaussian
 --------------------------------
 Symbolic Z-matrix:
 Charge =  0 Multiplicity = 1

                         Standard orientation:
 ---------------------------------------------------------------------
 Center     Atomic      Atomic             Coordinates (Angstroms)
 Number     Number       Type             X           Y           Z
 ---------------------------------------------------------------------
      1         12           0       16.719797   -0.550519    0.407612
      2          6           0       15.522347    2.325435   -1.142939
      3          6           0       18.268623    1.329216    2.735521
      4          6           0       18.194563   -3.364133    1.562653
      5          6           0       15.522660   -2.360675   -2.271939
      6          7           0       16.872888    1.637945    0.721530
      7          6           0       16.128001    2.596859    0.083423
      8          6           0       16.337877    3.919544    0.716800
      9          6           0       17.249099    3.683068    1.926807
     10          6           0       17.503278    2.115868    1.854554
     11          6           0       18.515410    4.513255    2.068783
     12          6           0       14.918059    4.638279    1.082367
     13          6           0       14.595963    5.985083    0.393430
     14          1           0       13.928469    7.103770    1.154936
     15          7           0       17.945074   -0.980511    2.001362
     16          6           0       18.509642   -0.052799    2.863832
     17          6           0       19.354135   -0.716476    3.789145
     18          6           0       19.357698   -2.100930    3.467781
     19          6           0       18.458642   -2.201088    2.313530
     20          6           0       19.971067    0.122991    4.975371
     21          6           0       20.203811   -3.165698    4.163649
     22          8           0       20.267638   -4.359981    3.834976
     23          6           0       20.959076   -2.816147    5.369847
     24          7           0       17.079775   -2.564525   -0.349985
     25          6           0       17.600770   -3.556837    0.341628
     26          6           0       17.638604   -4.855325   -0.495405
     27          6           0       16.380470   -4.554631   -1.401777
     28          6           0       16.286045   -3.033835   -1.330239
     29          6           0       18.890118   -5.203068   -1.383692
     30          6           0       14.999532   -5.255704   -0.985924
     31          6           0       14.447807   -4.967828    0.350038
     32          7           0       15.726081   -0.176057   -1.459959
     33          6           0       15.276058   -1.045160   -2.473138
     34          6           0       14.638242   -0.284404   -3.499888
     35          6           0       14.756198    1.026379   -3.082560
     36          6           0       15.337163    1.027954   -1.772185
     37          6           0       14.243865   -0.765382   -4.809780
     38          6           0       14.316808    2.315733   -3.343179
     39          8           0       13.682229    2.792457   -4.289795
     40          6           0       14.856832    3.260742   -2.175147
     41          6           0       15.906271    4.113060   -2.808620
     42          8           0       16.940488    3.833107   -3.377621
     43          8           0       15.467235    5.364515   -2.663106
     44          6           0       16.364410    6.442124   -3.194828
     45          1           0       18.526597    2.015603    3.544672
     46          1           0       18.562587   -4.263029    2.060242
     47          1           0       15.091945   -2.955081   -3.080146
     48          1           0       16.850947    4.510547   -0.040852
     49          1           0       16.671843    3.838302    2.838010
     50          1           0       19.181577    3.792349    1.596312
     51          1           0       18.771811    4.816563    3.084007
     52          1           0       18.612633    5.449568    1.519942
     53          1           0       14.858506    4.761372    2.163351
     54          1           0       14.044688    4.066446    0.767782
     55          1           0       13.865764    5.755489   -0.383123
     56          1           0       15.450804    6.379252   -0.154487
     57          1           0       21.047869   -0.044332    4.990985
     58          1           0       19.510481   -0.443202    5.785022
     59          1           0       19.883312    1.209014    4.942939
     60          1           0       21.651811   -1.998654    5.174900
     61          1           0       21.669548   -3.629875    5.513434
     62          1           0       20.361014   -2.681495    6.271485
     63          1           0       17.289875   -5.674580    0.133490
     64          1           0       16.668912   -4.951500   -2.374829
     65          1           0       19.345605   -4.364419   -1.908915
     66          1           0       18.486599   -5.951487   -2.066654
     67          1           0       19.681046   -5.646908   -0.778513
     68          1           0       15.046516   -6.344823   -1.003673
     69          1           0       14.164687   -4.850394   -1.557567
     70          1           0       13.950325   -4.009403    0.208366
     71          1           0       15.128133   -4.843177    1.193036
     72          1           0       13.682383   -5.631803    0.750395
     73          1           0       15.171814   -0.734464   -5.382038
     74          1           0       13.490744   -0.167434   -5.322161
     75          1           0       13.763955   -1.744374   -4.786105
     76          1           0       14.067620    3.814339   -1.666335
     77          1           0       16.799398    6.893087   -2.302628
     78          1           0       15.782777    7.140358   -3.796295
     79          1           0       17.215215    6.132236   -3.802276
     80         12           0      -16.279804   -0.846010    0.119308
     81          6           0      -18.613579    1.660660    1.170463
     82          6           0      -14.047489    1.814238   -0.499898
     83          6           0      -14.312950   -2.879527   -1.523999
     84          6           0      -18.717860   -3.192295    0.455907
     85          7           0      -16.343607    1.452784    0.374054
     86          6           0      -17.372041    2.148060    0.916466
     87          6           0      -16.929255    3.587201    1.122989
     88          6           0      -15.458390    3.711898    0.634966
     89          6           0      -15.238849    2.259115    0.170848
     90          6           0      -15.243501    4.850691   -0.513517
     91          6           0      -17.031974    4.050616    2.639077
     92          6           0      -17.709489    5.396538    2.898718
     93          1           0      -17.585450    6.584771    1.862591
     94          7           0      -14.440486   -0.554673   -0.930337
     95          6           0      -13.729898    0.549273   -1.023781
     96          6           0      -12.562340    0.242959   -1.801230
     97          6           0      -12.481644   -1.155456   -2.021553
     98          6           0      -13.768022   -1.574484   -1.529841
     99          6           0      -11.438756    1.251293   -2.035720
    100          6           0      -11.392847   -2.091967   -2.521407
    101          8           0      -11.572531   -3.283152   -2.696934
    102          6           0      -10.037657   -1.475732   -2.735081
    103          7           0      -16.651422   -2.662171   -0.752670
    104          6           0      -15.568178   -3.407934   -1.221197
    105          6           0      -15.872323   -4.927530   -1.320319
    106          6           0      -17.228121   -4.964049   -0.519174
    107          6           0      -17.572330   -3.501309   -0.238751
    108          6           0      -15.945797   -5.376413   -2.786971
    109          6           0      -17.116319   -5.706718    0.895471
    110          6           0      -17.710563   -7.068316    1.033052
    111          7           0      -18.185307   -0.834751    0.784338
    112          6           0      -19.076147   -1.885200    0.832339
    113          6           0      -20.419391   -1.471128    1.229192
    114          6           0      -20.291931   -0.044802    1.385797
    115          6           0      -18.976408    0.292449    0.988880
    116          6           0      -21.514022   -2.411973    1.582087
    117          6           0      -20.960026    1.168152    1.831815
    118          8           0      -22.118510    1.267458    2.275524
    119          6           0      -19.877590    2.381734    1.680314
    120          6           0      -20.473563    3.293160    0.716331
    121          8           0      -20.815899    2.964502   -0.398450
    122          8           0      -20.581455    4.531111    1.213126
    123          6           0      -21.215578    5.647964    0.444830
    124          1           0      -13.290807    2.588625   -0.641454
    125          1           0      -13.590041   -3.687045   -1.662123
    126          1           0      -19.440531   -3.992293    0.628144
    127          1           0      -17.557777    4.208256    0.484728
    128          1           0      -14.794676    4.063051    1.425259
    129          1           0      -16.037771    5.596200   -0.474189
    130          1           0      -15.234966    4.298063   -1.453359
    131          1           0      -14.272307    5.327038   -0.380436
    132          1           0      -16.091846    4.044968    3.188945
    133          1           0      -17.648104    3.339114    3.188717
    134          1           0      -17.414823    5.815432    3.861134
    135          1           0      -18.753942    5.114600    3.031920
    136          1           0      -10.603326    1.158412   -1.341597
    137          1           0      -11.820878    2.270163   -2.105701
    138          1           0      -11.067790    1.057408   -3.041891
    139          1           0       -9.726220   -0.761524   -1.972241
    140          1           0       -9.917249   -0.953302   -3.683089
    141          1           0       -9.275255   -2.236839   -2.568859
    142          1           0      -15.059734   -5.452724   -0.819094
    143          1           0      -17.966790   -5.473919   -1.137780
    144          1           0      -15.600454   -4.632779   -3.505061
    145          1           0      -16.968436   -5.601335   -3.087780
    146          1           0      -15.358450   -6.286583   -2.912622
    147          1           0      -17.562061   -5.167950    1.731600
    148          1           0      -16.088511   -5.782580    1.248458
    149          1           0      -16.930642   -7.800362    1.238727
    150          1           0      -18.164740   -7.235383    0.056191
    151          1           0      -18.428602   -7.090509    1.852769
    152          1           0      -22.136255   -2.014554    2.383231
    153          1           0      -21.038156   -3.373261    1.775058
    154          1           0      -22.132688   -2.516655    0.689751
    155          1           0      -19.725978    2.907805    2.621884
    156          1           0      -22.183647    5.320838    0.064992
    157          1           0      -20.613998    5.965652   -0.407157
    158          1           0      -21.275262    6.583475    1.000344
 ---------------------------------------------------------------------

 SCF Done:  E(RPBE1PBE) =  -4067.34889171     A.U. after   17 cycles

 Excitation energies and oscillator strengths:

 Excited State   1:      Singlet-A      1.8291 eV  677.85 nm  f=0.0000  <S**2>=0.000
     312 -> 313        0.70710
 This state for optimization and/or second-order correction.
 Total Energy, E(TD-HF/TD-DFT) =  -4067.28167392
 Copying the excited state density for this state as the 1-particle RhoCI density.

 Excited State   2:      Singlet-A      1.8474 eV  671.13 nm  f=0.4070  <S**2>=0.000
     310 -> 316        0.16047
     312 -> 314        0.69146
     312 <- 314       -0.11566

 Excited State   3:      Singlet-A      1.8588 eV  667.01 nm  f=0.3333  <S**2>=0.000
     309 -> 315       -0.16301
     311 -> 313        0.68874
     311 <- 313       -0.10707

 Excited State   4:      Singlet-A      2.0641 eV  600.66 nm  f=0.0000  <S**2>=0.000
     311 -> 314        0.70710

 Excited State   5:      Singlet-A      2.1771 eV  569.50 nm  f=0.1410  <S**2>=0.000
     309 -> 313        0.66022
     311 -> 315        0.23478

 The electronic state is 1-A.
 Alpha  occ. eigenvalues --  -46.92783 -46.92032 -19.25838 -19.25737 -19.19720
 Alpha  occ. eigenvalues --  -19.19354 -19.19270 -19.18951 -19.18680 -19.18522
 Alpha  occ. eigenvalues --  -14.41688 -14.41372 -14.41272 -14.41270 -14.39433
 Alpha  occ. eigenvalues --  -14.39090 -14.38716 -14.38664 -10.35657 -10.35425
 Alpha  occ. eigenvalues --  -10.32885 -10.32653 -10.32259 -10.31330 -10.29714
 Alpha  occ. eigenvalues --  -10.29262 -10.29081 -10.28983 -10.28963 -10.28529
 Alpha  occ. eigenvalues --  -10.28417 -10.28252 -10.28062 -10.27968 -10.27883
 Alpha  occ. eigenvalues --  -10.27565 -10.27321 -10.27320 -10.26922 -10.26847
 Alpha  occ. eigenvalues --  -10.26683 -10.26676 -10.26484 -10.26424 -10.26405
 Alpha  occ. eigenvalues --  -10.26233 -10.26177 -10.26032 -10.25900 -10.25865
 Alpha  occ. eigenvalues --  -10.25862 -10.25818 -10.25728 -10.25686 -10.25673
 Alpha  occ. eigenvalues --  -10.25641 -10.25591 -10.25513 -10.25427 -10.25389
 Alpha  occ. eigenvalues --  -10.25313 -10.25187 -10.25068 -10.24960 -10.24700
 Alpha  occ. eigenvalues --  -10.24616 -10.24284 -10.24077 -10.24060 -10.24030
 Alpha  occ. eigenvalues --  -10.24010 -10.23936 -10.23910 -10.23797 -10.23522
 Alpha  occ. eigenvalues --  -10.23485 -10.23452 -10.23425 -10.23328 -10.23324
 Alpha  occ. eigenvalues --  -10.23288 -10.22967 -10.22930 -10.22452 -10.22391
 Alpha  occ. eigenvalues --  -10.22172  -3.14777  -3.14237  -1.87620  -1.87128
 Alpha  occ. eigenvalues --   -1.87042  -1.87015  -1.86617  -1.86471  -1.11830
 Alpha  occ. eigenvalues --   -1.11276  -1.05561  -1.03903  -1.03349  -1.03176
 Alpha  occ. eigenvalues --   -1.02222  -1.02134  -1.00083  -0.99347  -0.98979
 Alpha  occ. eigenvalues --   -0.98156  -0.98109  -0.97743  -0.97367  -0.96572
 Alpha  occ. eigenvalues --   -0.86609  -0.86498  -0.83569  -0.83093  -0.82937
 Alpha  occ. eigenvalues --   -0.82744  -0.82591  -0.82349  -0.82317  -0.81994
 Alpha  occ. eigenvalues --   -0.81446  -0.81276  -0.81210  -0.80759  -0.78996
 Alpha  occ. eigenvalues --   -0.78589  -0.78519  -0.78418  -0.77419  -0.76921
 Alpha  occ. eigenvalues --   -0.76296  -0.75992  -0.75888  -0.75603  -0.75135
 Alpha  occ. eigenvalues --   -0.75032  -0.73133  -0.72574  -0.72028  -0.71978
 Alpha  occ. eigenvalues --   -0.71761  -0.71175  -0.70563  -0.70350  -0.69745
 Alpha  occ. eigenvalues --   -0.69225  -0.67974  -0.66951  -0.66194  -0.65886
 Alpha  occ. eigenvalues --   -0.63828  -0.63526  -0.63171  -0.62237  -0.62219
 Alpha  occ. eigenvalues --   -0.62060  -0.61630  -0.61324  -0.60324  -0.59966
 Alpha  occ. eigenvalues --   -0.59959  -0.59588  -0.59379  -0.59219  -0.59022
 Alpha  occ. eigenvalues --   -0.58540  -0.57007  -0.56672  -0.55061  -0.55042
 Alpha  occ. eigenvalues --   -0.54540  -0.53934  -0.53739  -0.53433  -0.53310
 Alpha  occ. eigenvalues --   -0.53101  -0.52874  -0.52595  -0.52429  -0.51995
 Alpha  occ. eigenvalues --   -0.51090  -0.50680  -0.50306  -0.50184  -0.50149
 Alpha  occ. eigenvalues --   -0.49754  -0.49674  -0.49400  -0.49244  -0.48861
 Alpha  occ. eigenvalues --   -0.48121  -0.47972  -0.47954  -0.47867  -0.47567
 Alpha  occ. eigenvalues --   -0.47498  -0.47408  -0.47333  -0.47023  -0.46883
 Alpha  occ. eigenvalues --   -0.46784  -0.46694  -0.46542  -0.45904  -0.45903
 Alpha  occ. eigenvalues --   -0.45793  -0.45740  -0.45140  -0.45038  -0.45011
 Alpha  occ. eigenvalues --   -0.44747  -0.44522  -0.44471  -0.44371  -0.44173
 Alpha  occ. eigenvalues --   -0.43881  -0.43784  -0.43703  -0.43650  -0.43372
 Alpha  occ. eigenvalues --   -0.43205  -0.43205  -0.43076  -0.43026  -0.42799
 Alpha  occ. eigenvalues --   -0.42772  -0.42424  -0.42028  -0.42024  -0.41824
 Alpha  occ. eigenvalues --   -0.41582  -0.41451  -0.41445  -0.41283  -0.41028
 Alpha  occ. eigenvalues --   -0.40920  -0.40846  -0.40804  -0.40672  -0.40579
 Alpha  occ. eigenvalues --   -0.40127  -0.40035  -0.39884  -0.39460  -0.39271
 Alpha  occ. eigenvalues --   -0.39188  -0.39077  -0.39057  -0.38904  -0.38662
 Alpha  occ. eigenvalues --   -0.38585  -0.38431  -0.38231  -0.38158  -0.38096
 Alpha  occ. eigenvalues --   -0.37812  -0.37763  -0.37651  -0.37374  -0.37350
 Alpha  occ. eigenvalues --   -0.37241  -0.37076  -0.36998  -0.36768  -0.36569
 Alpha  occ. eigenvalues --   -0.36482  -0.36414  -0.36297  -0.36196  -0.36005
 Alpha  occ. eigenvalues --   -0.35915  -0.35845  -0.35632  -0.35449  -0.35196
 Alpha  occ. eigenvalues --   -0.35148  -0.34664  -0.34427  -0.34196  -0.33932
 Alpha  occ. eigenvalues --   -0.33350  -0.33110  -0.33096  -0.32920  -0.32738
 Alpha  occ. eigenvalues --   -0.32092  -0.32002  -0.31484  -0.31424  -0.31268
 Alpha  occ. eigenvalues --   -0.31228  -0.31200  -0.29732  -0.29655  -0.29250
 Alpha  occ. eigenvalues --   -0.29035  -0.28741  -0.28330  -0.27159  -0.26888
 Alpha  occ. eigenvalues --   -0.26462  -0.26225  -0.25844  -0.25839  -0.25778
 Alpha  occ. eigenvalues --   -0.25570  -0.25290  -0.25055  -0.21020  -0.20769
 Alpha  occ. eigenvalues --   -0.19127  -0.18607
 Alpha virt. eigenvalues --   -0.11488  -0.11144  -0.05214  -0.04714  -0.04052
 Alpha virt. eigenvalues --   -0.03969  -0.02333  -0.02177  -0.01006  -0.00655
 Alpha virt. eigenvalues --    0.00693   0.00982   0.01103   0.01418   0.01873

 Mulliken charges:
               1
     1  Mg  12.000000
     2  C    6.000000
     3  C    6.000000
     4  C    6.000000
     5  C    6.000000
     6  N    7.000000
     7  C    6.000000
     8  C    6.000000
     9  C    6.000000
    10  C    6.000000
    11  C    6.000000
    12  C    6.000000
    13  C    6.000000
    14  H    1.000000
    15  N    7.000000
    16  C    6.000000
    17  C    6.000000
    18  C    6.000000
    19  C    6.000000
    20  C    6.000000
    21  C    6.000000
    22  O    8.000000
    23  C    6.000000
    24  N    7.000000
    25  C    6.000000
    26  C    6.000000
    27  C    6.000000
    28  C    6.000000
    29  C    6.000000
    30  C    6.000000
    31  C    6.000000
    32  N    7.000000
    33  C    6.000000
    34  C    6.000000
    35  C    6.000000
    36  C    6.000000
    37  C    6.000000
    38  C    6.000000
    39  O    8.000000
    40  C    6.000000
    41  C    6.000000
    42  O    8.000000
    43  O    8.000000
    44  C    6.000000
    45  H    1.000000
    46  H    1.000000
    47  H    1.000000
    48  H    1.000000
    49  H    1.000000
    50  H    1.000000
    51  H    1.000000
    52  H    1.000000
    53  H    1.000000
    54  H    1.000000
    55  H    1.000000
    56  H    1.000000
    57  H    1.000000
    58  H    1.000000
    59  H    1.000000
    60  H    1.000000
    61  H    1.000000
    62  H    1.000000
    63  H    1.000000
    64  H    1.000000
    65  H    1.000000
    66  H    1.000000
    67  H    1.000000
    68  H    1.000000
    69  H    1.000000
    70  H    1.000000
    71  H    1.000000
    72  H    1.000000
    73  H    1.000000
    74  H    1.000000
    75  H    1.000000
    76  H    1.000000
    77  H    1.000000
    78  H    1.000000
    79  H    1.000000
    80  Mg  12.000000
    81  C    6.000000
    82  C    6.000000
    83  C    6.000000
    84  C    6.000000
    85  N    7.000000
    86  C    6.000000
    87  C    6.000000
    88  C    6.000000
    89  C    6.000000
    90  C    6.000000
    91  C    6.000000
    92  C    6.000000
    93  H    1.000000
    94  N    7.000000
    95  C    6.000000
    96  C    6.000000
    97  C    6.000000
    98  C    6.000000
    99  C    6.000000
   100  C    6.000000
   101  O    8.000000
   102  C    6.000000
   103  N    7.000000
   104  C    6.000000
   105  C    6.000000
   106  C    6.000000
   107  C    6.000000
   108  C    6.000000
   109  C    6.000000
   110  C    6.000000
   111  N    7.000000
   112  C    6.000000
   113  C    6.000000
   114  C    6.000000
   115  C    6.000000
   116  C    6.000000
   117  C    6.000000
   118  O    8.000000
   119  C    6.000000
   120  C    6.000000
   121  O    8.000000
   122  O    8.000000
   123  C    6.000000
   124  H    1.000000
   125  H    1.000000
   126  H    1.000000
   127  H    1.000000
   128  H    1.000000
   129  H    1.000000
   130  H    1.000000
   131  H    1.000000
   132  H    1.000000
   133  H    1.000000
   134  H    1.000000
   135  H    1.000000
   136  H    1.000000
   137  H    1.000000
   138  H    1.000000
   139  H    1.000000
   140  H    1.000000
   141  H    1.000000
   142  H    1.000000
   143  H    1.000000
   144  H    1.000000
   145  H    1.000000
   146  H    1.000000
   147  H    1.000000
   148  H    1.000000
   149  H    1.000000
   150  H    1.000000
   151  H    1.000000
   152  H    1.000000
   153  H    1.000000
   154  H    1.000000
   155  H    1.000000
   156  H    1.000000
   157  H    1.000000
   158  H    1.000000
 Sum of Mulliken charges = 624.00000

 Dipole moment (field-independent basis, Debye):
    X=             -0.0000    Y=             -0.0000    Z=              0.0000  Tot=              0.0000
 Quadrupole moment (field-independent basis, Debye-Ang):
   XX=              0.0000   YY=              0.0000   ZZ=             -0.0000
   XY=              0.0000   XZ=             -0.0000   YZ=             -0.0000

 Normal termination of Gaussian 16 at Thu Oct 14 03:36:00 2021.
