 Gaussian 16, Revision A.03,
 Gaussian 16:  ES64L-G16RevA.03 25-Dec-2016

 --------------------------------------------------------
 #p PBE1PBE/Def2SVP td=(nstates=5) density=(transition=1)
 --------------------------------------------------------

 --------------------------------
 TDDFT excited states in gaussian
 --------------------------------
 Symbolic Z-matrix:
 Charge =  0 Multiplicity = 1

                         Standard orientation:
 ---------------------------------------------------------------------
 Center     Atomic      Atomic             Coordinates (Angstroms)
 Number     Number       Type             X           Y           Z
 ---------------------------------------------------------------------
      1         12           0       19.176281   -0.918237   -0.009107
      2          6           0       21.096574    2.116151    0.144208
      3          6           0       16.952617    0.636509    2.273209
      4          6           0       17.233059   -3.818077    0.096408
      5          6           0       21.534513   -2.418394   -1.839019
      6          7           0       19.203806    1.149239    1.249931
      7          6           0       20.011548    2.207623    1.024808
      8          6           0       19.632920    3.385363    1.993184
      9          6           0       18.436981    2.736342    2.777499
     10          6           0       18.098750    1.435711    2.013367
     11          6           0       18.771765    2.507410    4.292781
     12          6           0       19.235675    4.667801    1.262556
     13          6           0       19.799704    5.939280    1.806445
     14          1           0       19.520022    7.251203    1.059094
     15          7           0       17.285484   -1.457672    0.838270
     16          6           0       16.567137   -0.677855    1.738546
     17          6           0       15.352052   -1.390194    2.080791
     18          6           0       15.340530   -2.603896    1.413585
     19          6           0       16.702967   -2.713607    0.791398
     20          6           0       14.357946   -0.939383    3.112116
     21          6           0       14.290252   -3.788907    1.422385
     22          8           0       14.346808   -4.828672    0.812629
     23          6           0       12.970070   -3.579075    2.131845
     24          7           0       19.389153   -2.843079   -0.600494
     25          6           0       18.517514   -3.894906   -0.489618
     26          6           0       19.147421   -5.227807   -0.957000
     27          6           0       20.405702   -4.740342   -1.793944
     28          6           0       20.425520   -3.212723   -1.405817
     29          6           0       19.461006   -6.202372    0.223020
     30          6           0       20.289553   -4.971288   -3.331409
     31          6           0       19.237787   -4.128931   -4.049765
     32          7           0       20.942831   -0.369798   -0.698641
     33          6           0       21.840596   -1.086073   -1.538439
     34          6           0       23.012003   -0.270634   -1.851625
     35          6           0       22.727764    0.975922   -1.265615
     36          6           0       21.479570    0.892451   -0.593627
     37          6           0       24.155547   -0.681990   -2.657296
     38          6           0       23.295573    2.310297   -1.102107
     39          8           0       24.314665    2.783262   -1.576700
     40          6           0       22.300067    3.101635   -0.094483
     41          6           0       22.026877    4.351091   -0.935268
     42          8           0       21.333980    4.454543   -1.963528
     43          8           0       22.715940    5.360612   -0.432421
     44          6           0       22.409077    6.774144   -0.896840
     45          1           0       16.237519    1.152463    2.916849
     46          1           0       16.696884   -4.770085    0.076342
     47          1           0       22.227328   -2.945109   -2.498140
     48          1           0       20.558103    3.597489    2.527983
     49          1           0       17.535809    3.347894    2.715902
     50          1           0       18.080373    2.953792    5.007496
     51          1           0       19.812595    2.701905    4.552208
     52          1           0       18.659316    1.487167    4.660290
     53          1           0       18.218605    4.806886    1.629486
     54          1           0       19.257027    4.568417    0.176745
     55          1           0       20.861999    6.005183    2.047100
     56          1           0       19.289518    6.039878    2.764471
     57          1           0       14.564535    0.077352    3.445302
     58          1           0       14.298647   -1.564734    4.004273
     59          1           0       13.323171   -0.879105    2.774512
     60          1           0       12.405054   -2.743286    1.719295
     61          1           0       13.298724   -3.446396    3.162662
     62          1           0       12.509067   -4.565998    2.091926
     63          1           0       18.340316   -5.713220   -1.506815
     64          1           0       21.393609   -4.983538   -1.402173
     65          1           0       18.820100   -7.084001    0.221585
     66          1           0       19.500675   -5.793277    1.231951
     67          1           0       20.493672   -6.469569   -0.002002
     68          1           0       20.313904   -6.047748   -3.501526
     69          1           0       21.232626   -4.654911   -3.776753
     70          1           0       18.591179   -3.528152   -3.411220
     71          1           0       18.597310   -4.843629   -4.565980
     72          1           0       19.622172   -3.336355   -4.690740
     73          1           0       24.935566    0.071314   -2.769609
     74          1           0       23.735817   -0.938985   -3.629780
     75          1           0       24.557240   -1.594071   -2.213599
     76          1           0       22.818030    3.480829    0.786422
     77          1           0       22.842803    7.431357   -0.142824
     78          1           0       21.342741    6.997981   -0.898739
     79          1           0       22.765777    6.987678   -1.905116
     80         12           0      -19.756091   -0.550333    0.089070
     81          6           0      -19.149228    2.753001   -1.027282
     82          6           0      -19.223997    0.520943    3.244780
     83          6           0      -20.190642   -3.649769    1.049782
     84          6           0      -19.537463   -1.573949   -3.342003
     85          7           0      -19.131666    1.426424    1.041132
     86          6           0      -19.208934    2.639481    0.377583
     87          6           0      -19.194312    3.703978    1.420869
     88          6           0      -18.660290    3.012726    2.675783
     89          6           0      -19.032527    1.543064    2.356984
     90          6           0      -17.098218    3.177557    2.787450
     91          6           0      -20.598689    4.463664    1.709292
     92          6           0      -20.634710    6.009683    1.910249
     93          1           0      -19.613141    6.608939    2.919580
     94          7           0      -19.692381   -1.422247    1.941840
     95          6           0      -19.481858   -0.815510    3.072604
     96          6           0      -19.496729   -1.823498    4.146861
     97          6           0      -19.991935   -3.037300    3.580999
     98          6           0      -19.954424   -2.753296    2.118267
     99          6           0      -19.108577   -1.652182    5.660597
    100          6           0      -20.441890   -4.349357    4.222802
    101          8           0      -20.742786   -5.375589    3.583687
    102          6           0      -20.321688   -4.488967    5.665895
    103          7           0      -19.675920   -2.408189   -1.050043
    104          6           0      -20.012945   -3.582439   -0.381965
    105          6           0      -20.265443   -4.719912   -1.445286
    106          6           0      -20.182169   -3.967819   -2.796950
    107          6           0      -19.812881   -2.540543   -2.386572
    108          6           0      -19.348231   -5.928528   -1.256759
    109          6           0      -21.411012   -4.101825   -3.731191
    110          6           0      -21.150026   -4.247320   -5.248581
    111          7           0      -19.403419    0.342478   -1.812730
    112          6           0      -19.292398   -0.187890   -3.094167
    113          6           0      -19.204887    0.900380   -4.034364
    114          6           0      -19.088203    2.059025   -3.265032
    115          6           0      -19.225863    1.698687   -1.896153
    116          6           0      -19.248947    0.815088   -5.434741
    117          6           0      -18.974652    3.524586   -3.300167
    118          8           0      -18.920195    4.330439   -4.215599
    119          6           0      -19.036952    4.031732   -1.822228
    120          6           0      -17.779217    4.844243   -1.570890
    121          8           0      -16.647461    4.550774   -1.258467
    122          8           0      -18.247716    6.121709   -1.679290
    123          6           0      -17.390801    7.216623   -1.165145
    124          1           0      -19.141781    0.868881    4.276962
    125          1           0      -20.534002   -4.619708    1.415359
    126          1           0      -19.692379   -1.834144   -4.390732
    127          1           0      -18.541491    4.555284    1.226384
    128          1           0      -19.231702    3.262472    3.569439
    129          1           0      -16.731630    3.229416    3.812089
    130          1           0      -16.735629    4.123826    2.385198
    131          1           0      -16.689639    2.276928    2.330435
    132          1           0      -21.121976    3.956231    2.519044
    133          1           0      -21.289677    4.274494    0.886958
    134          1           0      -21.612473    6.156495    2.370514
    135          1           0      -20.515119    6.365493    0.886894
    136          1           0      -19.937130   -1.717421    6.365460
    137          1           0      -18.633176   -0.675545    5.755795
    138          1           0      -18.468245   -2.434864    6.067480
    139          1           0      -20.839321   -3.678863    6.180273
    140          1           0      -19.274355   -4.502391    5.967847
    141          1           0      -20.907046   -5.364091    5.946354
    142          1           0      -21.316954   -4.990377   -1.347815
    143          1           0      -19.274835   -4.244374   -3.333597
    144          1           0      -18.433792   -5.774239   -1.830503
    145          1           0      -19.744352   -6.864195   -1.650079
    146          1           0      -18.962119   -5.924097   -0.237981
    147          1           0      -22.166607   -3.330175   -3.584581
    148          1           0      -22.014580   -4.968442   -3.458081
    149          1           0      -21.281131   -3.237316   -5.637192
    150          1           0      -21.976195   -4.858684   -5.613014
    151          1           0      -20.148677   -4.640412   -5.422156
    152          1           0      -18.820669    1.610954   -6.043647
    153          1           0      -20.291073    0.639493   -5.703502
    154          1           0      -18.651239   -0.060155   -5.686710
    155          1           0      -19.932812    4.633898   -1.671922
    156          1           0      -18.075895    7.869049   -0.624531
    157          1           0      -16.884975    7.825140   -1.914348
    158          1           0      -16.660803    6.818181   -0.461043
 ---------------------------------------------------------------------

 SCF Done:  E(RPBE1PBE) =  -4067.35698500     A.U. after   16 cycles

 Excitation energies and oscillator strengths:

 Excited State   1:      Singlet-A      1.8203 eV  681.12 nm  f=0.3566  <S**2>=0.000
     309 -> 316       -0.17695
     312 -> 313        0.69235
     312 <- 313       -0.10910
 This state for optimization and/or second-order correction.
 Total Energy, E(TD-HF/TD-DFT) =  -4067.29009036
 Copying the excited state density for this state as the 1-particle RhoCI density.

 Excited State   2:      Singlet-A      1.8849 eV  657.79 nm  f=0.3787  <S**2>=0.000
     310 -> 315        0.17659
     311 -> 314        0.68857

 Excited State   3:      Singlet-A      1.9486 eV  636.28 nm  f=0.0000  <S**2>=0.000
     311 -> 313        0.70710

 Excited State   4:      Singlet-A      2.0274 eV  611.53 nm  f=0.0000  <S**2>=0.000
     312 -> 314        0.70711

 Excited State   5:      Singlet-A      2.2320 eV  555.49 nm  f=0.0917  <S**2>=0.000
     309 -> 313        0.63926
     312 -> 316        0.29199

 The electronic state is 1-A.
 Alpha  occ. eigenvalues --  -46.92756 -46.91691 -19.25558 -19.25071 -19.20266
 Alpha  occ. eigenvalues --  -19.19630 -19.19608 -19.19425 -19.18934 -19.18251
 Alpha  occ. eigenvalues --  -14.41941 -14.41318 -14.41091 -14.40935 -14.39709
 Alpha  occ. eigenvalues --  -14.39442 -14.39394 -14.38679 -10.36257 -10.35493
 Alpha  occ. eigenvalues --  -10.32662 -10.32586 -10.32576 -10.32006 -10.29460
 Alpha  occ. eigenvalues --  -10.29407 -10.29213 -10.29066 -10.28963 -10.28799
 Alpha  occ. eigenvalues --  -10.28703 -10.28659 -10.28583 -10.28403 -10.28266
 Alpha  occ. eigenvalues --  -10.28123 -10.27812 -10.27718 -10.27655 -10.27567
 Alpha  occ. eigenvalues --  -10.27387 -10.27359 -10.27086 -10.26647 -10.26531
 Alpha  occ. eigenvalues --  -10.26393 -10.26280 -10.26216 -10.26194 -10.26180
 Alpha  occ. eigenvalues --  -10.25966 -10.25949 -10.25927 -10.25823 -10.25710
 Alpha  occ. eigenvalues --  -10.25566 -10.25390 -10.25370 -10.25354 -10.25268
 Alpha  occ. eigenvalues --  -10.25177 -10.25150 -10.25063 -10.25008 -10.24897
 Alpha  occ. eigenvalues --  -10.24885 -10.24469 -10.24383 -10.24243 -10.24228
 Alpha  occ. eigenvalues --  -10.24192 -10.24039 -10.23790 -10.23675 -10.23635
 Alpha  occ. eigenvalues --  -10.23551 -10.23449 -10.23280 -10.23278 -10.23201
 Alpha  occ. eigenvalues --  -10.23192 -10.23099 -10.22937 -10.22797 -10.22711
 Alpha  occ. eigenvalues --  -10.22590  -3.14727  -3.13958  -1.87565  -1.87103
 Alpha  occ. eigenvalues --   -1.86941  -1.86784  -1.86350  -1.86187  -1.10903
 Alpha  occ. eigenvalues --   -1.10716  -1.06121  -1.04803  -1.04365  -1.04013
 Alpha  occ. eigenvalues --   -1.02616  -1.00079  -0.99799  -0.98571  -0.98364
 Alpha  occ. eigenvalues --   -0.97716  -0.97703  -0.96840  -0.96764  -0.96354
 Alpha  occ. eigenvalues --   -0.87163  -0.85194  -0.83463  -0.83193  -0.82997
 Alpha  occ. eigenvalues --   -0.82787  -0.82311  -0.82264  -0.81914  -0.81686
 Alpha  occ. eigenvalues --   -0.81348  -0.81215  -0.81181  -0.80732  -0.78525
 Alpha  occ. eigenvalues --   -0.78366  -0.77899  -0.77837  -0.76986  -0.76614
 Alpha  occ. eigenvalues --   -0.76593  -0.75856  -0.75631  -0.75308  -0.74988
 Alpha  occ. eigenvalues --   -0.74473  -0.72667  -0.72399  -0.71762  -0.71589
 Alpha  occ. eigenvalues --   -0.71358  -0.71225  -0.70253  -0.70181  -0.69480
 Alpha  occ. eigenvalues --   -0.69459  -0.67032  -0.67001  -0.66283  -0.66062
 Alpha  occ. eigenvalues --   -0.64384  -0.63236  -0.63141  -0.63126  -0.62203
 Alpha  occ. eigenvalues --   -0.61942  -0.61734  -0.60631  -0.59985  -0.59865
 Alpha  occ. eigenvalues --   -0.59852  -0.59598  -0.59449  -0.59114  -0.58913
 Alpha  occ. eigenvalues --   -0.58628  -0.56545  -0.56376  -0.55001  -0.54146
 Alpha  occ. eigenvalues --   -0.54087  -0.53899  -0.53839  -0.53459  -0.52959
 Alpha  occ. eigenvalues --   -0.52405  -0.52367  -0.52090  -0.51941  -0.50761
 Alpha  occ. eigenvalues --   -0.50621  -0.50451  -0.50252  -0.49973  -0.49745
 Alpha  occ. eigenvalues --   -0.49610  -0.49130  -0.49029  -0.48482  -0.48288
 Alpha  occ. eigenvalues --   -0.48140  -0.47821  -0.47786  -0.47711  -0.47642
 Alpha  occ. eigenvalues --   -0.47507  -0.47408  -0.47238  -0.47009  -0.46936
 Alpha  occ. eigenvalues --   -0.46685  -0.46616  -0.46268  -0.46178  -0.46145
 Alpha  occ. eigenvalues --   -0.45894  -0.45550  -0.45439  -0.45403  -0.44974
 Alpha  occ. eigenvalues --   -0.44693  -0.44621  -0.44364  -0.44182  -0.44159
 Alpha  occ. eigenvalues --   -0.43953  -0.43855  -0.43822  -0.43572  -0.43539
 Alpha  occ. eigenvalues --   -0.43444  -0.43196  -0.43050  -0.42877  -0.42721
 Alpha  occ. eigenvalues --   -0.42363  -0.42217  -0.42130  -0.42100  -0.41811
 Alpha  occ. eigenvalues --   -0.41478  -0.41472  -0.41374  -0.41328  -0.41040
 Alpha  occ. eigenvalues --   -0.41015  -0.40894  -0.40651  -0.40546  -0.40330
 Alpha  occ. eigenvalues --   -0.40275  -0.39880  -0.39778  -0.39679  -0.39660
 Alpha  occ. eigenvalues --   -0.39498  -0.39201  -0.39195  -0.38979  -0.38811
 Alpha  occ. eigenvalues --   -0.38796  -0.38653  -0.38394  -0.38389  -0.38226
 Alpha  occ. eigenvalues --   -0.37916  -0.37852  -0.37840  -0.37797  -0.37748
 Alpha  occ. eigenvalues --   -0.37553  -0.37203  -0.37190  -0.37019  -0.36950
 Alpha  occ. eigenvalues --   -0.36709  -0.36691  -0.36393  -0.36211  -0.36179
 Alpha  occ. eigenvalues --   -0.35769  -0.35710  -0.35436  -0.35244  -0.35120
 Alpha  occ. eigenvalues --   -0.35109  -0.34741  -0.34615  -0.34522  -0.34004
 Alpha  occ. eigenvalues --   -0.33714  -0.33542  -0.33036  -0.32683  -0.32508
 Alpha  occ. eigenvalues --   -0.32406  -0.31702  -0.31637  -0.31402  -0.31060
 Alpha  occ. eigenvalues --   -0.30966  -0.30640  -0.29602  -0.29140  -0.29089
 Alpha  occ. eigenvalues --   -0.28651  -0.28613  -0.27609  -0.26906  -0.26896
 Alpha  occ. eigenvalues --   -0.26497  -0.26060  -0.25928  -0.25823  -0.25660
 Alpha  occ. eigenvalues --   -0.25501  -0.25367  -0.24962  -0.21021  -0.20924
 Alpha  occ. eigenvalues --   -0.18639  -0.18618
 Alpha virt. eigenvalues --   -0.11137  -0.10827  -0.05573  -0.05476  -0.04274
 Alpha virt. eigenvalues --   -0.03573  -0.02163  -0.02036  -0.00897   0.00623
 Alpha virt. eigenvalues --    0.00881   0.01107   0.01256   0.01379   0.01544

 Mulliken charges:
               1
     1  Mg  11.999786
     2  C    6.016778
     3  C    5.985494
     4  C    5.979140
     5  C    6.000803
     6  N    7.009070
     7  C    5.974055
     8  C    6.004613
     9  C    5.994293
    10  C    6.029833
    11  C    5.998081
    12  C    6.005038
    13  C    6.001617
    14  H    0.999858
    15  N    6.995551
    16  C    6.041560
    17  C    6.015626
    18  C    6.016859
    19  C    6.034110
    20  C    5.994708
    21  C    6.012494
    22  O    8.025440
    23  C    5.996890
    24  N    6.988754
    25  C    6.037194
    26  C    5.993800
    27  C    6.003914
    28  C    5.968923
    29  C    5.995532
    30  C    6.004891
    31  C    6.005503
    32  N    7.002139
    33  C    5.967527
    34  C    5.971460
    35  C    5.997589
    36  C    5.970402
    37  C    6.000489
    38  C    5.984294
    39  O    7.973228
    40  C    5.998006
    41  C    5.996667
    42  O    7.994640
    43  O    7.999933
    44  C    6.001880
    45  H    1.010043
    46  H    1.006253
    47  H    0.988293
    48  H    1.003602
    49  H    0.998695
    50  H    1.002533
    51  H    1.011712
    52  H    0.997668
    53  H    0.991458
    54  H    1.003498
    55  H    1.003256
    56  H    0.994745
    57  H    1.016032
    58  H    1.018547
    59  H    1.017354
    60  H    1.007248
    61  H    1.004736
    62  H    1.013103
    63  H    0.997248
    64  H    1.002151
    65  H    0.999455
    66  H    0.998461
    67  H    1.012160
    68  H    0.990483
    69  H    1.003931
    70  H    0.989734
    71  H    0.992166
    72  H    1.003803
    73  H    0.986521
    74  H    0.982984
    75  H    0.982991
    76  H    0.991566
    77  H    0.995687
    78  H    0.994945
    79  H    0.998479
    80  Mg  12.000017
    81  C    5.999973
    82  C    6.000092
    83  C    6.000017
    84  C    5.999880
    85  N    6.999941
    86  C    6.000129
    87  C    5.999951
    88  C    6.000045
    89  C    5.999879
    90  C    5.999989
    91  C    5.999971
    92  C    6.000005
    93  H    0.999989
    94  N    7.000042
    95  C    5.999804
    96  C    5.999892
    97  C    5.999945
    98  C    5.999888
    99  C    6.000011
   100  C    5.999957
   101  O    7.999920
   102  C    5.999999
   103  N    6.999994
   104  C    5.999839
   105  C    6.000016
   106  C    5.999980
   107  C    6.000152
   108  C    6.000033
   109  C    5.999969
   110  C    5.999989
   111  N    6.999957
   112  C    6.000158
   113  C    6.000101
   114  C    6.000042
   115  C    6.000079
   116  C    5.999987
   117  C    6.000075
   118  O    8.000166
   119  C    5.999978
   120  C    6.000004
   121  O    7.999963
   122  O    8.000040
   123  C    5.999990
   124  H    0.999954
   125  H    0.999996
   126  H    1.000071
   127  H    1.000003
   128  H    1.000038
   129  H    0.999952
   130  H    0.999941
   131  H    0.999939
   132  H    1.000078
   133  H    1.000035
   134  H    1.000071
   135  H    0.999995
   136  H    0.999966
   137  H    0.999896
   138  H    0.999864
   139  H    1.000017
   140  H    0.999898
   141  H    0.999983
   142  H    1.000048
   143  H    0.999957
   144  H    0.999905
   145  H    1.000007
   146  H    0.999978
   147  H    1.000046
   148  H    1.000074
   149  H    1.000000
   150  H    1.000075
   151  H    0.999969
   152  H    1.000072
   153  H    1.000150
   154  H    1.000030
   155  H    1.000087
   156  H    1.000072
   157  H    1.000027
   158  H    0.999959
 Sum of Mulliken charges = 624.00000

 Dipole moment (field-independent basis, Debye):
    X=             -8.7851    Y=             -2.4389    Z=              4.4932  Tot=             10.1644
 Quadrupole moment (field-independent basis, Debye-Ang):
   XX=           -334.0814   YY=              1.6887   ZZ=              0.9829
   XY=            -39.4339   XZ=             86.8413   YZ=             -4.3230

 Normal termination of Gaussian 16 at Thu Oct 14 15:06:47 2021.
