 Gaussian 16, Revision A.03,
 Gaussian 16:  ES64L-G16RevA.03 25-Dec-2016

 --------------------------------------------------------
 #p PBE1PBE/Def2SVP td=(nstates=5) density=(transition=1)
 --------------------------------------------------------

 --------------------------------
 TDDFT excited states in gaussian
 --------------------------------
 Symbolic Z-matrix:
 Charge =  0 Multiplicity = 1

                         Standard orientation:
 ---------------------------------------------------------------------
 Center     Atomic      Atomic             Coordinates (Angstroms)
 Number     Number       Type             X           Y           Z
 ---------------------------------------------------------------------
      1         12           0       21.883050   -0.582877    0.518154
      2          6           0       21.468826    2.129265   -1.707286
      3          6           0       22.356368    1.510066    3.022153
      4          6           0       23.133227   -3.212694    2.305317
      5          6           0       22.380541   -2.663910   -2.497969
      6          7           0       21.956879    1.592114    0.584098
      7          6           0       21.531015    2.463487   -0.353257
      8          6           0       21.321638    3.844236    0.298867
      9          6           0       21.570943    3.643968    1.759374
     10          6           0       22.036090    2.157866    1.828646
     11          6           0       22.503058    4.760439    2.385420
     12          6           0       19.998125    4.621820   -0.007787
     13          6           0       19.272755    5.530532    1.074843
     14          1           0       18.759983    6.912907    0.645283
     15          7           0       22.403109   -0.836409    2.484449
     16          6           0       22.534667    0.194414    3.387310
     17          6           0       22.864523   -0.381146    4.660110
     18          6           0       23.150042   -1.793839    4.507602
     19          6           0       22.951462   -1.988664    3.054424
     20          6           0       23.015834    0.525877    5.813435
     21          6           0       23.498417   -2.875541    5.559741
     22          8           0       23.741985   -3.985433    5.217231
     23          6           0       23.289565   -2.608929    7.014888
     24          7           0       22.699555   -2.633991   -0.067468
     25          6           0       23.001547   -3.492817    0.932049
     26          6           0       23.372202   -4.912035    0.394542
     27          6           0       23.100459   -4.771501   -1.134481
     28          6           0       22.716757   -3.278785   -1.287377
     29          6           0       24.776171   -5.372377    0.684013
     30          6           0       22.011650   -5.697617   -1.780853
     31          6           0       20.569585   -5.367631   -1.592078
     32          7           0       21.925478   -0.441587   -1.664799
     33          6           0       22.076644   -1.347147   -2.675537
     34          6           0       21.818848   -0.699919   -3.938747
     35          6           0       21.574734    0.668659   -3.650473
     36          6           0       21.698711    0.778024   -2.250512
     37          6           0       21.969863   -1.272167   -5.303994
     38          6           0       21.304476    1.966609   -4.199736
     39          8           0       21.106044    2.374345   -5.338439
     40          6           0       21.173603    2.966523   -2.964663
     41          6           0       22.004136    4.227837   -3.131451
     42          8           0       23.207369    4.238887   -3.172062
     43          8           0       21.160329    5.326090   -3.179369
     44          6           0       21.869173    6.591197   -3.375334
     45          1           0       22.325386    2.105762    3.937256
     46          1           0       23.482841   -4.017647    2.954731
     47          1           0       22.421995   -3.297927   -3.385983
     48          1           0       22.112951    4.382451   -0.222929
     49          1           0       20.621336    3.789304    2.275109
     50          1           0       22.672202    5.545145    1.648223
     51          1           0       23.380553    4.262553    2.797896
     52          1           0       21.987726    5.309082    3.174008
     53          1           0       19.263199    3.874601   -0.308206
     54          1           0       20.097009    5.261172   -0.885419
     55          1           0       20.009821    5.638586    1.870807
     56          1           0       18.431703    4.977962    1.493823
     57          1           0       23.831024    0.110415    6.405425
     58          1           0       22.103547    0.445130    6.403276
     59          1           0       23.204930    1.592247    5.689038
     60          1           0       24.263298   -2.228417    7.320580
     61          1           0       22.921690   -3.517040    7.493467
     62          1           0       22.602842   -1.793183    7.241950
     63          1           0       22.657535   -5.668518    0.719334
     64          1           0       23.931487   -4.828143   -1.836835
     65          1           0       25.270024   -4.718374    1.403859
     66          1           0       25.407906   -5.353880   -0.204452
     67          1           0       24.674562   -6.378755    1.089431
     68          1           0       22.143563   -6.719815   -1.425990
     69          1           0       22.269323   -5.822347   -2.832832
     70          1           0       20.446539   -4.753826   -0.699567
     71          1           0       19.830628   -6.149728   -1.416390
     72          1           0       20.267358   -4.893446   -2.526379
     73          1           0       22.971001   -1.630011   -5.542617
     74          1           0       21.949065   -0.414809   -5.977218
     75          1           0       21.206684   -2.021368   -5.516413
     76          1           0       20.114381    3.216475   -2.900801
     77          1           0       21.602005    6.901021   -2.365497
     78          1           0       21.289296    7.082991   -4.155990
     79          1           0       22.931697    6.461406   -3.582123
     80         12           0      -21.843552   -0.752501   -0.201830
     81          6           0      -23.080090    1.939912    1.554247
     82          6           0      -19.866801    1.531764   -2.110461
     83          6           0      -20.891610   -3.212145   -2.152888
     84          6           0      -23.917996   -2.919907    1.576533
     85          7           0      -21.564864    1.469193   -0.199951
     86          6           0      -22.143634    2.350403    0.621067
     87          6           0      -21.548281    3.768880    0.341518
     88          6           0      -20.620222    3.578382   -0.944432
     89          6           0      -20.721990    2.054663   -1.150211
     90          6           0      -21.099430    4.206089   -2.239223
     91          6           0      -20.855585    4.426196    1.544748
     92          6           0      -21.371662    5.835897    1.779485
     93          1           0      -20.495433    6.897595    2.460027
     94          7           0      -20.494158   -0.821961   -1.843991
     95          6           0      -19.759446    0.161731   -2.440731
     96          6           0      -18.938438   -0.330076   -3.455118
     97          6           0      -19.286915   -1.718084   -3.601172
     98          6           0      -20.263714   -1.989176   -2.490348
     99          6           0      -17.952382    0.520124   -4.242980
    100          6           0      -18.830846   -2.712894   -4.656019
    101          8           0      -19.388642   -3.826512   -4.701491
    102          6           0      -17.842635   -2.356991   -5.690483
    103          7           0      -22.321898   -2.729006   -0.226946
    104          6           0      -21.751806   -3.624610   -1.108234
    105          6           0      -22.265438   -5.105030   -0.961481
    106          6           0      -23.016279   -4.977201    0.432284
    107          6           0      -23.116244   -3.450796    0.607254
    108          6           0      -23.182801   -5.773682   -2.060015
    109          6           0      -22.474915   -5.825816    1.670883
    110          6           0      -21.246502   -5.276476    2.346851
    111          7           0      -23.301663   -0.590267    1.144116
    112          6           0      -24.085383   -1.516910    1.804988
    113          6           0      -24.946547   -0.917610    2.740517
    114          6           0      -24.545517    0.422272    2.686698
    115          6           0      -23.530671    0.598184    1.701390
    116          6           0      -25.851850   -1.703758    3.589838
    117          6           0      -24.929189    1.670607    3.224199
    118          8           0      -25.867119    1.905645    3.988705
    119          6           0      -23.967755    2.773855    2.536110
    120          6           0      -24.788822    3.769362    1.869753
    121          8           0      -25.389255    3.635465    0.828049
    122          8           0      -24.899221    4.856604    2.623100
    123          6           0      -25.770286    5.911060    2.199805
    124          1           0      -19.306478    2.241885   -2.721499
    125          1           0      -20.671733   -4.121981   -2.714726
    126          1           0      -24.552297   -3.632706    2.107691
    127          1           0      -22.453230    4.298102    0.044741
    128          1           0      -19.692162    4.098959   -0.705567
    129          1           0      -21.992010    4.824551   -2.140196
    130          1           0      -21.377621    3.430729   -2.952530
    131          1           0      -20.267302    4.702823   -2.739053
    132          1           0      -19.767243    4.456069    1.489754
    133          1           0      -21.055872    3.805312    2.417638
    134          1           0      -22.200106    5.734903    2.481550
    135          1           0      -21.674302    6.209391    0.801397
    136          1           0      -17.807302    1.498264   -3.784286
    137          1           0      -18.394240    0.761993   -5.209854
    138          1           0      -17.037211   -0.032425   -4.452406
    139          1           0      -17.923110   -3.024107   -6.549468
    140          1           0      -16.856892   -2.528025   -5.256756
    141          1           0      -17.989656   -1.327873   -6.017314
    142          1           0      -21.460344   -5.800895   -0.723335
    143          1           0      -24.007086   -5.418163    0.330296
    144          1           0      -23.328428   -5.045209   -2.856674
    145          1           0      -24.198826   -5.848568   -1.670440
    146          1           0      -22.878134   -6.735292   -2.474046
    147          1           0      -22.165874   -6.786981    1.260812
    148          1           0      -23.236347   -6.065725    2.412038
    149          1           0      -21.314848   -5.556109    3.397573
    150          1           0      -20.987337   -4.221138    2.271826
    151          1           0      -20.394027   -5.765336    1.875228
    152          1           0      -25.555907   -2.712307    3.877421
    153          1           0      -26.905011   -1.686401    3.311994
    154          1           0      -25.863905   -1.092959    4.492188
    155          1           0      -23.388459    3.247721    3.328320
    156          1           0      -25.263818    6.636942    1.562626
    157          1           0      -26.067743    6.452596    3.097591
    158          1           0      -26.613610    5.495646    1.647931
 ---------------------------------------------------------------------

 SCF Done:  E(RPBE1PBE) =  -4067.37784617     A.U. after   16 cycles

 Excitation energies and oscillator strengths:

 Excited State   1:      Singlet-A      1.8611 eV  666.20 nm  f=0.3448  <S**2>=0.000
     310 -> 315        0.17907
     312 -> 314        0.69032
     312 <- 314       -0.10750
 This state for optimization and/or second-order correction.
 Total Energy, E(TD-HF/TD-DFT) =  -4067.30945376
 Copying the excited state density for this state as the 1-particle RhoCI density.

 Excited State   2:      Singlet-A      1.8681 eV  663.71 nm  f=0.4252  <S**2>=0.000
     309 -> 316        0.16537
     311 -> 313        0.69231
     311 <- 313       -0.11099

 Excited State   3:      Singlet-A      1.8779 eV  660.23 nm  f=0.0000  <S**2>=0.000
     312 -> 313        0.70711

 Excited State   4:      Singlet-A      2.0956 eV  591.65 nm  f=0.0000  <S**2>=0.000
     311 -> 314        0.70711

 Excited State   5:      Singlet-A      2.1921 eV  565.59 nm  f=0.1035  <S**2>=0.000
     310 -> 314        0.65383
     312 -> 315       -0.25424

 The electronic state is 1-A.
 Alpha  occ. eigenvalues --  -46.93417 -46.91118 -19.25483 -19.25428 -19.20287
 Alpha  occ. eigenvalues --  -19.19716 -19.18936 -19.18926 -19.18816 -19.18433
 Alpha  occ. eigenvalues --  -14.41854 -14.41778 -14.41692 -14.41272 -14.39348
 Alpha  occ. eigenvalues --  -14.39159 -14.38687 -14.38539 -10.36165 -10.35235
 Alpha  occ. eigenvalues --  -10.32796 -10.32002 -10.31954 -10.31712 -10.29310
 Alpha  occ. eigenvalues --  -10.29236 -10.28935 -10.28916 -10.28904 -10.28574
 Alpha  occ. eigenvalues --  -10.28547 -10.28428 -10.28423 -10.28400 -10.28220
 Alpha  occ. eigenvalues --  -10.27956 -10.27177 -10.27053 -10.27003 -10.26817
 Alpha  occ. eigenvalues --  -10.26813 -10.26806 -10.26407 -10.26382 -10.26287
 Alpha  occ. eigenvalues --  -10.26148 -10.26095 -10.26001 -10.25916 -10.25893
 Alpha  occ. eigenvalues --  -10.25845 -10.25808 -10.25613 -10.25521 -10.25514
 Alpha  occ. eigenvalues --  -10.25494 -10.25477 -10.25320 -10.25260 -10.25212
 Alpha  occ. eigenvalues --  -10.25103 -10.25071 -10.25008 -10.24843 -10.24467
 Alpha  occ. eigenvalues --  -10.24438 -10.24425 -10.24361 -10.24178 -10.24030
 Alpha  occ. eigenvalues --  -10.24002 -10.23933 -10.23858 -10.23842 -10.23810
 Alpha  occ. eigenvalues --  -10.23800 -10.23672 -10.23535 -10.23239 -10.23062
 Alpha  occ. eigenvalues --  -10.22878 -10.22703 -10.22587 -10.22465 -10.22400
 Alpha  occ. eigenvalues --  -10.22398  -3.15310  -3.13477  -1.88120  -1.87691
 Alpha  occ. eigenvalues --   -1.87522  -1.86318  -1.85869  -1.85704  -1.12706
 Alpha  occ. eigenvalues --   -1.11108  -1.07610  -1.04024  -1.03665  -1.03426
 Alpha  occ. eigenvalues --   -1.03176  -1.02583  -0.99301  -0.98852  -0.98383
 Alpha  occ. eigenvalues --   -0.97949  -0.97808  -0.97225  -0.97152  -0.96503
 Alpha  occ. eigenvalues --   -0.86460  -0.86009  -0.83680  -0.83580  -0.83173
 Alpha  occ. eigenvalues --   -0.83040  -0.82633  -0.82573  -0.81961  -0.81906
 Alpha  occ. eigenvalues --   -0.81718  -0.81444  -0.81083  -0.80477  -0.78879
 Alpha  occ. eigenvalues --   -0.78293  -0.78144  -0.77979  -0.77245  -0.76687
 Alpha  occ. eigenvalues --   -0.76536  -0.76264  -0.75571  -0.75190  -0.74989
 Alpha  occ. eigenvalues --   -0.74790  -0.72617  -0.72608  -0.71678  -0.71465
 Alpha  occ. eigenvalues --   -0.71426  -0.71238  -0.70288  -0.70226  -0.69643
 Alpha  occ. eigenvalues --   -0.69048  -0.67938  -0.66827  -0.65902  -0.65899
 Alpha  occ. eigenvalues --   -0.64126  -0.64018  -0.63666  -0.63321  -0.62728
 Alpha  occ. eigenvalues --   -0.62184  -0.61486  -0.61350  -0.59869  -0.59512
 Alpha  occ. eigenvalues --   -0.59444  -0.59161  -0.58910  -0.58801  -0.58668
 Alpha  occ. eigenvalues --   -0.58538  -0.56914  -0.56297  -0.54959  -0.54607
 Alpha  occ. eigenvalues --   -0.54556  -0.54118  -0.53597  -0.53411  -0.53177
 Alpha  occ. eigenvalues --   -0.52962  -0.52848  -0.52580  -0.52224  -0.51968
 Alpha  occ. eigenvalues --   -0.51147  -0.50638  -0.50624  -0.50445  -0.49939
 Alpha  occ. eigenvalues --   -0.49679  -0.49633  -0.49198  -0.49181  -0.48938
 Alpha  occ. eigenvalues --   -0.48656  -0.48185  -0.48134  -0.47814  -0.47771
 Alpha  occ. eigenvalues --   -0.47440  -0.47324  -0.46982  -0.46935  -0.46812
 Alpha  occ. eigenvalues --   -0.46658  -0.46402  -0.46400  -0.45890  -0.45752
 Alpha  occ. eigenvalues --   -0.45521  -0.45395  -0.45199  -0.44944  -0.44872
 Alpha  occ. eigenvalues --   -0.44806  -0.44677  -0.44531  -0.44304  -0.44164
 Alpha  occ. eigenvalues --   -0.44091  -0.43917  -0.43893  -0.43761  -0.43658
 Alpha  occ. eigenvalues --   -0.43562  -0.43410  -0.43260  -0.43094  -0.42953
 Alpha  occ. eigenvalues --   -0.42838  -0.42460  -0.42344  -0.42021  -0.41931
 Alpha  occ. eigenvalues --   -0.41871  -0.41648  -0.41497  -0.41257  -0.41136
 Alpha  occ. eigenvalues --   -0.40819  -0.40798  -0.40526  -0.40308  -0.40251
 Alpha  occ. eigenvalues --   -0.40224  -0.40204  -0.39893  -0.39718  -0.39388
 Alpha  occ. eigenvalues --   -0.39349  -0.39331  -0.39229  -0.39076  -0.38893
 Alpha  occ. eigenvalues --   -0.38688  -0.38531  -0.38423  -0.38417  -0.38301
 Alpha  occ. eigenvalues --   -0.38131  -0.38084  -0.37844  -0.37720  -0.37542
 Alpha  occ. eigenvalues --   -0.37507  -0.37399  -0.37230  -0.36929  -0.36885
 Alpha  occ. eigenvalues --   -0.36753  -0.36453  -0.36356  -0.36336  -0.36122
 Alpha  occ. eigenvalues --   -0.35959  -0.35876  -0.35784  -0.35517  -0.35411
 Alpha  occ. eigenvalues --   -0.35029  -0.34149  -0.34113  -0.33926  -0.33830
 Alpha  occ. eigenvalues --   -0.33137  -0.33085  -0.32871  -0.32757  -0.32408
 Alpha  occ. eigenvalues --   -0.32222  -0.31998  -0.31639  -0.31361  -0.31181
 Alpha  occ. eigenvalues --   -0.30907  -0.30809  -0.29564  -0.29457  -0.28885
 Alpha  occ. eigenvalues --   -0.28835  -0.28701  -0.28482  -0.27123  -0.26559
 Alpha  occ. eigenvalues --   -0.26478  -0.25878  -0.25623  -0.25513  -0.25445
 Alpha  occ. eigenvalues --   -0.25418  -0.25286  -0.25048  -0.21110  -0.20787
 Alpha  occ. eigenvalues --   -0.19109  -0.18713
 Alpha virt. eigenvalues --   -0.11514  -0.11111  -0.05116  -0.05050  -0.03803
 Alpha virt. eigenvalues --   -0.03728  -0.01978  -0.01922  -0.01681   0.00234
 Alpha virt. eigenvalues --    0.00294   0.00939   0.01226   0.01691   0.01754

 Mulliken charges:
               1
     1  Mg  11.999276
     2  C    5.975844
     3  C    6.007033
     4  C    6.016475
     5  C    5.999303
     6  N    6.985646
     7  C    6.033753
     8  C    5.994176
     9  C    6.011157
    10  C    5.969252
    11  C    5.999849
    12  C    5.998355
    13  C    6.002594
    14  H    0.997598
    15  N    7.006551
    16  C    5.964787
    17  C    5.980055
    18  C    5.983307
    19  C    5.972946
    20  C    6.005881
    21  C    5.986768
    22  O    7.975206
    23  C    6.004153
    24  N    7.001609
    25  C    5.973029
    26  C    6.011045
    27  C    5.996803
    28  C    6.025149
    29  C    6.000429
    30  C    5.995128
    31  C    5.993115
    32  N    6.998621
    33  C    6.028783
    34  C    6.037021
    35  C    5.998622
    36  C    6.031721
    37  C    5.997805
    38  C    6.014886
    39  O    8.027749
    40  C    6.002736
    41  C    6.003719
    42  O    8.003604
    43  O    8.001467
    44  C    5.998940
    45  H    0.990864
    46  H    0.995203
    47  H    1.011183
    48  H    0.997480
    49  H    0.995530
    50  H    0.988987
    51  H    1.003282
    52  H    0.997581
    53  H    0.997846
    54  H    0.995852
    55  H    1.006444
    56  H    1.001844
    57  H    0.983365
    58  H    0.980416
    59  H    0.981614
    60  H    0.991666
    61  H    0.987046
    62  H    0.996460
    63  H    0.998876
    64  H    0.998923
    65  H    1.007120
    66  H    0.991815
    67  H    0.999067
    68  H    1.010762
    69  H    0.998662
    70  H    1.009220
    71  H    1.007360
    72  H    0.993788
    73  H    1.021628
    74  H    1.012714
    75  H    1.019645
    76  H    1.006115
    77  H    1.005800
    78  H    1.001837
    79  H    1.002057
    80  Mg  12.000145
    81  C    5.999087
    82  C    6.000565
    83  C    6.001211
    84  C    5.999815
    85  N    6.999603
    86  C    6.001402
    87  C    5.999630
    88  C    6.000793
    89  C    5.998513
    90  C    6.000157
    91  C    5.999948
    92  C    5.999913
    93  H    1.000263
    94  N    7.000268
    95  C    5.998155
    96  C    5.999117
    97  C    5.999179
    98  C    5.998180
    99  C    6.000137
   100  C    5.999242
   101  O    7.998389
   102  C    6.000306
   103  N    7.000040
   104  C    5.998037
   105  C    6.000775
   106  C    5.999489
   107  C    6.001388
   108  C    5.999969
   109  C    5.999742
   110  C    5.999842
   111  N    6.999972
   112  C    6.001710
   113  C    6.001359
   114  C    6.000088
   115  C    6.001724
   116  C    5.999774
   117  C    6.000956
   118  O    8.001628
   119  C    6.000146
   120  C    6.000190
   121  O    8.000388
   122  O    8.000080
   123  C    5.999860
   124  H    0.999441
   125  H    0.999695
   126  H    1.000606
   127  H    0.999876
   128  H    0.999599
   129  H    0.999262
   130  H    1.000168
   131  H    0.999871
   132  H    1.000430
   133  H    0.999672
   134  H    0.999700
   135  H    1.000229
   136  H    0.999152
   137  H    0.999032
   138  H    0.999195
   139  H    0.999189
   140  H    0.999403
   141  H    0.999691
   142  H    0.999835
   143  H    1.000129
   144  H    1.000185
   145  H    0.999454
   146  H    0.999951
   147  H    1.000548
   148  H    0.999918
   149  H    1.000028
   150  H    0.999989
   151  H    1.000535
   152  H    1.001006
   153  H    1.001154
   154  H    1.000737
   155  H    1.000493
   156  H    1.000378
   157  H    1.000196
   158  H    1.000084
 Sum of Mulliken charges = 624.00000

 Dipole moment (field-independent basis, Debye):
    X=             -1.8160    Y=              0.3747    Z=             -9.7092  Tot=              9.8847
 Quadrupole moment (field-independent basis, Debye-Ang):
   XX=            -48.3461   YY=              1.7890   ZZ=             -8.3006
   XY=              7.5663   XZ=           -236.7544   YZ=              5.6006

 Normal termination of Gaussian 16 at Thu Oct 14 09:31:13 2021.
