 Gaussian 16, Revision A.03,
 Gaussian 16:  ES64L-G16RevA.03 25-Dec-2016

 --------------------------------------------------------
 #p PBE1PBE/Def2SVP td=(nstates=5) density=(transition=1)
 --------------------------------------------------------

 --------------------------------
 TDDFT excited states in gaussian
 --------------------------------
 Symbolic Z-matrix:
 Charge =  0 Multiplicity = 1

                         Standard orientation:
 ---------------------------------------------------------------------
 Center     Atomic      Atomic             Coordinates (Angstroms)
 Number     Number       Type             X           Y           Z
 ---------------------------------------------------------------------
      1         12           0      -24.848517    0.620175    0.145743
      2          6           0      -21.967358   -1.329269    0.508416
      3          6           0      -26.616212   -2.363647    0.045463
      4          6           0      -27.468972    2.386619   -0.618558
      5          6           0      -22.777562    3.491746    0.051376
      6          7           0      -24.291780   -1.655728   -0.139161
      7          6           0      -23.101387   -2.156094    0.207278
      8          6           0      -23.221381   -3.643352    0.225020
      9          6           0      -24.622829   -3.941464   -0.362042
     10          6           0      -25.259263   -2.586549   -0.123372
     11          6           0      -24.756577   -4.426714   -1.806551
     12          6           0      -23.059307   -4.224729    1.665365
     13          6           0      -22.076256   -5.417832    1.894929
     14          1           0      -21.829485   -6.434081    0.736593
     15          7           0      -26.848426    0.084987   -0.094450
     16          6           0      -27.360647   -1.191383    0.097052
     17          6           0      -28.778098   -1.081631   -0.022814
     18          6           0      -29.071315    0.301866   -0.353728
     19          6           0      -27.800257    1.010542   -0.362447
     20          6           0      -29.760015   -2.271312    0.051995
     21          6           0      -30.427202    0.974152   -0.714459
     22          8           0      -30.556554    2.124270   -0.991785
     23          6           0      -31.651621    0.083863   -0.633409
     24          7           0      -25.050151    2.640700   -0.208577
     25          6           0      -26.256100    3.127511   -0.577471
     26          6           0      -26.266094    4.659883   -0.833030
     27          6           0      -24.799164    5.026455   -0.344499
     28          6           0      -24.147614    3.667182   -0.119331
     29          6           0      -26.602657    4.981132   -2.401519
     30          6           0      -24.767197    6.032689    0.848512
     31          6           0      -24.592981    5.469690    2.247665
     32          7           0      -22.777251    1.085232    0.290709
     33          6           0      -22.113338    2.281747    0.324257
     34          6           0      -20.650425    1.999207    0.537280
     35          6           0      -20.572379    0.590224    0.613994
     36          6           0      -21.885083    0.046504    0.418573
     37          6           0      -19.505652    2.973943    0.480870
     38          6           0      -19.666672   -0.542628    0.788359
     39          8           0      -18.442340   -0.518996    0.943368
     40          6           0      -20.562068   -1.774234    0.885673
     41          6           0      -19.988397   -2.771112   -0.080145
     42          8           0      -20.138754   -2.744376   -1.287907
     43          8           0      -19.162947   -3.524429    0.627793
     44          6           0      -18.160080   -4.301816   -0.083163
     45          1           0      -27.158004   -3.294833   -0.130241
     46          1           0      -28.357133    3.016871   -0.694608
     47          1           0      -22.141654    4.379720    0.037227
     48          1           0      -22.427832   -4.062838   -0.392561
     49          1           0      -25.029295   -4.758213    0.234595
     50          1           0      -23.826401   -4.584857   -2.352610
     51          1           0      -25.363915   -3.728902   -2.383683
     52          1           0      -25.288414   -5.376528   -1.755428
     53          1           0      -24.007262   -4.460043    2.148762
     54          1           0      -22.678457   -3.334632    2.165954
     55          1           0      -22.523232   -5.953486    2.733369
     56          1           0      -21.108802   -5.016551    2.195688
     57          1           0      -30.427856   -2.333389   -0.807267
     58          1           0      -30.469131   -2.171555    0.873909
     59          1           0      -29.282889   -3.243481    0.182720
     60          1           0      -31.726421   -0.447091    0.315812
     61          1           0      -31.635121   -0.587785   -1.491822
     62          1           0      -32.553083    0.660161   -0.841527
     63          1           0      -27.012548    5.179231   -0.232293
     64          1           0      -24.220352    5.562235   -1.096707
     65          1           0      -25.654449    5.325861   -2.814247
     66          1           0      -27.260463    5.839813   -2.537721
     67          1           0      -26.875571    4.102598   -2.987244
     68          1           0      -25.774638    6.448837    0.861914
     69          1           0      -24.062473    6.848429    0.688461
     70          1           0      -25.255958    4.603837    2.266278
     71          1           0      -24.939895    6.305201    2.855223
     72          1           0      -23.636044    5.060379    2.570431
     73          1           0      -19.709742    4.004587    0.190501
     74          1           0      -18.763913    2.612943   -0.231733
     75          1           0      -19.028760    2.904728    1.458056
     76          1           0      -20.494022   -2.315430    1.829582
     77          1           0      -18.037588   -4.182287   -1.159168
     78          1           0      -18.521085   -5.322995    0.042990
     79          1           0      -17.300303   -4.427828    0.574983
     80         12           0       24.948683   -0.038036    0.003040
     81          6           0       21.590524   -1.014228   -0.436171
     82          6           0       25.051106    0.554837   -3.295847
     83          6           0       27.862007    1.312177    0.611383
     84          6           0       24.271169   -0.093326    3.511371
     85          7           0       23.451852   -0.176750   -1.652106
     86          6           0       22.186888   -0.660066   -1.655747
     87          6           0       21.555838   -0.703166   -3.032670
     88          6           0       22.832689   -0.442691   -3.928625
     89          6           0       23.876350    0.027707   -2.936796
     90          6           0       23.331593   -1.695740   -4.760071
     91          6           0       20.347810    0.251780   -3.432211
     92          6           0       19.982398    1.497317   -2.581786
     93          1           0       19.416655    2.761508   -3.330467
     94          7           0       26.328026    0.703088   -1.267229
     95          6           0       26.167924    0.970698   -2.556325
     96          6           0       27.374280    1.686669   -3.053573
     97          6           0       28.295807    1.757502   -1.884417
     98          6           0       27.485121    1.253543   -0.775480
     99          6           0       27.616541    2.026593   -4.499483
    100          6           0       29.677053    2.358495   -1.887145
    101          8           0       30.140183    2.766167   -2.949512
    102          6           0       30.580348    2.575888   -0.617526
    103          7           0       25.936065    0.659536    1.869476
    104          6           0       27.171469    0.999967    1.739061
    105          6           0       27.774996    1.173442    3.203573
    106          6           0       26.523268    0.953390    4.055587
    107          6           0       25.464018    0.481073    3.078432
    108          6           0       28.971699    0.306104    3.628305
    109          6           0       25.930201    2.311625    4.699155
    110          6           0       26.002768    2.433149    6.232328
    111          7           0       23.315107   -0.386035    1.316285
    112          6           0       23.212821   -0.495312    2.677946
    113          6           0       21.926965   -1.136453    3.056846
    114          6           0       21.173115   -1.252734    1.854811
    115          6           0       22.146867   -0.873250    0.832692
    116          6           0       21.402966   -1.404232    4.485425
    117          6           0       19.940045   -1.614444    1.239238
    118          8           0       18.809078   -1.903943    1.665877
    119          6           0       20.175004   -1.550519   -0.291426
    120          6           0       19.897093   -2.952739   -0.840844
    121          8           0       18.987504   -3.413987   -1.477652
    122          8           0       21.056890   -3.714921   -0.663453
    123          6           0       21.070849   -5.099105   -1.230632
    124          1           0       25.053128    0.746535   -4.371060
    125          1           0       28.859089    1.733953    0.759502
    126          1           0       24.180043   -0.348491    4.568877
    127          1           0       21.267706   -1.745458   -3.168247
    128          1           0       22.603038    0.327758   -4.664820
    129          1           0       22.731789   -2.576751   -4.534175
    130          1           0       24.297951   -1.890029   -4.296058
    131          1           0       23.363826   -1.443414   -5.820133
    132          1           0       19.463365   -0.380585   -3.510578
    133          1           0       20.503437    0.606066   -4.451776
    134          1           0       20.903390    1.784643   -2.074470
    135          1           0       19.137932    1.340377   -1.911411
    136          1           0       28.650392    2.299413   -4.710152
    137          1           0       26.859975    2.763950   -4.770443
    138          1           0       27.295756    1.129467   -5.030002
    139          1           0       30.793875    1.756022    0.069314
    140          1           0       30.080342    3.296019    0.030175
    141          1           0       31.571043    2.946851   -0.878648
    142          1           0       28.185576    2.172095    3.348757
    143          1           0       26.580134    0.279466    4.911103
    144          1           0       29.304221   -0.349122    2.823032
    145          1           0       28.757330   -0.260657    4.534976
    146          1           0       29.865944    0.884197    3.861205
    147          1           0       24.874129    2.440567    4.466101
    148          1           0       26.488211    3.121929    4.229474
    149          1           0       25.187192    2.986098    6.699017
    150          1           0       26.907335    3.008713    6.428566
    151          1           0       26.009477    1.394770    6.563949
    152          1           0       21.951879   -0.900711    5.280531
    153          1           0       21.515686   -2.481149    4.608072
    154          1           0       20.333048   -1.197814    4.497972
    155          1           0       19.476997   -0.840536   -0.733828
    156          1           0       20.130572   -5.646472   -1.292995
    157          1           0       21.676533   -5.652676   -0.513380
    158          1           0       21.570025   -5.265155   -2.185497
 ---------------------------------------------------------------------

 SCF Done:  E(RPBE1PBE) =  -4067.35915336     A.U. after   16 cycles

 Excitation energies and oscillator strengths:

 Excited State   1:      Singlet-A      1.8764 eV  660.74 nm  f=0.3954  <S**2>=0.000
     310 -> 316        0.18220
     312 -> 314        0.69068
     312 <- 314       -0.10327
 This state for optimization and/or second-order correction.
 Total Energy, E(TD-HF/TD-DFT) =  -4067.29019515
 Copying the excited state density for this state as the 1-particle RhoCI density.

 Excited State   2:      Singlet-A      1.9019 eV  651.88 nm  f=0.0000  <S**2>=0.000
     312 -> 313        0.70711

 Excited State   3:      Singlet-A      1.9112 eV  648.73 nm  f=0.3898  <S**2>=0.000
     309 -> 315       -0.17699
     311 -> 313        0.69109
     311 <- 313       -0.10567

 Excited State   4:      Singlet-A      2.1638 eV  573.00 nm  f=0.0000  <S**2>=0.000
     311 -> 314        0.70711

 Excited State   5:      Singlet-A      2.2078 eV  561.58 nm  f=0.0947  <S**2>=0.000
     310 -> 314        0.65478
     312 -> 316       -0.25277

 The electronic state is 1-A.
 Alpha  occ. eigenvalues --  -46.93454 -46.92156 -19.26781 -19.25206 -19.20571
 Alpha  occ. eigenvalues --  -19.19726 -19.19518 -19.19365 -19.18965 -19.18965
 Alpha  occ. eigenvalues --  -14.41824 -14.41366 -14.41299 -14.40960 -14.40006
 Alpha  occ. eigenvalues --  -14.39878 -14.38855 -14.38510 -10.36849 -10.36003
 Alpha  occ. eigenvalues --  -10.32913 -10.32659 -10.32371 -10.31773 -10.29183
 Alpha  occ. eigenvalues --  -10.29104 -10.29058 -10.28815 -10.28725 -10.28673
 Alpha  occ. eigenvalues --  -10.28657 -10.28644 -10.28546 -10.28500 -10.28083
 Alpha  occ. eigenvalues --  -10.27935 -10.27794 -10.27627 -10.27623 -10.27593
 Alpha  occ. eigenvalues --  -10.27429 -10.26926 -10.26918 -10.26851 -10.26805
 Alpha  occ. eigenvalues --  -10.26737 -10.26733 -10.26589 -10.26479 -10.26291
 Alpha  occ. eigenvalues --  -10.25976 -10.25887 -10.25846 -10.25748 -10.25729
 Alpha  occ. eigenvalues --  -10.25583 -10.25464 -10.25381 -10.25219 -10.25137
 Alpha  occ. eigenvalues --  -10.24936 -10.24857 -10.24815 -10.24773 -10.24690
 Alpha  occ. eigenvalues --  -10.24453 -10.24377 -10.24302 -10.24294 -10.24266
 Alpha  occ. eigenvalues --  -10.24210 -10.24137 -10.24031 -10.24030 -10.23991
 Alpha  occ. eigenvalues --  -10.23928 -10.23752 -10.23729 -10.23672 -10.23514
 Alpha  occ. eigenvalues --  -10.23264 -10.23207 -10.23010 -10.22876 -10.22616
 Alpha  occ. eigenvalues --  -10.22437  -3.15513  -3.14196  -1.88341  -1.87885
 Alpha  occ. eigenvalues --   -1.87739  -1.87045  -1.86606  -1.86379  -1.12997
 Alpha  occ. eigenvalues --   -1.10749  -1.06272  -1.04448  -1.04093  -1.03881
 Alpha  occ. eigenvalues --   -1.03325  -1.02057  -1.01396  -0.99576  -0.99424
 Alpha  occ. eigenvalues --   -0.98699  -0.98374  -0.98025  -0.97155  -0.96664
 Alpha  occ. eigenvalues --   -0.87842  -0.87545  -0.84167  -0.83177  -0.82998
 Alpha  occ. eigenvalues --   -0.82869  -0.82838  -0.82624  -0.82383  -0.81401
 Alpha  occ. eigenvalues --   -0.81102  -0.80407  -0.79889  -0.79835  -0.79187
 Alpha  occ. eigenvalues --   -0.78722  -0.78189  -0.77965  -0.77168  -0.76855
 Alpha  occ. eigenvalues --   -0.76021  -0.75718  -0.75110  -0.75090  -0.74780
 Alpha  occ. eigenvalues --   -0.74279  -0.72831  -0.72215  -0.71980  -0.71586
 Alpha  occ. eigenvalues --   -0.71329  -0.71310  -0.70939  -0.70573  -0.69785
 Alpha  occ. eigenvalues --   -0.69481  -0.67736  -0.67060  -0.66882  -0.66167
 Alpha  occ. eigenvalues --   -0.64007  -0.63847  -0.63578  -0.63288  -0.63061
 Alpha  occ. eigenvalues --   -0.62356  -0.62066  -0.61308  -0.60599  -0.60161
 Alpha  occ. eigenvalues --   -0.59993  -0.59698  -0.59425  -0.59408  -0.59152
 Alpha  occ. eigenvalues --   -0.58850  -0.57657  -0.57277  -0.55126  -0.54887
 Alpha  occ. eigenvalues --   -0.54383  -0.54171  -0.54042  -0.53740  -0.53176
 Alpha  occ. eigenvalues --   -0.53081  -0.52737  -0.52353  -0.51844  -0.51665
 Alpha  occ. eigenvalues --   -0.51368  -0.51018  -0.50557  -0.50408  -0.50137
 Alpha  occ. eigenvalues --   -0.49602  -0.49464  -0.49359  -0.49181  -0.49056
 Alpha  occ. eigenvalues --   -0.48506  -0.48270  -0.48129  -0.47813  -0.47529
 Alpha  occ. eigenvalues --   -0.47431  -0.47365  -0.47182  -0.46612  -0.46498
 Alpha  occ. eigenvalues --   -0.46297  -0.46258  -0.46091  -0.45893  -0.45744
 Alpha  occ. eigenvalues --   -0.45723  -0.45631  -0.45471  -0.45206  -0.44653
 Alpha  occ. eigenvalues --   -0.44633  -0.44415  -0.44262  -0.44070  -0.43941
 Alpha  occ. eigenvalues --   -0.43759  -0.43706  -0.43477  -0.43448  -0.43250
 Alpha  occ. eigenvalues --   -0.43218  -0.43140  -0.43050  -0.42902  -0.42799
 Alpha  occ. eigenvalues --   -0.42634  -0.42600  -0.42318  -0.42172  -0.41906
 Alpha  occ. eigenvalues --   -0.41884  -0.41687  -0.41531  -0.41345  -0.41118
 Alpha  occ. eigenvalues --   -0.41090  -0.40830  -0.40769  -0.40681  -0.40597
 Alpha  occ. eigenvalues --   -0.40580  -0.40357  -0.40242  -0.40227  -0.40116
 Alpha  occ. eigenvalues --   -0.39911  -0.39666  -0.39658  -0.39543  -0.39158
 Alpha  occ. eigenvalues --   -0.39015  -0.38803  -0.38457  -0.38392  -0.38136
 Alpha  occ. eigenvalues --   -0.38109  -0.38019  -0.37911  -0.37904  -0.37686
 Alpha  occ. eigenvalues --   -0.37686  -0.37522  -0.37042  -0.37002  -0.36963
 Alpha  occ. eigenvalues --   -0.36845  -0.36660  -0.36488  -0.36302  -0.36139
 Alpha  occ. eigenvalues --   -0.36074  -0.35972  -0.35807  -0.35592  -0.35539
 Alpha  occ. eigenvalues --   -0.35120  -0.34895  -0.34517  -0.34254  -0.34106
 Alpha  occ. eigenvalues --   -0.33815  -0.33262  -0.33252  -0.32692  -0.32155
 Alpha  occ. eigenvalues --   -0.32110  -0.31967  -0.31705  -0.31533  -0.31309
 Alpha  occ. eigenvalues --   -0.31293  -0.31165  -0.30052  -0.29426  -0.29412
 Alpha  occ. eigenvalues --   -0.29088  -0.29076  -0.28507  -0.27431  -0.26578
 Alpha  occ. eigenvalues --   -0.26460  -0.26145  -0.25991  -0.25892  -0.25387
 Alpha  occ. eigenvalues --   -0.25350  -0.25063  -0.24716  -0.21412  -0.20695
 Alpha  occ. eigenvalues --   -0.19181  -0.18684
 Alpha virt. eigenvalues --   -0.11425  -0.10959  -0.05527  -0.04986  -0.04774
 Alpha virt. eigenvalues --   -0.03921  -0.02651  -0.01595  -0.01446   0.00030
 Alpha virt. eigenvalues --    0.00181   0.00526   0.01107   0.01244   0.01258

 Mulliken charges:
               1
     1  Mg  11.998432
     2  C    5.992581
     3  C    6.016966
     4  C    6.009104
     5  C    5.980128
     6  N    7.003802
     7  C    6.025900
     8  C    5.994616
     9  C    6.009526
    10  C    5.961631
    11  C    6.000174
    12  C    5.998103
    13  C    5.998589
    14  H    1.004678
    15  N    7.008033
    16  C    5.957413
    17  C    5.985472
    18  C    5.982969
    19  C    5.972685
    20  C    6.002604
    21  C    5.985993
    22  O    7.975147
    23  C    6.005897
    24  N    6.994160
    25  C    5.969656
    26  C    6.009498
    27  C    5.990278
    28  C    6.033994
    29  C    6.005929
    30  C    5.998674
    31  C    5.993438
    32  N    6.998071
    33  C    6.038166
    34  C    6.030077
    35  C    6.002556
    36  C    6.026865
    37  C    5.997785
    38  C    6.018401
    39  O    8.028953
    40  C    5.996350
    41  C    6.005815
    42  O    8.007347
    43  O    8.000529
    44  C    5.995551
    45  H    0.990723
    46  H    0.993015
    47  H    1.005891
    48  H    1.000937
    49  H    0.997854
    50  H    0.987348
    51  H    1.004408
    52  H    0.998041
    53  H    1.013041
    54  H    0.993567
    55  H    1.004229
    56  H    0.994983
    57  H    0.984226
    58  H    0.982987
    59  H    0.982986
    60  H    0.993947
    61  H    0.991923
    62  H    0.985675
    63  H    0.999296
    64  H    1.000861
    65  H    0.988188
    66  H    0.996391
    67  H    1.003282
    68  H    1.009948
    69  H    0.999974
    70  H    1.009651
    71  H    1.004625
    72  H    0.992440
    73  H    1.018806
    74  H    1.016692
    75  H    1.017068
    76  H    1.010286
    77  H    1.003626
    78  H    1.007024
    79  H    1.003522
    80  Mg  12.000032
    81  C    6.000166
    82  C    5.999777
    83  C    5.999781
    84  C    6.000248
    85  N    6.999962
    86  C    5.999602
    87  C    6.000201
    88  C    5.999853
    89  C    6.000392
    90  C    5.999981
    91  C    5.999970
    92  C    6.000151
    93  H    0.999810
    94  N    6.999985
    95  C    6.000512
    96  C    6.000362
    97  C    6.000092
    98  C    6.000439
    99  C    6.000021
   100  C    6.000148
   101  O    8.000249
   102  C    5.999977
   103  N    7.000069
   104  C    6.000366
   105  C    5.999885
   106  C    6.000076
   107  C    5.999561
   108  C    5.999974
   109  C    6.000070
   110  C    5.999995
   111  N    6.999990
   112  C    5.999541
   113  C    5.999644
   114  C    5.999953
   115  C    5.999699
   116  C    5.999934
   117  C    5.999706
   118  O    7.999509
   119  C    5.999999
   120  C    6.000001
   121  O    7.999827
   122  O    8.000040
   123  C    6.000035
   124  H    1.000119
   125  H    1.000148
   126  H    0.999923
   127  H    0.999976
   128  H    1.000007
   129  H    1.000154
   130  H    0.999975
   131  H    1.000028
   132  H    0.999980
   133  H    0.999895
   134  H    0.999991
   135  H    1.000001
   136  H    1.000213
   137  H    1.000251
   138  H    1.000262
   139  H    1.000148
   140  H    1.000111
   141  H    1.000190
   142  H    1.000019
   143  H    1.000027
   144  H    0.999985
   145  H    1.000136
   146  H    1.000041
   147  H    1.000019
   148  H    0.999855
   149  H    0.999985
   150  H    0.999962
   151  H    1.000022
   152  H    0.999781
   153  H    0.999793
   154  H    0.999785
   155  H    0.999811
   156  H    0.999924
   157  H    0.999997
   158  H    0.999903
 Sum of Mulliken charges = 624.00000

 Dipole moment (field-independent basis, Debye):
    X=             10.3558    Y=              1.5635    Z=              1.2033  Tot=             10.5421
 Quadrupole moment (field-independent basis, Debye-Ang):
   XX=           -500.3336   YY=              3.5669   ZZ=              0.0289
   XY=            -33.9132   XZ=            -32.3004   YZ=              1.3551

 Normal termination of Gaussian 16 at Fri Oct 15 19:29:18 2021.
