 Gaussian 16, Revision A.03,
 Gaussian 16:  ES64L-G16RevA.03 25-Dec-2016

 --------------------------------------------------------
 #p PBE1PBE/Def2SVP td=(nstates=5) density=(transition=1)
 --------------------------------------------------------

 --------------------------------
 TDDFT excited states in gaussian
 --------------------------------
 Symbolic Z-matrix:
 Charge =  0 Multiplicity = 1

                         Standard orientation:
 ---------------------------------------------------------------------
 Center     Atomic      Atomic             Coordinates (Angstroms)
 Number     Number       Type             X           Y           Z
 ---------------------------------------------------------------------
      1         12           0       21.521579    0.822801   -0.251301
      2          6           0       22.783065   -2.348902    0.826273
      3          6           0       18.889983   -0.858444   -1.626504
      4          6           0       20.625027    3.549231   -1.600153
      5          6           0       24.737895    2.088063    0.196009
      6          7           0       21.011994   -1.330293   -0.323096
      7          6           0       21.548030   -2.437789    0.180183
      8          6           0       20.637034   -3.691849    0.022727
      9          6           0       19.764362   -3.214211   -1.223187
     10          6           0       19.863943   -1.711613   -1.027724
     11          6           0       20.378548   -3.575882   -2.571694
     12          6           0       19.744935   -3.940939    1.285202
     13          6           0       19.072271   -5.315272    1.349103
     14          1           0       18.912357   -5.957087    2.645193
     15          7           0       19.779352    1.365651   -1.008141
     16          6           0       18.822375    0.546524   -1.506652
     17          6           0       17.719686    1.428267   -1.946294
     18          6           0       18.192073    2.836479   -1.837274
     19          6           0       19.577824    2.636520   -1.498028
     20          6           0       16.373741    0.918189   -2.361028
     21          6           0       17.506376    4.153298   -2.021498
     22          8           0       18.154916    5.251777   -2.107029
     23          6           0       16.042460    4.113754   -2.190103
     24          7           0       22.574236    2.519746   -0.859518
     25          6           0       21.937596    3.583810   -1.360955
     26          6           0       22.850420    4.769996   -1.459216
     27          6           0       24.189006    4.362634   -0.689803
     28          6           0       23.821248    2.900952   -0.334122
     29          6           0       23.199150    5.230117   -2.881427
     30          6           0       24.659711    5.302603    0.448315
     31          6           0       23.677889    5.248917    1.597332
     32          7           0       23.395614    0.087056    0.559696
     33          6           0       24.614562    0.777333    0.625718
     34          6           0       25.617387   -0.166324    1.152897
     35          6           0       24.911203   -1.352569    1.342559
     36          6           0       23.559350   -1.169577    0.933535
     37          6           0       27.001082    0.106826    1.340549
     38          6           0       24.989977   -2.739228    1.772476
     39          8           0       25.855291   -3.433121    2.308422
     40          6           0       23.645002   -3.474695    1.341248
     41          6           0       23.150258   -4.251519    2.530820
     42          8           0       22.746002   -3.664412    3.555148
     43          8           0       23.007735   -5.541813    2.191159
     44          6           0       22.491499   -6.363149    3.318572
     45          1           0       18.145944   -1.294939   -2.295696
     46          1           0       20.333535    4.538952   -1.957813
     47          1           0       25.742777    2.436284    0.441787
     48          1           0       21.168017   -4.611097   -0.225193
     49          1           0       18.727225   -3.538989   -1.142018
     50          1           0       21.380271   -3.989286   -2.455205
     51          1           0       20.414799   -2.642977   -3.134603
     52          1           0       19.719030   -4.238747   -3.132429
     53          1           0       18.861726   -3.304368    1.232472
     54          1           0       20.315860   -3.776117    2.199645
     55          1           0       19.512409   -6.008204    0.631445
     56          1           0       18.038738   -5.205273    1.020606
     57          1           0       16.379792   -0.162421   -2.498107
     58          1           0       16.174674    1.317037   -3.355513
     59          1           0       15.586796    1.231701   -1.674908
     60          1           0       15.796762    3.504939   -3.060463
     61          1           0       15.714957    5.152380   -2.219201
     62          1           0       15.601379    3.610227   -1.329373
     63          1           0       22.411859    5.642032   -0.975848
     64          1           0       25.046250    4.308075   -1.361242
     65          1           0       22.945678    6.271934   -3.079096
     66          1           0       22.696551    4.565386   -3.583438
     67          1           0       24.242929    5.093513   -3.162997
     68          1           0       24.689617    6.334433    0.099921
     69          1           0       25.649383    5.052969    0.831045
     70          1           0       22.907601    5.956459    1.292585
     71          1           0       24.157681    5.568786    2.522910
     72          1           0       23.207757    4.268293    1.673751
     73          1           0       27.267216   -0.317488    2.308588
     74          1           0       27.201166    1.177605    1.308887
     75          1           0       27.428749   -0.423220    0.489663
     76          1           0       23.897702   -4.124702    0.504136
     77          1           0       23.201554   -7.175188    3.475568
     78          1           0       21.465863   -6.630130    3.063236
     79          1           0       22.498250   -5.890947    4.301587
     80         12           0      -22.464046   -0.261504    0.272036
     81          6           0      -19.111870   -1.089060    0.358608
     82          6           0      -21.994733    1.542813    3.165911
     83          6           0      -25.615190    1.047132   -0.124156
     84          6           0      -22.825577   -1.993826   -2.680852
     85          7           0      -20.730267    0.336679    1.485218
     86          6           0      -19.466540   -0.202642    1.346614
     87          6           0      -18.516012    0.288171    2.435380
     88          6           0      -19.535445    0.842273    3.499266
     89          6           0      -20.800801    0.954890    2.661543
     90          6           0      -19.681615    0.032096    4.866188
     91          6           0      -17.405564    1.291391    1.987721
     92          6           0      -16.015814    1.015121    2.521417
     93          1           0      -15.572758    2.059042    3.534697
     94          7           0      -23.588863    1.099586    1.367586
     95          6           0      -23.243429    1.696214    2.514059
     96          6           0      -24.344228    2.487572    3.035802
     97          6           0      -25.429262    2.425398    2.177433
     98          6           0      -24.909886    1.543650    1.045572
     99          6           0      -24.217333    3.368823    4.368229
    100          6           0      -26.845493    3.056864    2.396590
    101          8           0      -27.035318    3.778274    3.416465
    102          6           0      -27.945023    2.874497    1.421708
    103          7           0      -23.984220   -0.250002   -1.367333
    104          6           0      -25.209335    0.195849   -1.210201
    105          6           0      -26.173801   -0.361079   -2.236394
    106          6           0      -25.336304   -1.293732   -3.175721
    107          6           0      -23.961783   -1.268806   -2.350411
    108          6           0      -27.586650   -0.857926   -1.792313
    109          6           0      -25.119741   -0.921551   -4.671197
    110          6           0      -24.667512   -2.096308   -5.513708
    111          7           0      -21.201214   -1.340300   -0.957425
    112          6           0      -21.507051   -2.085007   -2.119981
    113          6           0      -20.324313   -2.805628   -2.505071
    114          6           0      -19.334292   -2.485906   -1.544158
    115          6           0      -19.938654   -1.572168   -0.685200
    116          6           0      -20.231759   -3.897302   -3.560775
    117          6           0      -18.032553   -2.768463   -1.190960
    118          8           0      -17.124435   -3.380894   -1.683216
    119          6           0      -17.750171   -1.737094    0.021198
    120          6           0      -16.956725   -0.608507   -0.635525
    121          8           0      -17.426721    0.300888   -1.291790
    122          8           0      -15.620962   -0.843032   -0.351798
    123          6           0      -14.666892    0.064574   -0.980799
    124          1           0      -21.963812    1.961467    4.173832
    125          1           0      -26.611734    1.489395   -0.180170
    126          1           0      -22.827178   -2.690326   -3.521870
    127          1           0      -18.051467   -0.590608    2.881706
    128          1           0      -19.285452    1.893175    3.649382
    129          1           0      -20.680560    0.326581    5.187699
    130          1           0      -19.047449    0.398071    5.674033
    131          1           0      -19.563439   -1.050044    4.812141
    132          1           0      -17.769330    2.246622    2.366827
    133          1           0      -17.366117    1.544699    0.928498
    134          1           0      -15.339872    0.993778    1.666274
    135          1           0      -15.947669    0.054034    3.031473
    136          1           0      -23.233828    3.359323    4.839936
    137          1           0      -24.948699    3.047186    5.110436
    138          1           0      -24.322569    4.437362    4.185661
    139          1           0      -28.168103    1.812932    1.319634
    140          1           0      -27.761164    3.427420    0.500433
    141          1           0      -28.828992    3.214586    1.959760
    142          1           0      -26.494059    0.338726   -3.008555
    143          1           0      -25.575154   -2.348478   -3.037437
    144          1           0      -27.722006   -0.496397   -0.772029
    145          1           0      -27.741782   -1.928447   -1.931400
    146          1           0      -28.411864   -0.421065   -2.354881
    147          1           0      -24.423943   -0.082636   -4.673521
    148          1           0      -26.078494   -0.508456   -4.984469
    149          1           0      -25.061509   -1.948266   -6.519479
    150          1           0      -25.010936   -3.074185   -5.174117
    151          1           0      -23.585706   -2.047262   -5.638034
    152          1           0      -19.290472   -4.446802   -3.546316
    153          1           0      -20.400990   -3.431626   -4.530790
    154          1           0      -21.025253   -4.634519   -3.437872
    155          1           0      -17.294338   -2.241000    0.874043
    156          1           0      -14.695032   -0.071581   -2.062022
    157          1           0      -13.661367   -0.063706   -0.581554
    158          1           0      -14.980359    1.094156   -0.810489
 ---------------------------------------------------------------------

 SCF Done:  E(RPBE1PBE) =  -4067.37869393     A.U. after   18 cycles

 Excitation energies and oscillator strengths:

 Excited State   1:      Singlet-A      1.8414 eV  673.31 nm  f=0.3808  <S**2>=0.000
     309 -> 316        0.16191
     312 -> 313        0.69323
     312 <- 313       -0.11106
 This state for optimization and/or second-order correction.
 Total Energy, E(TD-HF/TD-DFT) =  -4067.31102291
 Copying the excited state density for this state as the 1-particle RhoCI density.

 Excited State   2:      Singlet-A      1.8859 eV  657.44 nm  f=0.3565  <S**2>=0.000
     310 -> 315        0.14499
     311 -> 314        0.69235

 Excited State   3:      Singlet-A      1.9919 eV  622.44 nm  f=0.0000  <S**2>=0.000
     312 -> 314        0.70711

 Excited State   4:      Singlet-A      2.0314 eV  610.33 nm  f=0.0000  <S**2>=0.000
     311 -> 313        0.70710

 Excited State   5:      Singlet-A      2.1930 eV  565.37 nm  f=0.0924  <S**2>=0.000
     309 -> 313        0.65166
     312 -> 316       -0.24162

 The electronic state is 1-A.
 Alpha  occ. eigenvalues --  -46.92816 -46.91164 -19.26898 -19.25348 -19.20299
 Alpha  occ. eigenvalues --  -19.20095 -19.19278 -19.18983 -19.18498 -19.18389
 Alpha  occ. eigenvalues --  -14.41918 -14.41742 -14.41608 -14.40933 -14.39999
 Alpha  occ. eigenvalues --  -14.39024 -14.38440 -14.38229 -10.36327 -10.36081
 Alpha  occ. eigenvalues --  -10.33850 -10.32465 -10.31546 -10.30967 -10.30244
 Alpha  occ. eigenvalues --  -10.29706 -10.29119 -10.29034 -10.28880 -10.28608
 Alpha  occ. eigenvalues --  -10.28562 -10.28504 -10.28192 -10.28142 -10.28110
 Alpha  occ. eigenvalues --  -10.27976 -10.27869 -10.27519 -10.27232 -10.27010
 Alpha  occ. eigenvalues --  -10.26886 -10.26862 -10.26540 -10.26385 -10.26147
 Alpha  occ. eigenvalues --  -10.26071 -10.26038 -10.26035 -10.25990 -10.25872
 Alpha  occ. eigenvalues --  -10.25858 -10.25550 -10.25429 -10.25427 -10.25350
 Alpha  occ. eigenvalues --  -10.25347 -10.25322 -10.25287 -10.25246 -10.25229
 Alpha  occ. eigenvalues --  -10.25184 -10.25162 -10.24823 -10.24750 -10.24582
 Alpha  occ. eigenvalues --  -10.24576 -10.24558 -10.24549 -10.24528 -10.24472
 Alpha  occ. eigenvalues --  -10.24307 -10.24254 -10.23856 -10.23770 -10.23660
 Alpha  occ. eigenvalues --  -10.23653 -10.23587 -10.23586 -10.23362 -10.23250
 Alpha  occ. eigenvalues --  -10.23142 -10.22889 -10.22568 -10.22375 -10.22067
 Alpha  occ. eigenvalues --  -10.21464  -3.14837  -3.13481  -1.87661  -1.87215
 Alpha  occ. eigenvalues --   -1.87064  -1.86304  -1.85869  -1.85715  -1.11395
 Alpha  occ. eigenvalues --   -1.10394  -1.05061  -1.03503  -1.03341  -1.02917
 Alpha  occ. eigenvalues --   -1.01810  -1.01424  -0.99187  -0.99145  -0.98399
 Alpha  occ. eigenvalues --   -0.98341  -0.97921  -0.97873  -0.97233  -0.97062
 Alpha  occ. eigenvalues --   -0.86303  -0.86257  -0.83807  -0.83495  -0.83425
 Alpha  occ. eigenvalues --   -0.82785  -0.82565  -0.82198  -0.82177  -0.81947
 Alpha  occ. eigenvalues --   -0.81410  -0.81400  -0.80597  -0.80382  -0.79206
 Alpha  occ. eigenvalues --   -0.78671  -0.78199  -0.77956  -0.77254  -0.77130
 Alpha  occ. eigenvalues --   -0.76845  -0.76376  -0.75867  -0.75214  -0.74915
 Alpha  occ. eigenvalues --   -0.74625  -0.73076  -0.72005  -0.71518  -0.71370
 Alpha  occ. eigenvalues --   -0.71204  -0.70952  -0.70214  -0.69776  -0.69504
 Alpha  occ. eigenvalues --   -0.69200  -0.67215  -0.66964  -0.66137  -0.66061
 Alpha  occ. eigenvalues --   -0.64194  -0.64108  -0.63505  -0.63205  -0.62506
 Alpha  occ. eigenvalues --   -0.62092  -0.61634  -0.61526  -0.60049  -0.59933
 Alpha  occ. eigenvalues --   -0.59679  -0.59392  -0.59240  -0.59069  -0.58741
 Alpha  occ. eigenvalues --   -0.58735  -0.56848  -0.56423  -0.54918  -0.54379
 Alpha  occ. eigenvalues --   -0.54278  -0.54172  -0.53596  -0.53591  -0.53091
 Alpha  occ. eigenvalues --   -0.53012  -0.52552  -0.52091  -0.52078  -0.51776
 Alpha  occ. eigenvalues --   -0.50856  -0.50846  -0.50347  -0.50153  -0.50026
 Alpha  occ. eigenvalues --   -0.49809  -0.49718  -0.49053  -0.48744  -0.48432
 Alpha  occ. eigenvalues --   -0.48366  -0.48119  -0.48048  -0.47926  -0.47787
 Alpha  occ. eigenvalues --   -0.47725  -0.47527  -0.47235  -0.47075  -0.46952
 Alpha  occ. eigenvalues --   -0.46629  -0.46391  -0.46224  -0.46157  -0.45832
 Alpha  occ. eigenvalues --   -0.45730  -0.45500  -0.45249  -0.45055  -0.44773
 Alpha  occ. eigenvalues --   -0.44607  -0.44564  -0.44455  -0.44288  -0.44101
 Alpha  occ. eigenvalues --   -0.44001  -0.43836  -0.43769  -0.43680  -0.43404
 Alpha  occ. eigenvalues --   -0.43278  -0.43193  -0.43090  -0.42983  -0.42889
 Alpha  occ. eigenvalues --   -0.42309  -0.42279  -0.42042  -0.41923  -0.41626
 Alpha  occ. eigenvalues --   -0.41538  -0.41286  -0.41217  -0.41062  -0.41044
 Alpha  occ. eigenvalues --   -0.40848  -0.40842  -0.40622  -0.40528  -0.40109
 Alpha  occ. eigenvalues --   -0.40047  -0.39953  -0.39915  -0.39597  -0.39466
 Alpha  occ. eigenvalues --   -0.39276  -0.39195  -0.38902  -0.38873  -0.38826
 Alpha  occ. eigenvalues --   -0.38811  -0.38717  -0.38536  -0.38270  -0.38255
 Alpha  occ. eigenvalues --   -0.38212  -0.37879  -0.37833  -0.37525  -0.37464
 Alpha  occ. eigenvalues --   -0.37420  -0.37403  -0.37203  -0.37095  -0.36883
 Alpha  occ. eigenvalues --   -0.36833  -0.36537  -0.36481  -0.36341  -0.35936
 Alpha  occ. eigenvalues --   -0.35871  -0.35751  -0.35565  -0.35455  -0.35385
 Alpha  occ. eigenvalues --   -0.35119  -0.34982  -0.34920  -0.34310  -0.34210
 Alpha  occ. eigenvalues --   -0.33976  -0.33391  -0.33055  -0.32697  -0.32463
 Alpha  occ. eigenvalues --   -0.32356  -0.32228  -0.31680  -0.31572  -0.31441
 Alpha  occ. eigenvalues --   -0.31230  -0.30504  -0.29669  -0.29483  -0.29287
 Alpha  occ. eigenvalues --   -0.28891  -0.28722  -0.28388  -0.27240  -0.26789
 Alpha  occ. eigenvalues --   -0.26694  -0.26414  -0.25975  -0.25329  -0.25089
 Alpha  occ. eigenvalues --   -0.24958  -0.24926  -0.24803  -0.20950  -0.20889
 Alpha  occ. eigenvalues --   -0.18968  -0.18733
 Alpha virt. eigenvalues --   -0.11197  -0.11115  -0.05493  -0.05318  -0.04127
 Alpha virt. eigenvalues --   -0.03936  -0.02538  -0.02149  -0.00951   0.00380
 Alpha virt. eigenvalues --    0.00449   0.00476   0.00865   0.01238   0.02036

 Mulliken charges:
               1
     1  Mg  12.000624
     2  C    5.985322
     3  C    6.011862
     4  C    6.012137
     5  C    5.985654
     6  N    6.992146
     7  C    6.031742
     8  C    5.991565
     9  C    6.008690
    10  C    5.972871
    11  C    6.000727
    12  C    5.996378
    13  C    5.998944
    14  H    0.999659
    15  N    7.003447
    16  C    5.963417
    17  C    5.971125
    18  C    5.984925
    19  C    5.979210
    20  C    6.005148
    21  C    5.985714
    22  O    7.969380
    23  C    6.004894
    24  N    7.000728
    25  C    5.973588
    26  C    6.011230
    27  C    5.988190
    28  C    6.031318
    29  C    5.999538
    30  C    5.996344
    31  C    5.999017
    32  N    6.996680
    33  C    6.043886
    34  C    6.022454
    35  C    6.006163
    36  C    6.028695
    37  C    5.996735
    38  C    6.014901
    39  O    8.030215
    40  C    6.001443
    41  C    6.003349
    42  O    8.004330
    43  O    8.001833
    44  C    5.998778
    45  H    0.992188
    46  H    0.994092
    47  H    1.008892
    48  H    0.999251
    49  H    1.000408
    50  H    0.984575
    51  H    1.004476
    52  H    0.996745
    53  H    1.013200
    54  H    0.994409
    55  H    1.000765
    56  H    1.006594
    57  H    0.980634
    58  H    0.980224
    59  H    0.979439
    60  H    0.994794
    61  H    0.985598
    62  H    0.992858
    63  H    1.000965
    64  H    1.004009
    65  H    1.000028
    66  H    1.005272
    67  H    0.990575
    68  H    1.008966
    69  H    0.997151
    70  H    1.011222
    71  H    1.001346
    72  H    0.997305
    73  H    1.015560
    74  H    1.016571
    75  H    1.018243
    76  H    1.007734
    77  H    1.002867
    78  H    1.005887
    79  H    1.002158
    80  Mg  11.999989
    81  C    5.999914
    82  C    6.000086
    83  C    6.000052
    84  C    5.999840
    85  N    7.000028
    86  C    6.000301
    87  C    5.999998
    88  C    6.000088
    89  C    5.999798
    90  C    6.000008
    91  C    5.999955
    92  C    5.999936
    93  H    1.000132
    94  N    6.999980
    95  C    5.999695
    96  C    5.999814
    97  C    5.999958
    98  C    5.999624
    99  C    6.000001
   100  C    5.999783
   101  O    7.999838
   102  C    6.000035
   103  N    7.000076
   104  C    5.999732
   105  C    6.000124
   106  C    5.999922
   107  C    6.000215
   108  C    5.999992
   109  C    5.999952
   110  C    5.999990
   111  N    7.000090
   112  C    6.000249
   113  C    6.000305
   114  C    5.999960
   115  C    6.000082
   116  C    6.000047
   117  C    6.000306
   118  O    8.000357
   119  C    5.999981
   120  C    6.000009
   121  O    8.000092
   122  O    8.000027
   123  C    5.999953
   124  H    0.999935
   125  H    0.999879
   126  H    1.000050
   127  H    0.999969
   128  H    1.000006
   129  H    0.999996
   130  H    0.999954
   131  H    0.999889
   132  H    1.000084
   133  H    0.999995
   134  H    1.000050
   135  H    0.999992
   136  H    0.999863
   137  H    0.999822
   138  H    0.999855
   139  H    0.999903
   140  H    0.999920
   141  H    0.999848
   142  H    0.999933
   143  H    0.999958
   144  H    1.000047
   145  H    0.999902
   146  H    0.999945
   147  H    1.000058
   148  H    1.000059
   149  H    1.000020
   150  H    0.999978
   151  H    0.999989
   152  H    1.000139
   153  H    1.000152
   154  H    1.000106
   155  H    1.000123
   156  H    1.000046
   157  H    1.000155
   158  H    1.000063
 Sum of Mulliken charges = 624.00000

 Dipole moment (field-independent basis, Debye):
    X=              8.9044    Y=             -3.4610    Z=              4.2178  Tot=             10.4430
 Quadrupole moment (field-independent basis, Debye-Ang):
   XX=            375.5835   YY=             -1.8650   ZZ=             -2.6335
   XY=            -63.9477   XZ=             89.3053   YZ=              2.1611

 Normal termination of Gaussian 16 at Thu Oct 14 15:09:14 2021.
