 Gaussian 16, Revision A.03,
 Gaussian 16:  ES64L-G16RevA.03 25-Dec-2016

 --------------------------------------------------------
 #p PBE1PBE/Def2SVP td=(nstates=5) density=(transition=1)
 --------------------------------------------------------

 --------------------------------
 TDDFT excited states in gaussian
 --------------------------------
 Symbolic Z-matrix:
 Charge =  0 Multiplicity = 1

                         Standard orientation:
 ---------------------------------------------------------------------
 Center     Atomic      Atomic             Coordinates (Angstroms)
 Number     Number       Type             X           Y           Z
 ---------------------------------------------------------------------
      1         12           0       14.653484   -0.194431   -0.205129
      2          6           0       11.214498   -1.167139   -0.476465
      3          6           0       13.899862    2.463024   -2.416250
      4          6           0       17.601578    1.192321    0.598580
      5          6           0       14.982233   -2.418559    2.413755
      6          7           0       12.768084    0.579682   -1.347825
      7          6           0       11.538723   -0.004368   -1.222376
      8          6           0       10.479406    0.901565   -1.829814
      9          6           0       11.434856    1.861052   -2.655578
     10          6           0       12.813224    1.674082   -2.146501
     11          6           0       11.428817    1.711228   -4.214026
     12          6           0        9.574118    1.498795   -0.705133
     13          6           0        8.001365    1.527720   -0.890581
     14          1           0        7.261043    2.877030   -0.916211
     15          7           0       15.686063    1.404971   -0.910834
     16          6           0       15.235984    2.388507   -1.830651
     17          6           0       16.287175    3.352643   -2.098225
     18          6           0       17.363530    2.969272   -1.198753
     19          6           0       16.889882    1.805887   -0.472579
     20          6           0       16.074552    4.504798   -2.989008
     21          6           0       18.707790    3.715707   -1.142589
     22          8           0       18.798692    4.759160   -1.853089
     23          6           0       19.932049    3.295296   -0.301915
     24          7           0       16.051743   -0.347249    1.476794
     25          6           0       17.254349    0.195029    1.477219
     26          6           0       17.990285   -0.283322    2.686935
     27          6           0       17.141794   -1.477793    3.199210
     28          6           0       15.906806   -1.374416    2.358080
     29          6           0       19.531777   -0.652652    2.583564
     30          6           0       16.815563   -1.464457    4.781085
     31          6           0       17.395292   -2.596168    5.664597
     32          7           0       13.492755   -1.637331    0.648731
     33          6           0       13.743230   -2.455001    1.685199
     34          6           0       12.638845   -3.298592    1.961910
     35          6           0       11.640490   -2.847399    1.095439
     36          6           0       12.189687   -1.789449    0.327724
     37          6           0       12.485278   -4.412298    2.918114
     38          6           0       10.266679   -3.084771    0.775497
     39          8           0        9.494259   -3.857610    1.296684
     40          6           0        9.900024   -1.885601   -0.308226
     41          6           0        9.448930   -2.477585   -1.573265
     42          8           0        9.970730   -3.445505   -2.141045
     43          8           0        8.371776   -1.729004   -1.997394
     44          6           0        7.747262   -2.142856   -3.252786
     45          1           0       13.731839    3.300111   -3.095583
     46          1           0       18.515613    1.657733    0.972319
     47          1           0       15.106777   -3.283514    3.068862
     48          1           0        9.955035    0.300599   -2.573209
     49          1           0       11.075690    2.808400   -2.251828
     50          1           0       12.454841    1.507963   -4.524043
     51          1           0       11.118992    2.609276   -4.748002
     52          1           0       10.858574    0.867706   -4.604318
     53          1           0        9.962640    2.516863   -0.691191
     54          1           0        9.738483    1.105903    0.297970
     55          1           0        7.618422    0.903516   -0.083433
     56          1           0        7.753121    0.913550   -1.755653
     57          1           0       15.170756    5.001339   -2.635098
     58          1           0       15.848082    4.158362   -3.997156
     59          1           0       16.910541    5.185542   -3.151791
     60          1           0       19.703099    3.492200    0.745551
     61          1           0       20.779859    3.716697   -0.841043
     62          1           0       19.976244    2.218494   -0.468591
     63          1           0       17.978670    0.539010    3.401221
     64          1           0       17.689426   -2.327824    2.792016
     65          1           0       19.922376   -0.455475    3.582204
     66          1           0       19.983799   -0.033318    1.808994
     67          1           0       19.578549   -1.719222    2.363011
     68          1           0       15.726245   -1.460896    4.815758
     69          1           0       17.077923   -0.476273    5.158694
     70          1           0       16.645670   -3.056220    6.307046
     71          1           0       18.200682   -2.182918    6.272358
     72          1           0       17.898148   -3.380185    5.098113
     73          1           0       11.643155   -5.053438    2.659533
     74          1           0       12.304513   -3.811087    3.809353
     75          1           0       13.477424   -4.808677    3.133686
     76          1           0        9.230421   -1.146740    0.130562
     77          1           0        7.502260   -3.205206   -3.250918
     78          1           0        8.406072   -1.903048   -4.088689
     79          1           0        6.811723   -1.596415   -3.372484
     80         12           0      -13.828556    0.902738    0.082994
     81          6           0      -13.714364   -2.683046   -0.404332
     82          6           0      -10.610129    0.829608   -0.188588
     83          6           0      -14.122969    4.102455    0.816258
     84          6           0      -17.292270    0.640881    1.152462
     85          7           0      -12.341465   -0.783346   -0.389727
     86          6           0      -12.464929   -2.148504   -0.544478
     87          6           0      -11.129970   -2.767641   -0.752873
     88          6           0      -10.147123   -1.706237   -0.195148
     89          6           0      -11.077234   -0.470229   -0.208294
     90          6           0       -9.638630   -1.996588    1.233987
     91          6           0      -10.869942   -2.954598   -2.278770
     92          6           0      -10.241952   -4.332965   -2.720743
     93          1           0      -10.369430   -4.815305   -4.220451
     94          7           0      -12.447556    2.330565    0.238378
     95          6           0      -11.176582    2.162351   -0.012653
     96          6           0      -10.527785    3.458464    0.049282
     97          6           0      -11.592583    4.375266    0.214708
     98          6           0      -12.777794    3.598573    0.458180
     99          6           0       -9.021766    3.604135   -0.234779
    100          6           0      -11.486861    5.874860    0.208012
    101          8           0      -12.457856    6.546632    0.390376
    102          6           0      -10.178501    6.512024   -0.129774
    103          7           0      -15.484325    2.132174    1.170026
    104          6           0      -15.301637    3.450810    1.148626
    105          6           0      -16.555871    4.192382    1.422611
    106          6           0      -17.530189    3.010440    1.726129
    107          6           0      -16.741614    1.788875    1.334144
    108          6           0      -16.513130    5.339915    2.494800
    109          6           0      -18.893726    3.182619    0.949586
    110          6           0      -20.172576    3.608179    1.723459
    111          7           0      -15.212829   -0.568444    0.341073
    112          6           0      -16.581188   -0.569625    0.692701
    113          6           0      -17.110759   -1.945804    0.599213
    114          6           0      -16.050070   -2.733553    0.172335
    115          6           0      -14.931997   -1.923514    0.068166
    116          6           0      -18.520903   -2.392140    1.055682
    117          6           0      -15.708614   -4.149927   -0.177323
    118          8           0      -16.347954   -5.172872   -0.247974
    119          6           0      -14.115416   -4.206451   -0.403738
    120          6           0      -13.772876   -4.972732   -1.545180
    121          8           0      -13.624243   -4.458121   -2.662376
    122          8           0      -13.651184   -6.346980   -1.364538
    123          6           0      -13.099828   -7.177591   -2.478789
    124          1           0       -9.531965    0.952937   -0.305048
    125          1           0      -14.235933    5.173335    0.997137
    126          1           0      -18.334435    0.546845    1.461503
    127          1           0      -11.027697   -3.650526   -0.121336
    128          1           0       -9.239802   -1.532183   -0.773244
    129          1           0       -8.553141   -2.099868    1.239458
    130          1           0      -10.104757   -2.928733    1.551901
    131          1           0       -9.922999   -1.252138    1.978178
    132          1           0      -10.170179   -2.159922   -2.538113
    133          1           0      -11.822555   -2.752475   -2.768018
    134          1           0      -10.636853   -5.101294   -2.056598
    135          1           0       -9.185712   -4.184680   -2.492956
    136          1           0       -8.899654    4.182326   -1.151605
    137          1           0       -8.453149    2.676153   -0.284257
    138          1           0       -8.563612    4.262786    0.502483
    139          1           0       -9.847596    6.274331   -1.140426
    140          1           0       -9.309098    6.179673    0.437376
    141          1           0      -10.303152    7.595033   -0.113012
    142          1           0      -16.872205    4.657253    0.488831
    143          1           0      -17.658644    2.918819    2.804866
    144          1           0      -15.466876    5.452791    2.776989
    145          1           0      -17.183098    5.251168    3.350729
    146          1           0      -16.865431    6.258892    2.026024
    147          1           0      -19.159790    2.230279    0.490126
    148          1           0      -18.630143    3.752049    0.058317
    149          1           0      -20.691201    4.395243    1.176292
    150          1           0      -19.897145    3.941800    2.724072
    151          1           0      -20.867558    2.771762    1.806811
    152          1           0      -19.203517   -1.561274    0.879578
    153          1           0      -18.516582   -2.534899    2.136534
    154          1           0      -18.858437   -3.286052    0.530677
    155          1           0      -13.669626   -4.662320    0.479830
    156          1           0      -12.069930   -6.897481   -2.704504
    157          1           0      -13.806751   -7.260942   -3.303393
    158          1           0      -12.913187   -8.166818   -2.061013
 ---------------------------------------------------------------------

 SCF Done:  E(RPBE1PBE) =  -4067.32830984     A.U. after   16 cycles

 Excitation energies and oscillator strengths:

 Excited State   1:      Singlet-A      1.8632 eV  665.42 nm  f=0.3922  <S**2>=0.000
     309 -> 315        0.18035
     312 -> 314        0.69237
     312 <- 314       -0.10914
 This state for optimization and/or second-order correction.
 Total Energy, E(TD-HF/TD-DFT) =  -4067.25983710
 Copying the excited state density for this state as the 1-particle RhoCI density.

 Excited State   2:      Singlet-A      1.8806 eV  659.28 nm  f=0.3553  <S**2>=0.000
     310 -> 316       -0.15925
     311 -> 313        0.69574
     311 <- 313       -0.11004

 Excited State   3:      Singlet-A      1.9360 eV  640.40 nm  f=0.0000  <S**2>=0.000
     312 -> 313        0.70710

 Excited State   4:      Singlet-A      1.9677 eV  630.11 nm  f=0.0000  <S**2>=0.000
     311 -> 314        0.70710

 Excited State   5:      Singlet-A      2.2033 eV  562.71 nm  f=0.2058  <S**2>=0.000
     310 -> 313        0.67981
     311 -> 316        0.19111

 The electronic state is 1-A.
 Alpha  occ. eigenvalues --  -46.92835 -46.92367 -19.26959 -19.24658 -19.20814
 Alpha  occ. eigenvalues --  -19.20071 -19.20051 -19.19237 -19.18790 -19.18492
 Alpha  occ. eigenvalues --  -14.41467 -14.41189 -14.41041 -14.39737 -14.39686
 Alpha  occ. eigenvalues --  -14.39678 -14.39525 -14.39234 -10.37122 -10.35515
 Alpha  occ. eigenvalues --  -10.33330 -10.32668 -10.32544 -10.32028 -10.29728
 Alpha  occ. eigenvalues --  -10.29009 -10.28881 -10.28567 -10.28508 -10.28506
 Alpha  occ. eigenvalues --  -10.28354 -10.28192 -10.28120 -10.28113 -10.28006
 Alpha  occ. eigenvalues --  -10.27940 -10.27924 -10.27520 -10.27510 -10.27464
 Alpha  occ. eigenvalues --  -10.26835 -10.26659 -10.26642 -10.26597 -10.26471
 Alpha  occ. eigenvalues --  -10.26404 -10.26383 -10.25984 -10.25940 -10.25869
 Alpha  occ. eigenvalues --  -10.25821 -10.25751 -10.25695 -10.25530 -10.25490
 Alpha  occ. eigenvalues --  -10.25429 -10.25411 -10.25344 -10.25270 -10.25202
 Alpha  occ. eigenvalues --  -10.25151 -10.24986 -10.24967 -10.24876 -10.24681
 Alpha  occ. eigenvalues --  -10.24608 -10.24526 -10.24436 -10.24360 -10.24231
 Alpha  occ. eigenvalues --  -10.24069 -10.23985 -10.23931 -10.23773 -10.23708
 Alpha  occ. eigenvalues --  -10.23703 -10.23660 -10.23578 -10.23482 -10.23411
 Alpha  occ. eigenvalues --  -10.23260 -10.23177 -10.23138 -10.23015 -10.22600
 Alpha  occ. eigenvalues --  -10.22366  -3.14939  -3.14500  -1.87765  -1.87329
 Alpha  occ. eigenvalues --   -1.87319  -1.87163  -1.86862  -1.86740  -1.11341
 Alpha  occ. eigenvalues --   -1.08954  -1.06709  -1.05812  -1.05663  -1.03002
 Alpha  occ. eigenvalues --   -1.02053  -1.00904  -1.00491  -1.00190  -0.99617
 Alpha  occ. eigenvalues --   -0.99480  -0.99479  -0.98416  -0.97108  -0.95928
 Alpha  occ. eigenvalues --   -0.87567  -0.85707  -0.83744  -0.83541  -0.83246
 Alpha  occ. eigenvalues --   -0.82689  -0.82497  -0.82369  -0.82299  -0.81972
 Alpha  occ. eigenvalues --   -0.81896  -0.81786  -0.80418  -0.79731  -0.79022
 Alpha  occ. eigenvalues --   -0.78659  -0.78186  -0.77392  -0.77053  -0.76327
 Alpha  occ. eigenvalues --   -0.76295  -0.76063  -0.75776  -0.75319  -0.74871
 Alpha  occ. eigenvalues --   -0.74720  -0.72941  -0.72656  -0.72037  -0.71453
 Alpha  occ. eigenvalues --   -0.71276  -0.71074  -0.70663  -0.70510  -0.69786
 Alpha  occ. eigenvalues --   -0.69742  -0.67746  -0.67368  -0.66743  -0.65537
 Alpha  occ. eigenvalues --   -0.64234  -0.63921  -0.63520  -0.63219  -0.62947
 Alpha  occ. eigenvalues --   -0.62406  -0.61688  -0.61297  -0.60659  -0.60483
 Alpha  occ. eigenvalues --   -0.60237  -0.60076  -0.59731  -0.59605  -0.59369
 Alpha  occ. eigenvalues --   -0.58827  -0.57589  -0.55887  -0.55644  -0.54796
 Alpha  occ. eigenvalues --   -0.54688  -0.54632  -0.54133  -0.53662  -0.53554
 Alpha  occ. eigenvalues --   -0.53008  -0.52567  -0.52297  -0.52202  -0.51798
 Alpha  occ. eigenvalues --   -0.51062  -0.50853  -0.50507  -0.50331  -0.50248
 Alpha  occ. eigenvalues --   -0.50124  -0.49516  -0.49197  -0.48565  -0.48440
 Alpha  occ. eigenvalues --   -0.48401  -0.48050  -0.47941  -0.47642  -0.47368
 Alpha  occ. eigenvalues --   -0.47168  -0.47106  -0.47010  -0.46689  -0.46659
 Alpha  occ. eigenvalues --   -0.46383  -0.46356  -0.46013  -0.45976  -0.45952
 Alpha  occ. eigenvalues --   -0.45253  -0.45031  -0.44965  -0.44926  -0.44660
 Alpha  occ. eigenvalues --   -0.44630  -0.44604  -0.44455  -0.44309  -0.44293
 Alpha  occ. eigenvalues --   -0.44115  -0.44040  -0.43860  -0.43555  -0.43543
 Alpha  occ. eigenvalues --   -0.43384  -0.43232  -0.42999  -0.42645  -0.42501
 Alpha  occ. eigenvalues --   -0.42493  -0.42435  -0.42401  -0.42378  -0.42236
 Alpha  occ. eigenvalues --   -0.42232  -0.42119  -0.41825  -0.41453  -0.41221
 Alpha  occ. eigenvalues --   -0.41139  -0.40951  -0.40872  -0.40767  -0.40599
 Alpha  occ. eigenvalues --   -0.40455  -0.40380  -0.40233  -0.40142  -0.39861
 Alpha  occ. eigenvalues --   -0.39678  -0.39622  -0.39404  -0.39394  -0.39084
 Alpha  occ. eigenvalues --   -0.38796  -0.38653  -0.38515  -0.38437  -0.38265
 Alpha  occ. eigenvalues --   -0.38181  -0.38171  -0.38001  -0.37945  -0.37858
 Alpha  occ. eigenvalues --   -0.37728  -0.37665  -0.37325  -0.37294  -0.37160
 Alpha  occ. eigenvalues --   -0.36736  -0.36499  -0.36232  -0.36201  -0.36001
 Alpha  occ. eigenvalues --   -0.35916  -0.35791  -0.35426  -0.35368  -0.35302
 Alpha  occ. eigenvalues --   -0.35258  -0.35109  -0.34846  -0.34772  -0.34024
 Alpha  occ. eigenvalues --   -0.33820  -0.33311  -0.33297  -0.32732  -0.32679
 Alpha  occ. eigenvalues --   -0.32662  -0.32061  -0.31608  -0.31549  -0.31185
 Alpha  occ. eigenvalues --   -0.30942  -0.30690  -0.30014  -0.29354  -0.28801
 Alpha  occ. eigenvalues --   -0.28717  -0.28354  -0.27707  -0.27248  -0.27072
 Alpha  occ. eigenvalues --   -0.26581  -0.26202  -0.26146  -0.26022  -0.25795
 Alpha  occ. eigenvalues --   -0.25502  -0.25272  -0.24976  -0.21226  -0.20533
 Alpha  occ. eigenvalues --   -0.19126  -0.19024
 Alpha virt. eigenvalues --   -0.11434  -0.11430  -0.05300  -0.04032  -0.04007
 Alpha virt. eigenvalues --   -0.03327  -0.02120  -0.01808  -0.00636  -0.00482
 Alpha virt. eigenvalues --   -0.00275  -0.00055   0.00786   0.01031   0.01743

 Mulliken charges:
               1
     1  Mg  11.999504
     2  C    6.013293
     3  C    5.981652
     4  C    5.984593
     5  C    6.019791
     6  N    6.995894
     7  C    5.974270
     8  C    6.007264
     9  C    5.991551
    10  C    6.029653
    11  C    5.997769
    12  C    6.007254
    13  C    6.000596
    14  H    0.990294
    15  N    6.997065
    16  C    6.045738
    17  C    6.019460
    18  C    6.011757
    19  C    6.031620
    20  C    5.996182
    21  C    6.012613
    22  O    8.022057
    23  C    6.001855
    24  N    7.000213
    25  C    6.031346
    26  C    5.989653
    27  C    6.010716
    28  C    5.965713
    29  C    5.998567
    30  C    6.001528
    31  C    6.001126
    32  N    7.000457
    33  C    5.965030
    34  C    5.972120
    35  C    5.995925
    36  C    5.972175
    37  C    5.998674
    38  C    5.984256
    39  O    7.973586
    40  C    5.996096
    41  C    5.995059
    42  O    7.995603
    43  O    7.997452
    44  C    6.002232
    45  H    1.008175
    46  H    1.007198
    47  H    0.993522
    48  H    1.000352
    49  H    1.001936
    50  H    0.995131
    51  H    1.001417
    52  H    1.012203
    53  H    0.988154
    54  H    1.005091
    55  H    1.003436
    56  H    1.000056
    57  H    1.018915
    58  H    1.019503
    59  H    1.013208
    60  H    1.010429
    61  H    1.011498
    62  H    1.007506
    63  H    1.001040
    64  H    0.997821
    65  H    1.005266
    66  H    0.992636
    67  H    1.006814
    68  H    1.005729
    69  H    0.990943
    70  H    1.002163
    71  H    0.994377
    72  H    0.998784
    73  H    0.987379
    74  H    0.981398
    75  H    0.981502
    76  H    0.990578
    77  H    0.998151
    78  H    0.993602
    79  H    0.994836
    80  Mg  11.999901
    81  C    6.000531
    82  C    6.000407
    83  C    5.999343
    84  C    5.999832
    85  N    7.000474
    86  C    5.999448
    87  C    6.000140
    88  C    5.999846
    89  C    6.000320
    90  C    5.999819
    91  C    5.999990
    92  C    6.000018
    93  H    0.999948
    94  N    6.999781
    95  C    6.000467
    96  C    6.000518
    97  C    6.000087
    98  C    6.000735
    99  C    5.999907
   100  C    6.000153
   101  O    8.000332
   102  C    5.999938
   103  N    6.999834
   104  C    6.000655
   105  C    5.999831
   106  C    6.000176
   107  C    5.999684
   108  C    6.000044
   109  C    6.000098
   110  C    6.000001
   111  N    6.999991
   112  C    5.999368
   113  C    5.999227
   114  C    6.000122
   115  C    5.999289
   116  C    5.999967
   117  C    5.999722
   118  O    7.999547
   119  C    5.999921
   120  C    5.999983
   121  O    7.999831
   122  O    8.000014
   123  C    5.999988
   124  H    1.000514
   125  H    0.999924
   126  H    0.999653
   127  H    1.000190
   128  H    1.000261
   129  H    1.000492
   130  H    1.000349
   131  H    0.999953
   132  H    0.999798
   133  H    0.999935
   134  H    1.000101
   135  H    1.000206
   136  H    1.000262
   137  H    1.000530
   138  H    1.000400
   139  H    1.000073
   140  H    1.000179
   141  H    1.000062
   142  H    0.999888
   143  H    0.999898
   144  H    0.999907
   145  H    1.000037
   146  H    0.999861
   147  H    1.000104
   148  H    0.999776
   149  H    0.999780
   150  H    0.999896
   151  H    1.000003
   152  H    0.999601
   153  H    0.999578
   154  H    0.999633
   155  H    0.999987
   156  H    1.000051
   157  H    0.999865
   158  H    1.000023
 Sum of Mulliken charges = 624.00000

 Dipole moment (field-independent basis, Debye):
    X=              6.3957    Y=              7.4836    Z=             -3.7567  Tot=             10.5367
 Quadrupole moment (field-independent basis, Debye-Ang):
   XX=            171.9296   YY=              1.3099   ZZ=             -0.2863
   XY=            106.8818   XZ=            -55.6395   YZ=             -1.4413

 Normal termination of Gaussian 16 at Thu Oct 14 10:42:45 2021.
