 Gaussian 16, Revision A.03,
 Gaussian 16:  ES64L-G16RevA.03 25-Dec-2016

 --------------------------------------------------------
 #p PBE1PBE/Def2SVP td=(nstates=5) density=(transition=1)
 --------------------------------------------------------

 --------------------------------
 TDDFT excited states in gaussian
 --------------------------------
 Symbolic Z-matrix:
 Charge =  0 Multiplicity = 1

                         Standard orientation:
 ---------------------------------------------------------------------
 Center     Atomic      Atomic             Coordinates (Angstroms)
 Number     Number       Type             X           Y           Z
 ---------------------------------------------------------------------
      1         12           0       18.170660    0.033609    0.263330
      2          6           0       15.387696   -1.554020   -0.921751
      3          6           0       19.081045    0.635411   -3.123654
      4          6           0       20.713767    1.945592    1.387092
      5          6           0       16.705447    0.180482    3.420657
      6          7           0       17.073976   -0.112855   -1.859560
      7          6           0       16.072355   -1.017317   -2.047773
      8          6           0       15.735246   -1.107483   -3.510365
      9          6           0       16.934334   -0.358820   -4.239227
     10          6           0       17.808835    0.103221   -3.030940
     11          6           0       17.456665   -0.993620   -5.476046
     12          6           0       14.274256   -0.692409   -4.018895
     13          6           0       13.546640    0.389722   -3.277587
     14          1           0       12.922531    1.500016   -4.111271
     15          7           0       19.798683    0.922786   -0.725790
     16          6           0       20.011169    1.042413   -2.064183
     17          6           0       21.214736    1.763024   -2.357046
     18          6           0       21.781402    2.060558   -1.011806
     19          6           0       20.755290    1.633546   -0.035591
     20          6           0       21.786596    2.088515   -3.653584
     21          6           0       23.125704    2.680553   -0.658522
     22          8           0       23.814828    3.138072   -1.499644
     23          6           0       23.681235    2.882753    0.723984
     24          7           0       18.561382    1.023183    2.070531
     25          6           0       19.758204    1.580250    2.310624
     26          6           0       19.780702    2.280178    3.768905
     27          6           0       18.666341    1.370059    4.482586
     28          6           0       17.922001    0.886744    3.260724
     29          6           0       21.130514    2.272548    4.491841
     30          6           0       17.875902    2.130973    5.562333
     31          6           0       17.647297    1.514742    6.947553
     32          7           0       16.353560   -0.464113    1.081091
     33          6           0       15.878977   -0.399069    2.385244
     34          6           0       14.648919   -1.076603    2.524848
     35          6           0       14.400318   -1.614877    1.273041
     36          6           0       15.474849   -1.217129    0.400980
     37          6           0       13.833629   -1.254388    3.768302
     38          6           0       13.592994   -2.421039    0.455598
     39          8           0       12.549717   -2.989761    0.770885
     40          6           0       14.072076   -2.289176   -1.018156
     41          6           0       14.185698   -3.736370   -1.474258
     42          8           0       13.652151   -4.189293   -2.509130
     43          8           0       15.073791   -4.365128   -0.633697
     44          6           0       15.613235   -5.715830   -0.925385
     45          1           0       19.236802    0.894177   -4.172992
     46          1           0       21.413795    2.720980    1.704813
     47          1           0       16.287767    0.170060    4.429206
     48          1           0       15.720507   -2.160308   -3.794591
     49          1           0       16.528667    0.595518   -4.573803
     50          1           0       18.543213   -1.077309   -5.495224
     51          1           0       17.048108   -0.537899   -6.378002
     52          1           0       17.130735   -2.033214   -5.510748
     53          1           0       13.546071   -1.503463   -4.005737
     54          1           0       14.349970   -0.252767   -5.013913
     55          1           0       14.067705    0.772692   -2.400765
     56          1           0       12.628965   -0.056525   -2.892977
     57          1           0       21.516057    1.305411   -4.361173
     58          1           0       22.870266    2.199414   -3.647226
     59          1           0       21.338295    3.033155   -3.963557
     60          1           0       23.207328    1.996778    1.147220
     61          1           0       23.312219    3.789788    1.201730
     62          1           0       24.766014    2.873960    0.831448
     63          1           0       19.361794    3.276236    3.622597
     64          1           0       18.978504    0.443926    4.964585
     65          1           0       21.059667    1.526686    5.284001
     66          1           0       21.430652    3.288818    4.745548
     67          1           0       21.954124    1.945143    3.858053
     68          1           0       16.897216    2.347919    5.133474
     69          1           0       18.317806    3.122665    5.660276
     70          1           0       17.867384    2.116371    7.829559
     71          1           0       18.098032    0.527119    7.053650
     72          1           0       16.597415    1.228916    6.891577
     73          1           0       13.303126   -2.204619    3.833945
     74          1           0       13.105258   -0.444829    3.820541
     75          1           0       14.431193   -1.243213    4.680773
     76          1           0       13.254094   -1.743575   -1.487030
     77          1           0       16.665958   -5.812717   -0.660460
     78          1           0       15.494643   -5.903755   -1.992616
     79          1           0       15.171514   -6.601522   -0.470448
     80         12           0      -18.088497    0.420761    0.157631
     81          6           0      -15.028414   -0.999417   -0.278360
     82          6           0      -19.420153   -2.596111    1.138481
     83          6           0      -21.110880    1.930674    0.372409
     84          6           0      -16.802532    3.370297   -1.304658
     85          7           0      -17.348905   -1.630158    0.187928
     86          6           0      -16.014942   -1.875514    0.284851
     87          6           0      -15.697910   -3.220509    0.845205
     88          6           0      -17.197948   -3.787438    1.043961
     89          6           0      -18.071575   -2.605673    0.777972
     90          6           0      -17.532516   -5.002746    0.065636
     91          6           0      -14.934933   -3.032525    2.238536
     92          6           0      -14.065776   -4.194326    2.724741
     93          1           0      -14.114877   -5.627945    2.140083
     94          7           0      -19.999636   -0.168430    0.769839
     95          6           0      -20.341326   -1.485595    1.117419
     96          6           0      -21.752205   -1.487684    1.427443
     97          6           0      -22.246264   -0.180766    1.239739
     98          6           0      -21.077616    0.582923    0.824696
     99          6           0      -22.457551   -2.767246    1.934416
    100          6           0      -23.779251    0.321893    1.357663
    101          8           0      -24.095647    1.517451    1.312929
    102          6           0      -24.967739   -0.601259    1.569838
    103          7           0      -18.819881    2.448211   -0.346857
    104          6           0      -20.127003    2.762988   -0.182736
    105          6           0      -20.470481    4.090154   -0.857116
    106          6           0      -18.983012    4.720731   -1.114590
    107          6           0      -18.092275    3.503690   -0.819604
    108          6           0      -21.457698    4.008338   -2.109843
    109          6           0      -18.502455    5.869354   -0.090239
    110          6           0      -17.921815    7.164632   -0.627137
    111          7           0      -16.286766    1.150887   -0.606258
    112          6           0      -15.906892    2.314719   -1.162142
    113          6           0      -14.438425    2.283794   -1.448955
    114          6           0      -14.077401    0.977321   -1.042437
    115          6           0      -15.274928    0.321744   -0.665472
    116          6           0      -13.523279    3.332467   -1.974641
    117          6           0      -12.938171    0.142134   -0.962052
    118          8           0      -11.748751    0.368350   -1.265501
    119          6           0      -13.500902   -1.187092   -0.465052
    120          6           0      -13.233435   -2.205728   -1.454506
    121          8           0      -13.504189   -2.255769   -2.613519
    122          8           0      -12.654254   -3.268948   -0.768239
    123          6           0      -12.281463   -4.565218   -1.453869
    124          1           0      -19.855257   -3.446818    1.666352
    125          1           0      -22.105831    2.381057    0.353100
    126          1           0      -16.389152    4.162760   -1.931051
    127          1           0      -15.105407   -3.946284    0.288519
    128          1           0      -17.358087   -4.135157    2.064506
    129          1           0      -18.170970   -5.783688    0.478031
    130          1           0      -16.604279   -5.381412   -0.361979
    131          1           0      -18.096668   -4.577945   -0.765291
    132          1           0      -15.629236   -2.800020    3.046227
    133          1           0      -14.301288   -2.156596    2.097164
    134          1           0      -14.244613   -4.261645    3.798608
    135          1           0      -13.020687   -3.893725    2.660851
    136          1           0      -21.792495   -3.618303    2.080452
    137          1           0      -23.239205   -2.997167    1.211119
    138          1           0      -22.953089   -2.507795    2.870237
    139          1           0      -24.843337   -0.973166    2.586176
    140          1           0      -24.869382   -1.540974    1.025997
    141          1           0      -25.888324   -0.118535    1.242445
    142          1           0      -20.954325    4.722350   -0.111630
    143          1           0      -18.898043    5.118824   -2.125920
    144          1           0      -20.996209    4.424395   -3.005713
    145          1           0      -22.388859    4.527929   -1.886756
    146          1           0      -21.668570    2.969634   -2.365371
    147          1           0      -17.821530    5.478966    0.665951
    148          1           0      -19.379806    6.127882    0.501885
    149          1           0      -16.933284    7.267054   -0.180813
    150          1           0      -18.549894    8.030853   -0.420964
    151          1           0      -17.750540    7.072294   -1.700543
    152          1           0      -13.981692    4.310277   -2.121526
    153          1           0      -13.114242    3.041771   -2.942607
    154          1           0      -12.697384    3.448178   -1.273064
    155          1           0      -13.058397   -1.493100    0.483367
    156          1           0      -12.581870   -4.540451   -2.501586
    157          1           0      -12.829819   -5.390475   -0.997637
    158          1           0      -11.200206   -4.648699   -1.344591
 ---------------------------------------------------------------------

 SCF Done:  E(RPBE1PBE) =  -4067.32575649     A.U. after   16 cycles

 Excitation energies and oscillator strengths:

 Excited State   1:      Singlet-A      1.7255 eV  718.55 nm  f=0.0000  <S**2>=0.000
     312 -> 313        0.70710
 This state for optimization and/or second-order correction.
 Total Energy, E(TD-HF/TD-DFT) =  -4067.26234639
 Copying the excited state density for this state as the 1-particle RhoCI density.

 Excited State   2:      Singlet-A      1.7943 eV  690.97 nm  f=0.3790  <S**2>=0.000
     309 -> 315       -0.16555
     311 -> 313        0.69588
     311 <- 313       -0.11766

 Excited State   3:      Singlet-A      1.8924 eV  655.17 nm  f=0.3806  <S**2>=0.000
     310 -> 316        0.18630
     312 -> 314        0.68963
     312 <- 314       -0.10197

 Excited State   4:      Singlet-A      2.1559 eV  575.09 nm  f=0.1298  <S**2>=0.000
     308 -> 313        0.10037
     309 -> 313        0.65390
     311 -> 315        0.23177

 Excited State   5:      Singlet-A      2.1756 eV  569.88 nm  f=0.0000  <S**2>=0.000
     311 -> 314        0.70710

 The electronic state is 1-A.
 Alpha  occ. eigenvalues --  -46.93322 -46.92738 -19.26736 -19.24275 -19.20470
 Alpha  occ. eigenvalues --  -19.19672 -19.19465 -19.18900 -19.18483 -19.17592
 Alpha  occ. eigenvalues --  -14.42086 -14.41963 -14.41477 -14.41107 -14.39802
 Alpha  occ. eigenvalues --  -14.39193 -14.39193 -14.38915 -10.37403 -10.35529
 Alpha  occ. eigenvalues --  -10.33464 -10.31474 -10.31220 -10.30887 -10.29911
 Alpha  occ. eigenvalues --  -10.29626 -10.29361 -10.29173 -10.29041 -10.28862
 Alpha  occ. eigenvalues --  -10.28753 -10.28625 -10.28407 -10.28304 -10.28207
 Alpha  occ. eigenvalues --  -10.28148 -10.27959 -10.27682 -10.27569 -10.27458
 Alpha  occ. eigenvalues --  -10.26831 -10.26744 -10.26466 -10.26347 -10.26286
 Alpha  occ. eigenvalues --  -10.26208 -10.26200 -10.26093 -10.26093 -10.26088
 Alpha  occ. eigenvalues --  -10.26008 -10.25963 -10.25925 -10.25866 -10.25799
 Alpha  occ. eigenvalues --  -10.25778 -10.25750 -10.25637 -10.25496 -10.25356
 Alpha  occ. eigenvalues --  -10.25310 -10.25220 -10.25113 -10.25046 -10.25034
 Alpha  occ. eigenvalues --  -10.24981 -10.24869 -10.24720 -10.24372 -10.24270
 Alpha  occ. eigenvalues --  -10.24016 -10.23981 -10.23935 -10.23810 -10.23729
 Alpha  occ. eigenvalues --  -10.23658 -10.23621 -10.23554 -10.23526 -10.23526
 Alpha  occ. eigenvalues --  -10.23495 -10.22948 -10.22746 -10.22678 -10.22598
 Alpha  occ. eigenvalues --  -10.22333  -3.15374  -3.14731  -1.88170  -1.87784
 Alpha  occ. eigenvalues --   -1.87592  -1.87571  -1.87087  -1.86964  -1.10294
 Alpha  occ. eigenvalues --   -1.10265  -1.06358  -1.04290  -1.03877  -1.02918
 Alpha  occ. eigenvalues --   -1.01949  -1.01937  -1.00158  -0.99724  -0.99063
 Alpha  occ. eigenvalues --   -0.98910  -0.98259  -0.97602  -0.97244  -0.96883
 Alpha  occ. eigenvalues --   -0.87905  -0.87770  -0.84084  -0.82974  -0.82911
 Alpha  occ. eigenvalues --   -0.82711  -0.82466  -0.82150  -0.81802  -0.81549
 Alpha  occ. eigenvalues --   -0.81299  -0.81153  -0.80488  -0.80331  -0.78840
 Alpha  occ. eigenvalues --   -0.78607  -0.78201  -0.77702  -0.77351  -0.76585
 Alpha  occ. eigenvalues --   -0.76398  -0.75783  -0.75411  -0.75286  -0.74846
 Alpha  occ. eigenvalues --   -0.74629  -0.72768  -0.72717  -0.72090  -0.71767
 Alpha  occ. eigenvalues --   -0.71357  -0.71338  -0.70929  -0.70434  -0.69845
 Alpha  occ. eigenvalues --   -0.69516  -0.68038  -0.66987  -0.66408  -0.66187
 Alpha  occ. eigenvalues --   -0.64348  -0.63801  -0.63679  -0.62967  -0.62688
 Alpha  occ. eigenvalues --   -0.62580  -0.61144  -0.60636  -0.60400  -0.60066
 Alpha  occ. eigenvalues --   -0.59679  -0.59623  -0.59209  -0.59031  -0.58806
 Alpha  occ. eigenvalues --   -0.58767  -0.58082  -0.56276  -0.55034  -0.54815
 Alpha  occ. eigenvalues --   -0.54416  -0.53979  -0.53756  -0.53494  -0.53339
 Alpha  occ. eigenvalues --   -0.52843  -0.52597  -0.52274  -0.51955  -0.51813
 Alpha  occ. eigenvalues --   -0.51115  -0.50623  -0.50339  -0.50113  -0.49845
 Alpha  occ. eigenvalues --   -0.49756  -0.49622  -0.48950  -0.48607  -0.48474
 Alpha  occ. eigenvalues --   -0.48292  -0.47928  -0.47703  -0.47654  -0.47460
 Alpha  occ. eigenvalues --   -0.47299  -0.47041  -0.46674  -0.46597  -0.46461
 Alpha  occ. eigenvalues --   -0.46363  -0.46354  -0.46201  -0.46111  -0.45975
 Alpha  occ. eigenvalues --   -0.45941  -0.45632  -0.45348  -0.45335  -0.45149
 Alpha  occ. eigenvalues --   -0.45085  -0.44606  -0.44424  -0.44289  -0.44151
 Alpha  occ. eigenvalues --   -0.44113  -0.44011  -0.43814  -0.43676  -0.43609
 Alpha  occ. eigenvalues --   -0.43499  -0.42926  -0.42901  -0.42751  -0.42562
 Alpha  occ. eigenvalues --   -0.42455  -0.42292  -0.42268  -0.41978  -0.41911
 Alpha  occ. eigenvalues --   -0.41901  -0.41807  -0.41645  -0.41578  -0.41248
 Alpha  occ. eigenvalues --   -0.41155  -0.41125  -0.40913  -0.40903  -0.40824
 Alpha  occ. eigenvalues --   -0.40318  -0.40262  -0.40118  -0.40110  -0.39849
 Alpha  occ. eigenvalues --   -0.39726  -0.39533  -0.39391  -0.39114  -0.38986
 Alpha  occ. eigenvalues --   -0.38948  -0.38771  -0.38738  -0.38710  -0.38497
 Alpha  occ. eigenvalues --   -0.38301  -0.38035  -0.37927  -0.37480  -0.37472
 Alpha  occ. eigenvalues --   -0.37441  -0.37095  -0.37071  -0.36872  -0.36736
 Alpha  occ. eigenvalues --   -0.36606  -0.36514  -0.36429  -0.36384  -0.36175
 Alpha  occ. eigenvalues --   -0.36125  -0.35943  -0.35862  -0.35623  -0.35448
 Alpha  occ. eigenvalues --   -0.35096  -0.35050  -0.34649  -0.34298  -0.33908
 Alpha  occ. eigenvalues --   -0.33649  -0.33369  -0.33022  -0.32760  -0.32516
 Alpha  occ. eigenvalues --   -0.32297  -0.31801  -0.31794  -0.31549  -0.31111
 Alpha  occ. eigenvalues --   -0.30984  -0.30634  -0.29780  -0.29383  -0.29293
 Alpha  occ. eigenvalues --   -0.28950  -0.28632  -0.28554  -0.27127  -0.26770
 Alpha  occ. eigenvalues --   -0.26300  -0.26067  -0.25960  -0.25644  -0.25434
 Alpha  occ. eigenvalues --   -0.25238  -0.24916  -0.23717  -0.21382  -0.20752
 Alpha  occ. eigenvalues --   -0.19327  -0.18737
 Alpha virt. eigenvalues --   -0.12024  -0.10961  -0.05453  -0.05150  -0.04159
 Alpha virt. eigenvalues --   -0.03857  -0.02087  -0.01861  -0.01762  -0.00054
 Alpha virt. eigenvalues --   -0.00015   0.00644   0.00817   0.01391   0.01655

 Mulliken charges:
               1
     1  Mg  12.000000
     2  C    6.000000
     3  C    6.000000
     4  C    6.000000
     5  C    6.000000
     6  N    7.000000
     7  C    6.000000
     8  C    6.000000
     9  C    6.000000
    10  C    6.000000
    11  C    6.000000
    12  C    6.000000
    13  C    6.000000
    14  H    1.000000
    15  N    7.000000
    16  C    6.000000
    17  C    6.000000
    18  C    6.000000
    19  C    6.000000
    20  C    6.000000
    21  C    6.000000
    22  O    8.000000
    23  C    6.000000
    24  N    7.000000
    25  C    6.000000
    26  C    6.000000
    27  C    6.000000
    28  C    6.000000
    29  C    6.000000
    30  C    6.000000
    31  C    6.000000
    32  N    7.000000
    33  C    6.000000
    34  C    6.000000
    35  C    6.000000
    36  C    6.000000
    37  C    6.000000
    38  C    6.000000
    39  O    8.000000
    40  C    6.000000
    41  C    6.000000
    42  O    8.000000
    43  O    8.000000
    44  C    6.000000
    45  H    1.000000
    46  H    1.000000
    47  H    1.000000
    48  H    1.000000
    49  H    1.000000
    50  H    1.000000
    51  H    1.000000
    52  H    1.000000
    53  H    1.000000
    54  H    1.000000
    55  H    1.000000
    56  H    1.000000
    57  H    1.000000
    58  H    1.000000
    59  H    1.000000
    60  H    1.000000
    61  H    1.000000
    62  H    1.000000
    63  H    1.000000
    64  H    1.000000
    65  H    1.000000
    66  H    1.000000
    67  H    1.000000
    68  H    1.000000
    69  H    1.000000
    70  H    1.000000
    71  H    1.000000
    72  H    1.000000
    73  H    1.000000
    74  H    1.000000
    75  H    1.000000
    76  H    1.000000
    77  H    1.000000
    78  H    1.000000
    79  H    1.000000
    80  Mg  12.000000
    81  C    6.000000
    82  C    6.000000
    83  C    6.000000
    84  C    6.000000
    85  N    7.000000
    86  C    6.000000
    87  C    6.000000
    88  C    6.000000
    89  C    6.000000
    90  C    6.000000
    91  C    6.000000
    92  C    6.000000
    93  H    1.000000
    94  N    7.000000
    95  C    6.000000
    96  C    6.000000
    97  C    6.000000
    98  C    6.000000
    99  C    6.000000
   100  C    6.000000
   101  O    8.000000
   102  C    6.000000
   103  N    7.000000
   104  C    6.000000
   105  C    6.000000
   106  C    6.000000
   107  C    6.000000
   108  C    6.000000
   109  C    6.000000
   110  C    6.000000
   111  N    7.000000
   112  C    6.000000
   113  C    6.000000
   114  C    6.000000
   115  C    6.000000
   116  C    6.000000
   117  C    6.000000
   118  O    8.000000
   119  C    6.000000
   120  C    6.000000
   121  O    8.000000
   122  O    8.000000
   123  C    6.000000
   124  H    1.000000
   125  H    1.000000
   126  H    1.000000
   127  H    1.000000
   128  H    1.000000
   129  H    1.000000
   130  H    1.000000
   131  H    1.000000
   132  H    1.000000
   133  H    1.000000
   134  H    1.000000
   135  H    1.000000
   136  H    1.000000
   137  H    1.000000
   138  H    1.000000
   139  H    1.000000
   140  H    1.000000
   141  H    1.000000
   142  H    1.000000
   143  H    1.000000
   144  H    1.000000
   145  H    1.000000
   146  H    1.000000
   147  H    1.000000
   148  H    1.000000
   149  H    1.000000
   150  H    1.000000
   151  H    1.000000
   152  H    1.000000
   153  H    1.000000
   154  H    1.000000
   155  H    1.000000
   156  H    1.000000
   157  H    1.000000
   158  H    1.000000
 Sum of Mulliken charges = 624.00000

 Dipole moment (field-independent basis, Debye):
    X=              0.0000    Y=              0.0000    Z=             -0.0000  Tot=              0.0000
 Quadrupole moment (field-independent basis, Debye-Ang):
   XX=              0.0000   YY=             -0.0000   ZZ=             -0.0000
   XY=              0.0000   XZ=             -0.0000   YZ=             -0.0000

 Normal termination of Gaussian 16 at Thu Oct 14 05:44:23 2021.
