 Gaussian 16, Revision A.03,
 Gaussian 16:  ES64L-G16RevA.03 25-Dec-2016

 --------------------------------------------------------
 #p PBE1PBE/Def2SVP td=(nstates=5) density=(transition=1)
 --------------------------------------------------------

 --------------------------------
 TDDFT excited states in gaussian
 --------------------------------
 Symbolic Z-matrix:
 Charge =  0 Multiplicity = 1

                         Standard orientation:
 ---------------------------------------------------------------------
 Center     Atomic      Atomic             Coordinates (Angstroms)
 Number     Number       Type             X           Y           Z
 ---------------------------------------------------------------------
      1         12           0       16.862688   -0.394475    0.467987
      2          6           0       15.662597    2.085777   -1.567620
      3          6           0       18.005576    1.902228    2.617016
      4          6           0       18.197656   -2.935331    2.235772
      5          6           0       16.064795   -2.793060   -2.145332
      6          7           0       17.057066    1.810282    0.353345
      7          6           0       16.405321    2.617991   -0.491873
      8          6           0       16.592070    4.162701   -0.062118
      9          6           0       17.352422    3.972587    1.303423
     10          6           0       17.542437    2.449753    1.453977
     11          6           0       18.634873    4.818946    1.421515
     12          6           0       15.253676    4.942887    0.073252
     13          6           0       15.268257    6.316333    0.820478
     14          1           0       15.211288    7.626033   -0.054011
     15          7           0       18.004888   -0.495446    2.182672
     16          6           0       18.282829    0.521657    2.971482
     17          6           0       18.995867    0.023422    4.137896
     18          6           0       19.181023   -1.387616    4.028520
     19          6           0       18.441840   -1.666430    2.777668
     20          6           0       19.613797    0.883197    5.228125
     21          6           0       19.959219   -2.361294    4.907406
     22          8           0       20.251635   -3.483341    4.504253
     23          6           0       20.366475   -1.925429    6.271333
     24          7           0       17.134173   -2.559735    0.065133
     25          6           0       17.665175   -3.370109    0.972960
     26          6           0       17.524001   -4.849971    0.579793
     27          6           0       16.670877   -4.730565   -0.680377
     28          6           0       16.657305   -3.271291   -0.945085
     29          6           0       18.807231   -5.676084    0.406824
     30          6           0       15.372156   -5.494140   -0.620155
     31          6           0       15.205734   -6.662588   -1.656042
     32          7           0       16.012606   -0.404396   -1.391263
     33          6           0       15.665704   -1.443954   -2.318065
     34          6           0       14.918563   -0.916849   -3.438778
     35          6           0       14.908436    0.470650   -3.124543
     36          6           0       15.575748    0.708541   -1.916370
     37          6           0       14.186841   -1.592432   -4.544434
     38          6           0       14.261130    1.676839   -3.575119
     39          8           0       13.388747    1.926690   -4.420327
     40          6           0       14.779956    2.805616   -2.719817
     41          6           0       15.740414    3.662262   -3.573962
     42          8           0       16.606578    3.264663   -4.368130
     43          8           0       15.478608    4.971346   -3.297736
     44          6           0       16.264163    6.009747   -4.037041
     45          1           0       18.314564    2.536690    3.450359
     46          1           0       18.763910   -3.781196    2.631159
     47          1           0       15.734355   -3.585160   -2.819658
     48          1           0       17.248821    4.566443   -0.831829
     49          1           0       16.666915    4.258974    2.100990
     50          1           0       18.643941    5.239053    2.426675
     51          1           0       18.632073    5.662388    0.730995
     52          1           0       19.521549    4.208068    1.251566
     53          1           0       14.640595    4.336383    0.739854
     54          1           0       14.831369    5.131552   -0.913680
     55          1           0       16.243043    6.401426    1.301840
     56          1           0       14.412859    6.355306    1.494043
     57          1           0       19.427822    1.942713    5.052369
     58          1           0       20.691138    0.721398    5.253939
     59          1           0       19.226272    0.629242    6.213935
     60          1           0       19.461922   -1.512909    6.719102
     61          1           0       21.148745   -1.188521    6.450768
     62          1           0       20.727653   -2.748318    6.887242
     63          1           0       16.946471   -5.343123    1.360944
     64          1           0       17.231056   -5.194679   -1.491910
     65          1           0       18.553770   -6.646334    0.833277
     66          1           0       19.654525   -5.171523    0.870935
     67          1           0       19.160283   -5.748889   -0.621795
     68          1           0       14.627651   -4.754405   -0.912721
     69          1           0       15.165336   -5.928768    0.357390
     70          1           0       16.085702   -6.719989   -2.297270
     71          1           0       14.346777   -6.417917   -2.281642
     72          1           0       14.953663   -7.633793   -1.229984
     73          1           0       14.143378   -2.666251   -4.364356
     74          1           0       14.827944   -1.481599   -5.418205
     75          1           0       13.202357   -1.122429   -4.553092
     76          1           0       13.883635    3.357831   -2.436750
     77          1           0       17.339239    5.833849   -4.081427
     78          1           0       16.094646    7.030240   -3.695180
     79          1           0       15.936347    5.933414   -5.073631
     80         12           0      -16.418070   -0.874088    0.142445
     81          6           0      -18.180102    2.022174    1.148360
     82          6           0      -13.961053    1.167444   -1.092177
     83          6           0      -15.107315   -3.518833   -1.359243
     84          6           0      -19.228261   -2.768276    1.017851
     85          7           0      -16.189409    1.356645   -0.101880
     86          6           0      -17.003558    2.320036    0.499603
     87          6           0      -16.295581    3.697171    0.477048
     88          6           0      -14.944973    3.395568   -0.269499
     89          6           0      -14.968381    1.858120   -0.493536
     90          6           0      -14.586695    4.290730   -1.442883
     91          6           0      -16.089955    4.385239    1.835550
     92          6           0      -16.669987    5.824519    1.907126
     93          1           0      -15.685987    6.903417    2.301709
     94          7           0      -14.699987   -1.125166   -0.993058
     95          6           0      -13.820079   -0.182885   -1.438357
     96          6           0      -12.711836   -0.873869   -2.053270
     97          6           0      -13.109043   -2.261862   -2.273149
     98          6           0      -14.364366   -2.307482   -1.539175
     99          6           0      -11.429236   -0.096035   -2.653638
    100          6           0      -12.621420   -3.283252   -3.208141
    101          8           0      -13.005140   -4.412693   -3.319385
    102          6           0      -11.506913   -2.843510   -4.152875
    103          7           0      -17.205192   -2.837222   -0.302618
    104          6           0      -16.419728   -3.761936   -0.888407
    105          6           0      -17.036846   -5.156516   -0.759441
    106          6           0      -18.137501   -4.944929    0.292470
    107          6           0      -18.194989   -3.437047    0.394230
    108          6           0      -17.622286   -5.666840   -2.155314
    109          6           0      -17.638960   -5.580160    1.688704
    110          6           0      -16.520641   -4.793758    2.425697
    111          7           0      -18.310203   -0.560386    1.037686
    112          6           0      -19.304507   -1.414794    1.328460
    113          6           0      -20.374575   -0.668506    1.933883
    114          6           0      -19.958242    0.649539    1.926540
    115          6           0      -18.706058    0.705577    1.308409
    116          6           0      -21.709893   -1.162411    2.457108
    117          6           0      -20.441719    1.986270    2.282487
    118          8           0      -21.447196    2.499726    2.685407
    119          6           0      -19.279721    2.926816    1.867122
    120          6           0      -19.869680    3.883850    0.898410
    121          8           0      -20.452577    3.503537   -0.085737
    122          8           0      -19.755977    5.208031    1.290254
    123          6           0      -20.580367    6.202497    0.525294
    124          1           0      -13.098835    1.807897   -1.289908
    125          1           0      -14.663702   -4.444554   -1.732715
    126          1           0      -20.048340   -3.294473    1.510904
    127          1           0      -16.849215    4.362075   -0.186220
    128          1           0      -14.127133    3.640064    0.408617
    129          1           0      -15.454744    4.847233   -1.793181
    130          1           0      -14.134842    3.758038   -2.280024
    131          1           0      -13.904707    5.041533   -1.044570
    132          1           0      -15.067938    4.541991    2.180569
    133          1           0      -16.541761    3.800037    2.636172
    134          1           0      -17.583513    5.857979    2.500712
    135          1           0      -16.972892    6.104639    0.899028
    136          1           0      -10.534479   -0.602620   -2.292034
    137          1           0      -11.304420    0.940387   -2.342310
    138          1           0      -11.351528    0.030560   -3.733444
    139          1           0      -10.690926   -2.591000   -3.475340
    140          1           0      -11.908422   -1.970066   -4.665699
    141          1           0      -11.138261   -3.624805   -4.818259
    142          1           0      -16.353583   -5.899158   -0.346082
    143          1           0      -19.160425   -5.264127    0.091642
    144          1           0      -17.559618   -6.755295   -2.143812
    145          1           0      -17.128673   -5.351635   -3.075226
    146          1           0      -18.667521   -5.359127   -2.129674
    147          1           0      -17.317312   -6.616737    1.589862
    148          1           0      -18.434769   -5.498848    2.429221
    149          1           0      -16.067161   -5.307537    3.272672
    150          1           0      -16.965869   -3.875655    2.809384
    151          1           0      -15.762183   -4.533217    1.686762
    152          1           0      -21.635890   -1.857559    3.293097
    153          1           0      -22.137667   -1.689704    1.604823
    154          1           0      -22.400781   -0.349824    2.681711
    155          1           0      -19.040433    3.448596    2.793549
    156          1           0      -19.826446    6.980058    0.402411
    157          1           0      -21.420291    6.592966    1.099592
    158          1           0      -21.019953    5.930490   -0.434005
 ---------------------------------------------------------------------

 SCF Done:  E(RPBE1PBE) =  -4067.38646102     A.U. after   16 cycles

 Excitation energies and oscillator strengths:

 Excited State   1:      Singlet-A      1.8470 eV  671.28 nm  f=0.0000  <S**2>=0.000
     312 -> 313        0.70710
 This state for optimization and/or second-order correction.
 Total Energy, E(TD-HF/TD-DFT) =  -4067.31858534
 Copying the excited state density for this state as the 1-particle RhoCI density.

 Excited State   2:      Singlet-A      1.8678 eV  663.79 nm  f=0.3887  <S**2>=0.000
     309 -> 316        0.16721
     311 -> 313        0.69089
     311 <- 313       -0.11105

 Excited State   3:      Singlet-A      1.8792 eV  659.78 nm  f=0.3866  <S**2>=0.000
     310 -> 315       -0.16575
     312 -> 314        0.68698
     312 <- 314       -0.10511

 Excited State   4:      Singlet-A      2.1034 eV  589.45 nm  f=0.0000  <S**2>=0.000
     311 -> 314        0.70710

 Excited State   5:      Singlet-A      2.2024 eV  562.95 nm  f=0.1261  <S**2>=0.000
     309 -> 313        0.66412
     311 -> 316       -0.22445

 The electronic state is 1-A.
 Alpha  occ. eigenvalues --  -46.92929 -46.92616 -19.26330 -19.25766 -19.19778
 Alpha  occ. eigenvalues --  -19.19763 -19.19696 -19.19457 -19.18628 -19.18036
 Alpha  occ. eigenvalues --  -14.41689 -14.41482 -14.41412 -14.41381 -14.39669
 Alpha  occ. eigenvalues --  -14.39433 -14.38996 -14.38864 -10.36667 -10.35774
 Alpha  occ. eigenvalues --  -10.33181 -10.32271 -10.31490 -10.30572 -10.29445
 Alpha  occ. eigenvalues --  -10.29444 -10.29228 -10.29019 -10.28683 -10.28535
 Alpha  occ. eigenvalues --  -10.28506 -10.28459 -10.28282 -10.28136 -10.27963
 Alpha  occ. eigenvalues --  -10.27946 -10.27838 -10.27830 -10.27704 -10.27417
 Alpha  occ. eigenvalues --  -10.26997 -10.26911 -10.26800 -10.26526 -10.26467
 Alpha  occ. eigenvalues --  -10.26314 -10.26237 -10.26176 -10.25861 -10.25846
 Alpha  occ. eigenvalues --  -10.25840 -10.25821 -10.25738 -10.25626 -10.25615
 Alpha  occ. eigenvalues --  -10.25548 -10.25380 -10.25328 -10.25219 -10.24984
 Alpha  occ. eigenvalues --  -10.24876 -10.24862 -10.24752 -10.24714 -10.24538
 Alpha  occ. eigenvalues --  -10.24477 -10.24397 -10.24213 -10.24200 -10.24108
 Alpha  occ. eigenvalues --  -10.24081 -10.23991 -10.23937 -10.23931 -10.23803
 Alpha  occ. eigenvalues --  -10.23682 -10.23664 -10.23564 -10.23487 -10.23429
 Alpha  occ. eigenvalues --  -10.23190 -10.23174 -10.23038 -10.22703 -10.22352
 Alpha  occ. eigenvalues --  -10.22235  -3.14917  -3.14722  -1.87739  -1.87553
 Alpha  occ. eigenvalues --   -1.87304  -1.87132  -1.87090  -1.86957  -1.10395
 Alpha  occ. eigenvalues --   -1.10384  -1.06398  -1.05837  -1.05069  -1.02787
 Alpha  occ. eigenvalues --   -1.02418  -1.01412  -1.00368  -0.99814  -0.99077
 Alpha  occ. eigenvalues --   -0.98963  -0.98602  -0.98533  -0.97709  -0.96608
 Alpha  occ. eigenvalues --   -0.86690  -0.85704  -0.84260  -0.83182  -0.83070
 Alpha  occ. eigenvalues --   -0.83035  -0.82576  -0.82518  -0.82079  -0.81814
 Alpha  occ. eigenvalues --   -0.81504  -0.81344  -0.80856  -0.80603  -0.78710
 Alpha  occ. eigenvalues --   -0.78501  -0.77757  -0.77633  -0.76759  -0.76535
 Alpha  occ. eigenvalues --   -0.76427  -0.75483  -0.75433  -0.75182  -0.74455
 Alpha  occ. eigenvalues --   -0.74418  -0.72896  -0.72668  -0.71871  -0.71696
 Alpha  occ. eigenvalues --   -0.71074  -0.71041  -0.70446  -0.70432  -0.69735
 Alpha  occ. eigenvalues --   -0.69584  -0.67549  -0.67139  -0.66227  -0.66179
 Alpha  occ. eigenvalues --   -0.63813  -0.63690  -0.63630  -0.63486  -0.62508
 Alpha  occ. eigenvalues --   -0.62247  -0.62022  -0.61628  -0.60328  -0.59906
 Alpha  occ. eigenvalues --   -0.59835  -0.59645  -0.59498  -0.59054  -0.58955
 Alpha  occ. eigenvalues --   -0.58468  -0.57245  -0.56835  -0.55269  -0.55013
 Alpha  occ. eigenvalues --   -0.54269  -0.54268  -0.53851  -0.53510  -0.53353
 Alpha  occ. eigenvalues --   -0.53297  -0.52653  -0.52612  -0.52154  -0.51914
 Alpha  occ. eigenvalues --   -0.50932  -0.50611  -0.50269  -0.49894  -0.49706
 Alpha  occ. eigenvalues --   -0.49701  -0.49216  -0.49149  -0.48679  -0.48661
 Alpha  occ. eigenvalues --   -0.48343  -0.48036  -0.48012  -0.47557  -0.47180
 Alpha  occ. eigenvalues --   -0.47121  -0.47081  -0.46936  -0.46808  -0.46694
 Alpha  occ. eigenvalues --   -0.46538  -0.46412  -0.46122  -0.45798  -0.45717
 Alpha  occ. eigenvalues --   -0.45699  -0.45367  -0.45325  -0.45055  -0.44640
 Alpha  occ. eigenvalues --   -0.44614  -0.44415  -0.44383  -0.44252  -0.44060
 Alpha  occ. eigenvalues --   -0.44028  -0.43999  -0.43915  -0.43648  -0.43643
 Alpha  occ. eigenvalues --   -0.43593  -0.43233  -0.43061  -0.42933  -0.42892
 Alpha  occ. eigenvalues --   -0.42553  -0.42497  -0.42325  -0.42257  -0.42031
 Alpha  occ. eigenvalues --   -0.41983  -0.41660  -0.41502  -0.41208  -0.41097
 Alpha  occ. eigenvalues --   -0.40937  -0.40893  -0.40776  -0.40705  -0.40593
 Alpha  occ. eigenvalues --   -0.40309  -0.40085  -0.39806  -0.39745  -0.39591
 Alpha  occ. eigenvalues --   -0.39313  -0.39309  -0.39173  -0.38910  -0.38889
 Alpha  occ. eigenvalues --   -0.38835  -0.38707  -0.38499  -0.38404  -0.38153
 Alpha  occ. eigenvalues --   -0.38094  -0.37805  -0.37793  -0.37713  -0.37711
 Alpha  occ. eigenvalues --   -0.37333  -0.37135  -0.37042  -0.36975  -0.36883
 Alpha  occ. eigenvalues --   -0.36865  -0.36832  -0.36773  -0.36416  -0.36315
 Alpha  occ. eigenvalues --   -0.36296  -0.35989  -0.35733  -0.35718  -0.35430
 Alpha  occ. eigenvalues --   -0.35237  -0.34671  -0.34257  -0.34043  -0.33994
 Alpha  occ. eigenvalues --   -0.33297  -0.33271  -0.33048  -0.32909  -0.32818
 Alpha  occ. eigenvalues --   -0.32125  -0.32098  -0.31704  -0.31355  -0.31244
 Alpha  occ. eigenvalues --   -0.31192  -0.31056  -0.29594  -0.29537  -0.29172
 Alpha  occ. eigenvalues --   -0.29114  -0.28743  -0.28711  -0.27237  -0.26815
 Alpha  occ. eigenvalues --   -0.26660  -0.26177  -0.26149  -0.25992  -0.25749
 Alpha  occ. eigenvalues --   -0.25401  -0.25108  -0.24832  -0.21127  -0.20896
 Alpha  occ. eigenvalues --   -0.19189  -0.18767
 Alpha virt. eigenvalues --   -0.11585  -0.11066  -0.05369  -0.04997  -0.03684
 Alpha virt. eigenvalues --   -0.03623  -0.01929  -0.01913  -0.01123  -0.00881
 Alpha virt. eigenvalues --    0.00746   0.00815   0.00911   0.01158   0.02204

 Mulliken charges:
               1
     1  Mg  12.000000
     2  C    6.000000
     3  C    6.000000
     4  C    6.000000
     5  C    6.000000
     6  N    7.000000
     7  C    6.000000
     8  C    6.000000
     9  C    6.000000
    10  C    6.000000
    11  C    6.000000
    12  C    6.000000
    13  C    6.000000
    14  H    1.000000
    15  N    7.000000
    16  C    6.000000
    17  C    6.000000
    18  C    6.000000
    19  C    6.000000
    20  C    6.000000
    21  C    6.000000
    22  O    8.000000
    23  C    6.000000
    24  N    7.000000
    25  C    6.000000
    26  C    6.000000
    27  C    6.000000
    28  C    6.000000
    29  C    6.000000
    30  C    6.000000
    31  C    6.000000
    32  N    7.000000
    33  C    6.000000
    34  C    6.000000
    35  C    6.000000
    36  C    6.000000
    37  C    6.000000
    38  C    6.000000
    39  O    8.000000
    40  C    6.000000
    41  C    6.000000
    42  O    8.000000
    43  O    8.000000
    44  C    6.000000
    45  H    1.000000
    46  H    1.000000
    47  H    1.000000
    48  H    1.000000
    49  H    1.000000
    50  H    1.000000
    51  H    1.000000
    52  H    1.000000
    53  H    1.000000
    54  H    1.000000
    55  H    1.000000
    56  H    1.000000
    57  H    1.000000
    58  H    1.000000
    59  H    1.000000
    60  H    1.000000
    61  H    1.000000
    62  H    1.000000
    63  H    1.000000
    64  H    1.000000
    65  H    1.000000
    66  H    1.000000
    67  H    1.000000
    68  H    1.000000
    69  H    1.000000
    70  H    1.000000
    71  H    1.000000
    72  H    1.000000
    73  H    1.000000
    74  H    1.000000
    75  H    1.000000
    76  H    1.000000
    77  H    1.000000
    78  H    1.000000
    79  H    1.000000
    80  Mg  12.000000
    81  C    6.000000
    82  C    6.000000
    83  C    6.000000
    84  C    6.000000
    85  N    7.000000
    86  C    6.000000
    87  C    6.000000
    88  C    6.000000
    89  C    6.000000
    90  C    6.000000
    91  C    6.000000
    92  C    6.000000
    93  H    1.000000
    94  N    7.000000
    95  C    6.000000
    96  C    6.000000
    97  C    6.000000
    98  C    6.000000
    99  C    6.000000
   100  C    6.000000
   101  O    8.000000
   102  C    6.000000
   103  N    7.000000
   104  C    6.000000
   105  C    6.000000
   106  C    6.000000
   107  C    6.000000
   108  C    6.000000
   109  C    6.000000
   110  C    6.000000
   111  N    7.000000
   112  C    6.000000
   113  C    6.000000
   114  C    6.000000
   115  C    6.000000
   116  C    6.000000
   117  C    6.000000
   118  O    8.000000
   119  C    6.000000
   120  C    6.000000
   121  O    8.000000
   122  O    8.000000
   123  C    6.000000
   124  H    1.000000
   125  H    1.000000
   126  H    1.000000
   127  H    1.000000
   128  H    1.000000
   129  H    1.000000
   130  H    1.000000
   131  H    1.000000
   132  H    1.000000
   133  H    1.000000
   134  H    1.000000
   135  H    1.000000
   136  H    1.000000
   137  H    1.000000
   138  H    1.000000
   139  H    1.000000
   140  H    1.000000
   141  H    1.000000
   142  H    1.000000
   143  H    1.000000
   144  H    1.000000
   145  H    1.000000
   146  H    1.000000
   147  H    1.000000
   148  H    1.000000
   149  H    1.000000
   150  H    1.000000
   151  H    1.000000
   152  H    1.000000
   153  H    1.000000
   154  H    1.000000
   155  H    1.000000
   156  H    1.000000
   157  H    1.000000
   158  H    1.000000
 Sum of Mulliken charges = 624.00000

 Dipole moment (field-independent basis, Debye):
    X=              0.0000    Y=             -0.0000    Z=              0.0000  Tot=              0.0000
 Quadrupole moment (field-independent basis, Debye-Ang):
   XX=              0.0000   YY=             -0.0000   ZZ=              0.0000
   XY=             -0.0000   XZ=              0.0000   YZ=             -0.0000

 Normal termination of Gaussian 16 at Thu Oct 14 13:21:10 2021.
