 Gaussian 16, Revision A.03,
 Gaussian 16:  ES64L-G16RevA.03 25-Dec-2016

 --------------------------------------------------------
 #p PBE1PBE/Def2SVP td=(nstates=5) density=(transition=1)
 --------------------------------------------------------

 --------------------------------
 TDDFT excited states in gaussian
 --------------------------------
 Symbolic Z-matrix:
 Charge =  0 Multiplicity = 1

                         Standard orientation:
 ---------------------------------------------------------------------
 Center     Atomic      Atomic             Coordinates (Angstroms)
 Number     Number       Type             X           Y           Z
 ---------------------------------------------------------------------
      1         12           0      -31.373068    0.330569    0.314605
      2          6           0      -29.149604   -1.927962   -1.099474
      3          6           0      -31.976731    1.663080   -2.724165
      4          6           0      -33.355500    2.570308    1.817406
      5          6           0      -30.558635   -1.013511    3.443843
      6          7           0      -30.616892   -0.167444   -1.676792
      7          6           0      -29.821560   -1.143895   -2.043179
      8          6           0      -29.697059   -1.091362   -3.635414
      9          6           0      -29.938375    0.392047   -3.819048
     10          6           0      -30.964096    0.676064   -2.676001
     11          6           0      -28.603756    1.164791   -3.745777
     12          6           0      -30.641702   -2.177969   -4.307868
     13          6           0      -30.267003   -2.545845   -5.746839
     14          1           0      -29.226690   -1.707572   -6.469495
     15          7           0      -32.629062    1.763051   -0.366587
     16          6           0      -32.792163    2.113940   -1.704650
     17          6           0      -33.959146    3.042696   -1.786628
     18          6           0      -34.347403    3.380272   -0.420678
     19          6           0      -33.359348    2.602795    0.373492
     20          6           0      -34.516404    3.542704   -3.098377
     21          6           0      -35.535003    4.287138    0.146304
     22          8           0      -35.783823    4.417529    1.349622
     23          6           0      -36.392619    4.995278   -0.881626
     24          7           0      -31.788259    0.788253    2.289446
     25          6           0      -32.618873    1.755648    2.668881
     26          6           0      -32.669606    1.936299    4.217461
     27          6           0      -31.974214    0.641241    4.661071
     28          6           0      -31.440793    0.043381    3.397223
     29          6           0      -32.001823    3.238246    4.741570
     30          6           0      -32.760627   -0.347929    5.631600
     31          6           0      -33.344240   -1.583654    5.029422
     32          7           0      -29.976301   -1.013560    1.096567
     33          6           0      -29.802645   -1.504430    2.346688
     34          6           0      -28.780822   -2.486627    2.424809
     35          6           0      -28.474034   -2.708604    1.045421
     36          6           0      -29.235620   -1.797184    0.350279
     37          6           0      -28.102185   -3.206108    3.561477
     38          6           0      -27.711732   -3.458162    0.091763
     39          8           0      -26.893260   -4.342611    0.222679
     40          6           0      -28.209163   -3.115409   -1.348705
     41          6           0      -27.060297   -2.799154   -2.202643
     42          8           0      -26.312218   -1.861006   -1.973221
     43          8           0      -26.796937   -3.777179   -3.195562
     44          6           0      -25.585005   -3.567322   -4.003023
     45          1           0      -32.094111    2.108709   -3.713035
     46          1           0      -33.975888    3.340595    2.278602
     47          1           0      -30.293654   -1.372910    4.440026
     48          1           0      -28.697075   -1.400503   -3.936660
     49          1           0      -30.466488    0.651546   -4.736234
     50          1           0      -28.496952    1.532027   -4.767035
     51          1           0      -27.758142    0.530245   -3.477218
     52          1           0      -28.792617    2.024593   -3.103371
     53          1           0      -31.670865   -1.818358   -4.327935
     54          1           0      -30.495651   -3.080178   -3.713448
     55          1           0      -31.193493   -2.535883   -6.320137
     56          1           0      -29.930739   -3.582215   -5.727715
     57          1           0      -34.427304    2.789591   -3.882142
     58          1           0      -34.106344    4.472943   -3.490236
     59          1           0      -35.589789    3.690166   -2.980145
     60          1           0      -35.663460    5.508759   -1.507889
     61          1           0      -37.047041    5.765466   -0.474437
     62          1           0      -37.019480    4.270798   -1.401768
     63          1           0      -33.696846    1.966295    4.580426
     64          1           0      -31.043841    0.961090    5.128906
     65          1           0      -31.435768    2.930044    5.620936
     66          1           0      -32.662479    4.068365    4.986801
     67          1           0      -31.373189    3.632703    3.943198
     68          1           0      -33.498532    0.231286    6.186793
     69          1           0      -32.058308   -0.764309    6.353373
     70          1           0      -32.786837   -2.432447    5.426303
     71          1           0      -33.161286   -1.733136    3.964619
     72          1           0      -34.390868   -1.758495    5.278864
     73          1           0      -28.420923   -2.836806    4.536858
     74          1           0      -27.024017   -3.183876    3.400222
     75          1           0      -28.358422   -4.257495    3.693732
     76          1           0      -28.753085   -3.946147   -1.797507
     77          1           0      -25.488457   -4.222439   -4.868467
     78          1           0      -24.780986   -3.753008   -3.290342
     79          1           0      -25.583781   -2.505945   -4.248373
     80         12           0       31.365751    0.540315   -0.728104
     81          6           0       28.780100   -1.758846    0.063553
     82          6           0       29.013101    3.087175   -0.346439
     83          6           0       33.916882    2.572169   -0.281510
     84          6           0       33.617573   -2.346425   -0.728051
     85          7           0       29.140330    0.632338    0.062367
     86          6           0       28.294287   -0.427280    0.039239
     87          6           0       26.862241    0.071613    0.111403
     88          6           0       26.910055    1.437060   -0.574519
     89          6           0       28.446264    1.785290   -0.225522
     90          6           0       26.700761    1.501693   -2.088573
     91          6           0       26.360438    0.036376    1.620638
     92          6           0       25.000766   -0.529237    1.748329
     93          1           0       24.029861    0.160648    2.726272
     94          7           0       31.497847    2.601387   -0.307488
     95          6           0       30.396661    3.492469   -0.270658
     96          6           0       30.947056    4.810685   -0.079500
     97          6           0       32.364893    4.756642   -0.139893
     98          6           0       32.685885    3.287322   -0.223157
     99          6           0       30.031316    6.019017    0.088689
    100          6           0       33.290370    5.898785    0.010302
    101          8           0       32.823564    7.016514    0.191690
    102          6           0       34.782233    5.848589    0.059011
    103          7           0       33.537513    0.093645   -0.431788
    104          6           0       34.322834    1.187995   -0.481148
    105          6           0       35.804018    0.789103   -0.610847
    106          6           0       35.734615   -0.811672   -0.915608
    107          6           0       34.216159   -1.065923   -0.730750
    108          6           0       36.642537    1.677534   -1.636100
    109          6           0       36.658971   -1.705623   -0.031015
    110          6           0       36.015498   -2.420303    1.205929
    111          7           0       31.275745   -1.533317   -0.425123
    112          6           0       32.261380   -2.556043   -0.527174
    113          6           0       31.557515   -3.911699   -0.503857
    114          6           0       30.239952   -3.582194   -0.228746
    115          6           0       30.126976   -2.145855   -0.211298
    116          6           0       32.071901   -5.356067   -0.656936
    117          6           0       28.931547   -4.123325   -0.039400
    118          8           0       28.531686   -5.286823   -0.106304
    119          6           0       28.063230   -2.962734    0.292710
    120          6           0       27.782743   -3.159700    1.800067
    121          8           0       28.532092   -2.894340    2.737634
    122          8           0       26.509321   -3.783935    1.911434
    123          6           0       26.072379   -4.182492    3.187590
    124          1           0       28.311907    3.924373   -0.334441
    125          1           0       34.689796    3.343047   -0.300925
    126          1           0       34.183112   -3.269906   -0.863787
    127          1           0       26.171610   -0.510054   -0.498982
    128          1           0       26.248512    2.240535   -0.252689
    129          1           0       26.210823    0.621069   -2.502979
    130          1           0       27.597611    1.846427   -2.603859
    131          1           0       25.970099    2.305788   -2.183523
    132          1           0       26.314352    1.059269    1.994513
    133          1           0       27.074149   -0.399742    2.319659
    134          1           0       25.218852   -1.555625    2.041220
    135          1           0       24.530585   -0.511426    0.765228
    136          1           0       29.988526    6.646515   -0.801331
    137          1           0       30.333819    6.563596    0.981936
    138          1           0       29.007099    5.694114    0.272343
    139          1           0       35.144812    5.564131   -0.929080
    140          1           0       35.212040    5.175379    0.801746
    141          1           0       35.215096    6.846437    0.118641
    142          1           0       36.177381    0.912789    0.405494
    143          1           0       35.920729   -0.969110   -1.977463
    144          1           0       36.187356    2.659000   -1.768179
    145          1           0       36.926253    1.250961   -2.598934
    146          1           0       37.636805    1.674242   -1.186684
    147          1           0       37.539822   -1.170229    0.322392
    148          1           0       36.960164   -2.482712   -0.733105
    149          1           0       36.913677   -2.393128    1.823332
    150          1           0       35.687943   -3.453624    1.089591
    151          1           0       35.244493   -1.759414    1.602539
    152          1           0       31.579182   -5.860466   -1.487415
    153          1           0       31.599650   -5.752837    0.241254
    154          1           0       33.159450   -5.325347   -0.594330
    155          1           0       27.124239   -3.043284   -0.255047
    156          1           0       25.094693   -4.665744    3.203282
    157          1           0       26.010266   -3.286354    3.803697
    158          1           0       26.834496   -4.878477    3.539285
 ---------------------------------------------------------------------

 SCF Done:  E(RPBE1PBE) =  -4067.34075179     A.U. after   16 cycles

 Excitation energies and oscillator strengths:

 Excited State   1:      Singlet-A      1.8406 eV  673.61 nm  f=0.3447  <S**2>=0.000
     309 -> 315        0.18902
     312 -> 314        0.68698
 This state for optimization and/or second-order correction.
 Total Energy, E(TD-HF/TD-DFT) =  -4067.27311136
 Copying the excited state density for this state as the 1-particle RhoCI density.

 Excited State   2:      Singlet-A      1.8723 eV  662.22 nm  f=0.3805  <S**2>=0.000
     310 -> 316       -0.17571
     311 -> 313        0.69311
     311 <- 313       -0.10656

 Excited State   3:      Singlet-A      1.9698 eV  629.42 nm  f=0.0000  <S**2>=0.000
     312 -> 313        0.70711

 Excited State   4:      Singlet-A      2.0917 eV  592.74 nm  f=0.0000  <S**2>=0.000
     311 -> 314        0.70711

 Excited State   5:      Singlet-A      2.1946 eV  564.94 nm  f=0.0645  <S**2>=0.000
     309 -> 314        0.63438
     312 -> 315       -0.29988

 The electronic state is 1-A.
 Alpha  occ. eigenvalues --  -46.94677 -46.91182 -19.25353 -19.24629 -19.21575
 Alpha  occ. eigenvalues --  -19.20492 -19.19731 -19.19074 -19.18345 -19.17825
 Alpha  occ. eigenvalues --  -14.41870 -14.41501 -14.41388 -14.41101 -14.39856
 Alpha  occ. eigenvalues --  -14.39642 -14.39447 -14.38433 -10.37637 -10.35924
 Alpha  occ. eigenvalues --  -10.34197 -10.31618 -10.31435 -10.31287 -10.29623
 Alpha  occ. eigenvalues --  -10.29224 -10.29201 -10.28988 -10.28883 -10.28694
 Alpha  occ. eigenvalues --  -10.28597 -10.28541 -10.28404 -10.28335 -10.28322
 Alpha  occ. eigenvalues --  -10.28228 -10.28158 -10.27872 -10.27818 -10.27657
 Alpha  occ. eigenvalues --  -10.27060 -10.26996 -10.26854 -10.26638 -10.26483
 Alpha  occ. eigenvalues --  -10.26362 -10.26220 -10.26185 -10.26152 -10.26042
 Alpha  occ. eigenvalues --  -10.25922 -10.25893 -10.25763 -10.25662 -10.25451
 Alpha  occ. eigenvalues --  -10.25385 -10.25375 -10.25337 -10.25327 -10.25304
 Alpha  occ. eigenvalues --  -10.25255 -10.25190 -10.25162 -10.25047 -10.24882
 Alpha  occ. eigenvalues --  -10.24781 -10.24731 -10.24701 -10.24639 -10.24536
 Alpha  occ. eigenvalues --  -10.24292 -10.24282 -10.24035 -10.23847 -10.23809
 Alpha  occ. eigenvalues --  -10.23760 -10.23435 -10.23283 -10.23226 -10.23102
 Alpha  occ. eigenvalues --  -10.23093 -10.23084 -10.22764 -10.22638 -10.22195
 Alpha  occ. eigenvalues --  -10.22015  -3.16465  -3.13521  -1.89242  -1.88890
 Alpha  occ. eigenvalues --   -1.88641  -1.86376  -1.85861  -1.85794  -1.10537
 Alpha  occ. eigenvalues --   -1.09267  -1.05018  -1.04526  -1.04260  -1.04123
 Alpha  occ. eigenvalues --   -1.03435  -1.01613  -1.00380  -0.99440  -0.98796
 Alpha  occ. eigenvalues --   -0.98792  -0.98052  -0.97719  -0.97467  -0.95968
 Alpha  occ. eigenvalues --   -0.88741  -0.86606  -0.83553  -0.83427  -0.83004
 Alpha  occ. eigenvalues --   -0.82814  -0.82522  -0.82079  -0.81585  -0.81541
 Alpha  occ. eigenvalues --   -0.81284  -0.81164  -0.80755  -0.79897  -0.79054
 Alpha  occ. eigenvalues --   -0.78525  -0.78027  -0.77933  -0.77019  -0.76966
 Alpha  occ. eigenvalues --   -0.76590  -0.75858  -0.75341  -0.75132  -0.74612
 Alpha  occ. eigenvalues --   -0.74453  -0.72750  -0.72348  -0.71612  -0.71572
 Alpha  occ. eigenvalues --   -0.71185  -0.71024  -0.70325  -0.70142  -0.69566
 Alpha  occ. eigenvalues --   -0.69433  -0.67345  -0.67168  -0.66309  -0.65628
 Alpha  occ. eigenvalues --   -0.64260  -0.63698  -0.63157  -0.63153  -0.62369
 Alpha  occ. eigenvalues --   -0.61683  -0.61235  -0.60889  -0.59825  -0.59591
 Alpha  occ. eigenvalues --   -0.59435  -0.59200  -0.59173  -0.59088  -0.58778
 Alpha  occ. eigenvalues --   -0.58419  -0.56753  -0.55900  -0.55063  -0.54470
 Alpha  occ. eigenvalues --   -0.54313  -0.54216  -0.53902  -0.53748  -0.53280
 Alpha  occ. eigenvalues --   -0.52905  -0.52701  -0.52553  -0.52106  -0.51577
 Alpha  occ. eigenvalues --   -0.50639  -0.50562  -0.50401  -0.50241  -0.50223
 Alpha  occ. eigenvalues --   -0.50015  -0.49418  -0.49330  -0.49137  -0.48430
 Alpha  occ. eigenvalues --   -0.48277  -0.48218  -0.47942  -0.47733  -0.47635
 Alpha  occ. eigenvalues --   -0.47463  -0.47304  -0.47139  -0.46929  -0.46727
 Alpha  occ. eigenvalues --   -0.46640  -0.46466  -0.46447  -0.46194  -0.45973
 Alpha  occ. eigenvalues --   -0.45848  -0.45801  -0.45199  -0.45157  -0.45096
 Alpha  occ. eigenvalues --   -0.45046  -0.44774  -0.44493  -0.44394  -0.44097
 Alpha  occ. eigenvalues --   -0.44009  -0.43879  -0.43792  -0.43604  -0.43598
 Alpha  occ. eigenvalues --   -0.43485  -0.43230  -0.43143  -0.43102  -0.42913
 Alpha  occ. eigenvalues --   -0.42505  -0.42341  -0.42197  -0.42007  -0.41834
 Alpha  occ. eigenvalues --   -0.41671  -0.41615  -0.41262  -0.41139  -0.40791
 Alpha  occ. eigenvalues --   -0.40757  -0.40623  -0.40591  -0.40527  -0.40519
 Alpha  occ. eigenvalues --   -0.40483  -0.40176  -0.40068  -0.39893  -0.39677
 Alpha  occ. eigenvalues --   -0.39440  -0.39289  -0.39218  -0.39139  -0.38909
 Alpha  occ. eigenvalues --   -0.38832  -0.38546  -0.38541  -0.38345  -0.38313
 Alpha  occ. eigenvalues --   -0.38126  -0.38076  -0.37938  -0.37812  -0.37783
 Alpha  occ. eigenvalues --   -0.37409  -0.37249  -0.36994  -0.36981  -0.36672
 Alpha  occ. eigenvalues --   -0.36406  -0.36267  -0.36144  -0.35916  -0.35850
 Alpha  occ. eigenvalues --   -0.35819  -0.35757  -0.35508  -0.35349  -0.34985
 Alpha  occ. eigenvalues --   -0.34942  -0.34878  -0.34115  -0.34062  -0.33501
 Alpha  occ. eigenvalues --   -0.33277  -0.33174  -0.33051  -0.32890  -0.32616
 Alpha  occ. eigenvalues --   -0.32559  -0.31704  -0.31582  -0.31301  -0.31226
 Alpha  occ. eigenvalues --   -0.30785  -0.30569  -0.30024  -0.29696  -0.29432
 Alpha  occ. eigenvalues --   -0.29032  -0.28957  -0.28577  -0.26850  -0.26746
 Alpha  occ. eigenvalues --   -0.26624  -0.26241  -0.26001  -0.25860  -0.25470
 Alpha  occ. eigenvalues --   -0.25253  -0.25228  -0.24841  -0.20988  -0.20839
 Alpha  occ. eigenvalues --   -0.18973  -0.18744
 Alpha virt. eigenvalues --   -0.11295  -0.11074  -0.05994  -0.04804  -0.04368
 Alpha virt. eigenvalues --   -0.04198  -0.03131  -0.02181  -0.02030   0.00113
 Alpha virt. eigenvalues --    0.00126   0.00797   0.00871   0.01405   0.01687

 Mulliken charges:
               1
     1  Mg  11.999982
     2  C    6.000073
     3  C    6.000022
     4  C    5.999918
     5  C    5.999899
     6  N    7.000015
     7  C    5.999967
     8  C    6.000005
     9  C    5.999985
    10  C    6.000049
    11  C    6.000021
    12  C    6.000012
    13  C    6.000014
    14  H    0.999991
    15  N    7.000021
    16  C    6.000115
    17  C    6.000006
    18  C    6.000061
    19  C    6.000088
    20  C    6.000009
    21  C    6.000049
    22  O    8.000100
    23  C    5.999974
    24  N    7.000011
    25  C    6.000111
    26  C    5.999969
    27  C    6.000005
    28  C    5.999980
    29  C    5.999983
    30  C    5.999996
    31  C    5.999997
    32  N    6.999996
    33  C    5.999956
    34  C    5.999867
    35  C    5.999982
    36  C    5.999884
    37  C    6.000005
    38  C    5.999922
    39  O    7.999912
    40  C    6.000008
    41  C    5.999986
    42  O    7.999985
    43  O    7.999983
    44  C    6.000017
    45  H    1.000038
    46  H    1.000023
    47  H    0.999963
    48  H    1.000002
    49  H    1.000001
    50  H    1.000013
    51  H    1.000041
    52  H    0.999996
    53  H    0.999962
    54  H    1.000015
    55  H    0.999983
    56  H    0.999996
    57  H    1.000054
    58  H    1.000079
    59  H    1.000051
    60  H    1.000023
    61  H    1.000057
    62  H    1.000028
    63  H    0.999997
    64  H    1.000000
    65  H    1.000036
    66  H    1.000004
    67  H    1.000003
    68  H    0.999972
    69  H    1.000001
    70  H    1.000002
    71  H    1.000007
    72  H    0.999973
    73  H    0.999948
    74  H    0.999950
    75  H    0.999925
    76  H    0.999970
    77  H    0.999972
    78  H    0.999992
    79  H    0.999992
    80  Mg  11.998042
    81  C    5.982213
    82  C    6.012359
    83  C    6.013534
    84  C    5.985164
    85  N    6.996564
    86  C    6.024670
    87  C    5.996644
    88  C    6.001750
    89  C    5.972147
    90  C    6.001211
    91  C    5.995327
    92  C    5.999143
    93  H    1.006312
    94  N    7.009555
    95  C    5.958330
    96  C    5.981945
    97  C    5.987786
    98  C    5.969013
    99  C    6.004317
   100  C    5.990379
   101  O    7.978030
   102  C    6.002647
   103  N    6.996530
   104  C    5.970258
   105  C    6.010738
   106  C    5.987880
   107  C    6.035101
   108  C    6.003100
   109  C    6.000993
   110  C    5.992235
   111  N    6.997459
   112  C    6.042484
   113  C    6.027737
   114  C    6.000577
   115  C    6.026270
   116  C    6.001665
   117  C    6.019300
   118  O    8.030762
   119  C    5.997297
   120  C    6.002670
   121  O    8.005739
   122  O    8.001568
   123  C    5.997943
   124  H    0.991131
   125  H    0.996470
   126  H    1.009180
   127  H    0.998486
   128  H    0.999682
   129  H    0.986689
   130  H    1.002203
   131  H    0.998353
   132  H    1.011800
   133  H    0.997350
   134  H    0.994364
   135  H    1.002768
   136  H    0.981812
   137  H    0.985392
   138  H    0.983566
   139  H    0.989315
   140  H    0.989037
   141  H    0.988803
   142  H    0.999348
   143  H    1.004234
   144  H    1.008275
   145  H    0.994140
   146  H    0.995492
   147  H    1.009370
   148  H    1.000091
   149  H    1.008186
   150  H    0.996159
   151  H    1.001741
   152  H    1.015901
   153  H    1.011862
   154  H    1.014696
   155  H    1.009182
   156  H    1.004344
   157  H    1.005815
   158  H    0.999379
 Sum of Mulliken charges = 624.00000

 Dipole moment (field-independent basis, Debye):
    X=             -0.4947    Y=             -9.9251    Z=              0.0557  Tot=              9.9376
 Quadrupole moment (field-independent basis, Debye-Ang):
   XX=            -25.7892   YY=            -10.8775   ZZ=              0.8806
   XY=           -312.3049   XZ=              0.1814   YZ=              1.7928

 Normal termination of Gaussian 16 at Fri Oct 15 18:43:19 2021.
