 Gaussian 16, Revision A.03,
 Gaussian 16:  ES64L-G16RevA.03 25-Dec-2016

 --------------------------------------------------------
 #p PBE1PBE/Def2SVP td=(nstates=5) density=(transition=1)
 --------------------------------------------------------

 --------------------------------
 TDDFT excited states in gaussian
 --------------------------------
 Symbolic Z-matrix:
 Charge =  0 Multiplicity = 1

                         Standard orientation:
 ---------------------------------------------------------------------
 Center     Atomic      Atomic             Coordinates (Angstroms)
 Number     Number       Type             X           Y           Z
 ---------------------------------------------------------------------
      1         12           0      -26.260130    0.311926   -0.566116
      2          6           0      -24.639441   -2.257594    1.485306
      3          6           0      -25.674208    2.508750    2.099704
      4          6           0      -27.996132    2.556772   -2.170656
      5          6           0      -26.562802   -1.963541   -3.114168
      6          7           0      -25.471891    0.097325    1.596343
      7          6           0      -24.736190   -1.009510    2.195143
      8          6           0      -24.235977   -0.722624    3.627170
      9          6           0      -24.811743    0.799445    3.806889
     10          6           0      -25.382014    1.201597    2.432615
     11          6           0      -25.817332    0.944083    4.932580
     12          6           0      -22.692981   -0.922675    3.720278
     13          6           0      -22.050582   -0.392064    4.966577
     14          1           0      -21.012110   -1.221943    5.688066
     15          7           0      -26.809918    2.292235   -0.110708
     16          6           0      -26.471385    3.032838    1.027487
     17          6           0      -27.003647    4.389014    0.908448
     18          6           0      -27.701108    4.437438   -0.367536
     19          6           0      -27.540741    3.065761   -0.977362
     20          6           0      -26.752520    5.549967    1.939279
     21          6           0      -28.488198    5.517407   -1.018032
     22          8           0      -29.006222    5.439358   -2.124065
     23          6           0      -28.591818    6.840599   -0.380227
     24          7           0      -27.049945    0.335679   -2.365741
     25          6           0      -27.836306    1.327453   -2.788020
     26          6           0      -28.406581    1.076360   -4.203668
     27          6           0      -27.590835   -0.124552   -4.635420
     28          6           0      -27.061601   -0.689278   -3.260421
     29          6           0      -29.907801    0.812110   -4.209980
     30          6           0      -26.463725   -0.033591   -5.631299
     31          6           0      -25.299925    0.821945   -5.178361
     32          7           0      -25.823018   -1.713214   -0.779408
     33          6           0      -25.924203   -2.481902   -1.953007
     34          6           0      -25.434830   -3.811385   -1.683110
     35          6           0      -24.879932   -3.676718   -0.384451
     36          6           0      -25.145155   -2.397586    0.140641
     37          6           0      -25.329989   -4.979747   -2.619318
     38          6           0      -24.082060   -4.457991    0.610598
     39          8           0      -23.538225   -5.579726    0.524030
     40          6           0      -23.952094   -3.555210    1.835352
     41          6           0      -24.493810   -4.271848    3.074016
     42          8           0      -25.667326   -4.663777    3.344439
     43          8           0      -23.479046   -4.309518    3.984069
     44          6           0      -23.818667   -4.893806    5.301310
     45          1           0      -25.314286    3.230302    2.834770
     46          1           0      -28.633542    3.270230   -2.697006
     47          1           0      -26.648144   -2.746748   -3.870467
     48          1           0      -24.681192   -1.503822    4.243228
     49          1           0      -23.969630    1.481370    3.925065
     50          1           0      -25.440452    1.683767    5.639510
     51          1           0      -25.868730   -0.027450    5.422809
     52          1           0      -26.869858    1.023938    4.661567
     53          1           0      -22.293502   -0.539485    2.780658
     54          1           0      -22.480534   -1.990866    3.674617
     55          1           0      -22.707782   -0.174783    5.808271
     56          1           0      -21.475939    0.500149    4.719566
     57          1           0      -26.202982    6.304153    1.375231
     58          1           0      -26.150597    5.247411    2.796027
     59          1           0      -27.738311    5.898313    2.247715
     60          1           0      -28.782044    6.799550    0.692459
     61          1           0      -29.441464    7.299315   -0.884753
     62          1           0      -27.583532    7.245407   -0.461877
     63          1           0      -28.214802    1.976819   -4.787297
     64          1           0      -28.206054   -0.886894   -5.114202
     65          1           0      -30.344234    1.325562   -5.065937
     66          1           0      -30.379144    1.189583   -3.303165
     67          1           0      -30.104153   -0.239508   -4.421976
     68          1           0      -26.886847    0.278562   -6.586488
     69          1           0      -25.970490   -0.998025   -5.751347
     70          1           0      -24.965101    1.503073   -5.959843
     71          1           0      -24.411742    0.234999   -4.943356
     72          1           0      -25.514227    1.451748   -4.314833
     73          1           0      -24.312087   -5.368573   -2.605520
     74          1           0      -25.584790   -4.873601   -3.673762
     75          1           0      -26.000620   -5.749770   -2.237407
     76          1           0      -22.890388   -3.405671    2.033678
     77          1           0      -23.996160   -4.096404    6.022639
     78          1           0      -22.927915   -5.505567    5.444251
     79          1           0      -24.641106   -5.607755    5.241173
     80         12           0       26.194511   -0.634775    0.293804
     81          6           0       25.356103    2.843808    0.027835
     82          6           0       23.001263   -1.229712   -1.192498
     83          6           0       27.073973   -3.772248   -0.525753
     84          6           0       29.415110    0.269225    1.005725
     85          7           0       24.459323    0.676811   -0.498246
     86          6           0       24.331539    2.035010   -0.477112
     87          6           0       22.958713    2.502098   -1.075201
     88          6           0       22.133237    1.127725   -1.053229
     89          6           0       23.279038    0.130512   -0.987603
     90          6           0       21.216656    0.959374    0.136812
     91          6           0       23.095151    3.248247   -2.392120
     92          6           0       22.249063    4.534630   -2.577530
     93          1           0       20.894447    4.511825   -3.427444
     94          7           0       25.130763   -2.370140   -0.656405
     95          6           0       23.791435   -2.388501   -1.098459
     96          6           0       23.463147   -3.746938   -1.547882
     97          6           0       24.666080   -4.519994   -1.304798
     98          6           0       25.691141   -3.580041   -0.904967
     99          6           0       22.192282   -4.205089   -2.158146
    100          6           0       24.776969   -6.017226   -1.447886
    101          8           0       23.761634   -6.649533   -1.633658
    102          6           0       26.073064   -6.789779   -1.362141
    103          7           0       27.975119   -1.501670    0.151593
    104          6           0       28.045684   -2.876109   -0.057510
    105          6           0       29.518150   -3.279286    0.050134
    106          6           0       30.202378   -2.043101    0.740512
    107          6           0       29.109233   -1.030933    0.669631
    108          6           0       29.863200   -4.671802    0.694832
    109          6           0       31.575937   -1.557731    0.183723
    110          6           0       32.720513   -1.450674    1.137900
    111          7           0       27.196630    1.125650    0.605744
    112          6           0       28.511506    1.356759    0.970556
    113          6           0       28.708187    2.768579    1.352311
    114          6           0       27.468913    3.379539    0.916338
    115          6           0       26.640609    2.341650    0.478443
    116          6           0       29.907793    3.458402    1.946652
    117          6           0       26.759354    4.690315    0.836328
    118          8           0       27.145388    5.800800    1.066665
    119          6           0       25.433288    4.367911    0.155165
    120          6           0       24.331440    4.884896    1.031170
    121          8           0       24.163661    4.378573    2.119803
    122          8           0       23.492033    5.886158    0.456792
    123          6           0       22.271813    6.260022    1.234336
    124          1           0       22.013015   -1.458029   -1.597481
    125          1           0       27.515711   -4.751793   -0.716147
    126          1           0       30.401683    0.486742    1.419514
    127          1           0       22.399600    3.118871   -0.372165
    128          1           0       21.622959    0.954569   -2.000643
    129          1           0       21.814103    0.627538    0.985642
    130          1           0       20.437322    0.256456   -0.157218
    131          1           0       20.694525    1.833699    0.526835
    132          1           0       22.756119    2.557513   -3.163543
    133          1           0       24.158875    3.365445   -2.598964
    134          1           0       22.951569    5.221554   -3.050075
    135          1           0       21.950447    4.995075   -1.635686
    136          1           0       21.619264   -4.666045   -1.354183
    137          1           0       22.401939   -5.023524   -2.846915
    138          1           0       21.551960   -3.501007   -2.690870
    139          1           0       26.000312   -7.850814   -1.600106
    140          1           0       26.393699   -6.702544   -0.323953
    141          1           0       26.941364   -6.439735   -1.919146
    142          1           0       29.776924   -3.428369   -0.998556
    143          1           0       30.243264   -2.235742    1.812159
    144          1           0       29.032736   -5.029768    1.303940
    145          1           0       30.795692   -4.611763    1.255746
    146          1           0       30.075349   -5.403696   -0.084235
    147          1           0       31.437026   -0.586798   -0.291658
    148          1           0       31.821623   -2.201265   -0.660924
    149          1           0       32.918924   -0.398118    1.338947
    150          1           0       33.615205   -1.876365    0.683773
    151          1           0       32.611609   -1.926248    2.112375
    152          1           0       29.620775    4.386395    2.440748
    153          1           0       30.596368    3.642515    1.121515
    154          1           0       30.418435    2.741159    2.589490
    155          1           0       25.479542    4.774333   -0.855286
    156          1           0       22.555624    6.939418    2.038242
    157          1           0       21.836080    5.386141    1.718194
    158          1           0       21.519466    6.705051    0.583448
 ---------------------------------------------------------------------

 SCF Done:  E(RPBE1PBE) =  -4067.38658711     A.U. after   16 cycles

 Excitation energies and oscillator strengths:

 Excited State   1:      Singlet-A      1.8175 eV  682.18 nm  f=0.3798  <S**2>=0.000
     310 -> 315       -0.16217
     311 -> 313        0.69590
     311 <- 313       -0.11403
 This state for optimization and/or second-order correction.
 Total Energy, E(TD-HF/TD-DFT) =  -4067.31979674
 Copying the excited state density for this state as the 1-particle RhoCI density.

 Excited State   2:      Singlet-A      1.8362 eV  675.21 nm  f=0.3888  <S**2>=0.000
     309 -> 316        0.16422
     312 -> 314        0.69663
     312 <- 314       -0.11952

 Excited State   3:      Singlet-A      1.8568 eV  667.74 nm  f=0.0000  <S**2>=0.000
     312 -> 313        0.70711

 Excited State   4:      Singlet-A      2.0309 eV  610.48 nm  f=0.0000  <S**2>=0.000
     311 -> 314        0.70711

 Excited State   5:      Singlet-A      2.1799 eV  568.77 nm  f=0.1283  <S**2>=0.000
     310 -> 313        0.66146
     311 -> 315        0.23366

 The electronic state is 1-A.
 Alpha  occ. eigenvalues --  -46.92737 -46.91176 -19.26525 -19.25863 -19.20863
 Alpha  occ. eigenvalues --  -19.20021 -19.19834 -19.18913 -19.18786 -19.18236
 Alpha  occ. eigenvalues --  -14.42128 -14.42099 -14.41671 -14.41358 -14.39532
 Alpha  occ. eigenvalues --  -14.39004 -14.38824 -14.38686 -10.37183 -10.37106
 Alpha  occ. eigenvalues --  -10.32476 -10.32000 -10.31688 -10.31624 -10.29926
 Alpha  occ. eigenvalues --  -10.29460 -10.29219 -10.29128 -10.29060 -10.29023
 Alpha  occ. eigenvalues --  -10.28807 -10.28662 -10.28586 -10.28487 -10.28186
 Alpha  occ. eigenvalues --  -10.28156 -10.27945 -10.27921 -10.27867 -10.27327
 Alpha  occ. eigenvalues --  -10.27281 -10.26846 -10.26815 -10.26789 -10.26707
 Alpha  occ. eigenvalues --  -10.26583 -10.26569 -10.26472 -10.26391 -10.26369
 Alpha  occ. eigenvalues --  -10.26353 -10.26337 -10.26245 -10.25924 -10.25830
 Alpha  occ. eigenvalues --  -10.25769 -10.25720 -10.25575 -10.25489 -10.25459
 Alpha  occ. eigenvalues --  -10.25137 -10.25106 -10.24856 -10.24784 -10.24719
 Alpha  occ. eigenvalues --  -10.24718 -10.24481 -10.24471 -10.24332 -10.24226
 Alpha  occ. eigenvalues --  -10.24070 -10.24038 -10.23934 -10.23704 -10.23560
 Alpha  occ. eigenvalues --  -10.23509 -10.23346 -10.23271 -10.23229 -10.23217
 Alpha  occ. eigenvalues --  -10.23181 -10.23074 -10.22934 -10.22831 -10.22735
 Alpha  occ. eigenvalues --  -10.21989  -3.14883  -3.13492  -1.87670  -1.87264
 Alpha  occ. eigenvalues --   -1.87112  -1.86340  -1.85879  -1.85717  -1.10884
 Alpha  occ. eigenvalues --   -1.10019  -1.06406  -1.05001  -1.04910  -1.02709
 Alpha  occ. eigenvalues --   -1.02642  -1.00667  -0.99673  -0.99239  -0.98196
 Alpha  occ. eigenvalues --   -0.97716  -0.97377  -0.96740  -0.96199  -0.95167
 Alpha  occ. eigenvalues --   -0.87035  -0.86778  -0.84005  -0.83727  -0.83144
 Alpha  occ. eigenvalues --   -0.83140  -0.82963  -0.82787  -0.81904  -0.81631
 Alpha  occ. eigenvalues --   -0.81092  -0.80551  -0.80351  -0.79961  -0.79029
 Alpha  occ. eigenvalues --   -0.78763  -0.78418  -0.78277  -0.77234  -0.76769
 Alpha  occ. eigenvalues --   -0.76320  -0.76027  -0.75824  -0.74849  -0.74518
 Alpha  occ. eigenvalues --   -0.74416  -0.72674  -0.72497  -0.71795  -0.71632
 Alpha  occ. eigenvalues --   -0.71216  -0.71097  -0.70600  -0.70339  -0.69820
 Alpha  occ. eigenvalues --   -0.69604  -0.67306  -0.67107  -0.66342  -0.66230
 Alpha  occ. eigenvalues --   -0.64599  -0.63914  -0.63829  -0.63311  -0.62349
 Alpha  occ. eigenvalues --   -0.62068  -0.61639  -0.61139  -0.60403  -0.59596
 Alpha  occ. eigenvalues --   -0.59520  -0.59242  -0.59141  -0.58842  -0.58766
 Alpha  occ. eigenvalues --   -0.58391  -0.56876  -0.56594  -0.54680  -0.54355
 Alpha  occ. eigenvalues --   -0.53990  -0.53807  -0.53794  -0.53721  -0.53476
 Alpha  occ. eigenvalues --   -0.53002  -0.52927  -0.52298  -0.52245  -0.51960
 Alpha  occ. eigenvalues --   -0.51113  -0.50828  -0.50463  -0.50200  -0.50056
 Alpha  occ. eigenvalues --   -0.50000  -0.49798  -0.49364  -0.48957  -0.48802
 Alpha  occ. eigenvalues --   -0.48445  -0.47905  -0.47871  -0.47731  -0.47505
 Alpha  occ. eigenvalues --   -0.47490  -0.47358  -0.47091  -0.46891  -0.46819
 Alpha  occ. eigenvalues --   -0.46335  -0.46254  -0.45896  -0.45834  -0.45572
 Alpha  occ. eigenvalues --   -0.45473  -0.45429  -0.45180  -0.45083  -0.45014
 Alpha  occ. eigenvalues --   -0.44821  -0.44506  -0.44493  -0.44439  -0.44312
 Alpha  occ. eigenvalues --   -0.43954  -0.43935  -0.43789  -0.43523  -0.43488
 Alpha  occ. eigenvalues --   -0.43323  -0.43275  -0.43230  -0.42952  -0.42824
 Alpha  occ. eigenvalues --   -0.42764  -0.42433  -0.42386  -0.42170  -0.41842
 Alpha  occ. eigenvalues --   -0.41745  -0.41668  -0.41495  -0.41340  -0.41112
 Alpha  occ. eigenvalues --   -0.41031  -0.40914  -0.40876  -0.40820  -0.40717
 Alpha  occ. eigenvalues --   -0.40695  -0.40612  -0.40507  -0.40212  -0.39958
 Alpha  occ. eigenvalues --   -0.39705  -0.39661  -0.39386  -0.39264  -0.39158
 Alpha  occ. eigenvalues --   -0.39099  -0.38856  -0.38608  -0.38444  -0.38371
 Alpha  occ. eigenvalues --   -0.38264  -0.38126  -0.37922  -0.37798  -0.37503
 Alpha  occ. eigenvalues --   -0.37490  -0.37431  -0.37364  -0.37183  -0.37058
 Alpha  occ. eigenvalues --   -0.36812  -0.36702  -0.36495  -0.36397  -0.36095
 Alpha  occ. eigenvalues --   -0.36030  -0.35747  -0.35657  -0.35530  -0.35367
 Alpha  occ. eigenvalues --   -0.35213  -0.34858  -0.34236  -0.34213  -0.34013
 Alpha  occ. eigenvalues --   -0.33859  -0.33450  -0.32690  -0.32350  -0.32346
 Alpha  occ. eigenvalues --   -0.32188  -0.32045  -0.31828  -0.31596  -0.31567
 Alpha  occ. eigenvalues --   -0.31197  -0.30858  -0.29791  -0.29561  -0.29546
 Alpha  occ. eigenvalues --   -0.29143  -0.28834  -0.28629  -0.27092  -0.26853
 Alpha  occ. eigenvalues --   -0.26350  -0.25866  -0.25797  -0.25397  -0.25324
 Alpha  occ. eigenvalues --   -0.25238  -0.25026  -0.24405  -0.21208  -0.21173
 Alpha  occ. eigenvalues --   -0.19118  -0.18784
 Alpha virt. eigenvalues --   -0.11709  -0.11402  -0.05247  -0.05027  -0.03885
 Alpha virt. eigenvalues --   -0.03550  -0.02216  -0.01965  -0.01553  -0.00337
 Alpha virt. eigenvalues --   -0.00215   0.00081   0.00235   0.01244   0.01458

 Mulliken charges:
               1
     1  Mg  11.997805
     2  C    6.015919
     3  C    5.994087
     4  C    5.985502
     5  C    6.009753
     6  N    7.005725
     7  C    5.968657
     8  C    6.010441
     9  C    5.992325
    10  C    6.024235
    11  C    5.993318
    12  C    6.003004
    13  C    5.999603
    14  H    0.999505
    15  N    6.995594
    16  C    6.035509
    17  C    6.021797
    18  C    6.015313
    19  C    6.029167
    20  C    6.001405
    21  C    6.012010
    22  O    8.030113
    23  C    5.996767
    24  N    7.001480
    25  C    6.033186
    26  C    5.992501
    27  C    6.001667
    28  C    5.967449
    29  C    5.998337
    30  C    6.007033
    31  C    6.005006
    32  N    7.001334
    33  C    5.960545
    34  C    5.978424
    35  C    5.993871
    36  C    5.967581
    37  C    6.002778
    38  C    5.980960
    39  O    7.969239
    40  C    6.002047
    41  C    5.997449
    42  O    7.994117
    43  O    7.998356
    44  C    6.001069
    45  H    1.010676
    46  H    1.006300
    47  H    0.990709
    48  H    1.000045
    49  H    0.999949
    50  H    1.001295
    51  H    1.012766
    52  H    0.997967
    53  H    0.997588
    54  H    1.005771
    55  H    0.995366
    56  H    0.994902
    57  H    1.015311
    58  H    1.016883
    59  H    1.014886
    60  H    1.006853
    61  H    1.013832
    62  H    1.007864
    63  H    0.998496
    64  H    0.999680
    65  H    1.002411
    66  H    0.994720
    67  H    1.012514
    68  H    0.989924
    69  H    1.004413
    70  H    0.994252
    71  H    1.005477
    72  H    0.985274
    73  H    0.985661
    74  H    0.982587
    75  H    0.983259
    76  H    0.991898
    77  H    0.993490
    78  H    0.997115
    79  H    0.997884
    80  Mg  12.000026
    81  C    6.000361
    82  C    5.999939
    83  C    5.999568
    84  C    6.000021
    85  N    7.000178
    86  C    5.999538
    87  C    6.000108
    88  C    5.999910
    89  C    6.000381
    90  C    5.999900
    91  C    6.000068
    92  C    6.000001
    93  H    0.999905
    94  N    6.999994
    95  C    6.000557
    96  C    6.000387
    97  C    6.000099
    98  C    6.000550
    99  C    5.999867
   100  C    6.000169
   101  O    8.000284
   102  C    5.999941
   103  N    6.999843
   104  C    6.000527
   105  C    5.999876
   106  C    6.000152
   107  C    5.999597
   108  C    5.999996
   109  C    6.000062
   110  C    6.000019
   111  N    6.999984
   112  C    5.999567
   113  C    5.999502
   114  C    6.000004
   115  C    5.999547
   116  C    6.000051
   117  C    5.999713
   118  O    7.999604
   119  C    5.999997
   120  C    5.999926
   121  O    7.999962
   122  O    7.999974
   123  C    6.000031
   124  H    1.000208
   125  H    1.000053
   126  H    0.999797
   127  H    0.999978
   128  H    1.000026
   129  H    1.000075
   130  H    1.000008
   131  H    1.000214
   132  H    0.999870
   133  H    1.000078
   134  H    1.000024
   135  H    1.000026
   136  H    1.000313
   137  H    1.000235
   138  H    1.000271
   139  H    1.000185
   140  H    1.000144
   141  H    1.000154
   142  H    0.999998
   143  H    0.999941
   144  H    0.999964
   145  H    1.000107
   146  H    0.999958
   147  H    1.000043
   148  H    0.999842
   149  H    1.000039
   150  H    0.999906
   151  H    0.999937
   152  H    0.999766
   153  H    0.999694
   154  H    0.999770
   155  H    0.999877
   156  H    0.999965
   157  H    0.999931
   158  H    0.999918
 Sum of Mulliken charges = 624.00000

 Dipole moment (field-independent basis, Debye):
    X=             -3.1731    Y=              9.9082    Z=              1.4017  Tot=             10.4979
 Quadrupole moment (field-independent basis, Debye-Ang):
   XX=            157.5796   YY=              7.7199   ZZ=             -4.2221
   XY=           -267.6087   XZ=            -38.5442   YZ=             -1.4511

 Normal termination of Gaussian 16 at Thu Oct 14 09:03:22 2021.
