 Gaussian 16, Revision A.03,
 Gaussian 16:  ES64L-G16RevA.03 25-Dec-2016

 --------------------------------------------------------
 #p PBE1PBE/Def2SVP td=(nstates=5) density=(transition=1)
 --------------------------------------------------------

 --------------------------------
 TDDFT excited states in gaussian
 --------------------------------
 Symbolic Z-matrix:
 Charge =  0 Multiplicity = 1

                         Standard orientation:
 ---------------------------------------------------------------------
 Center     Atomic      Atomic             Coordinates (Angstroms)
 Number     Number       Type             X           Y           Z
 ---------------------------------------------------------------------
      1         12           0       16.657023   -0.688939    0.175005
      2          6           0       15.389208    2.372009   -1.393639
      3          6           0       17.469915    1.313680    2.932660
      4          6           0       18.123644   -3.283770    1.495405
      5          6           0       15.610082   -2.479911   -2.555977
      6          7           0       16.644949    1.579818    0.617951
      7          6           0       15.965226    2.648222   -0.104123
      8          6           0       16.059788    4.025363    0.587077
      9          6           0       16.943595    3.601334    1.898407
     10          6           0       17.066043    2.065741    1.848156
     11          6           0       18.285802    4.301672    1.983935
     12          6           0       14.637932    4.612501    0.838309
     13          6           0       14.584322    5.793016    1.760803
     14          1           0       13.722802    6.984600    1.406430
     15          7           0       17.701132   -0.979959    1.979563
     16          6           0       17.929134   -0.044628    2.995317
     17          6           0       18.637132   -0.683783    4.102974
     18          6           0       18.842394   -2.068014    3.704595
     19          6           0       18.219014   -2.199917    2.335982
     20          6           0       18.988887    0.011318    5.469207
     21          6           0       19.546106   -3.191196    4.377083
     22          8           0       19.621522   -4.332736    3.942401
     23          6           0       20.117822   -3.003795    5.721104
     24          7           0       16.760062   -2.572797   -0.375889
     25          6           0       17.525542   -3.462218    0.259146
     26          6           0       17.507852   -4.854547   -0.414225
     27          6           0       16.377977   -4.681077   -1.407870
     28          6           0       16.262141   -3.111602   -1.521702
     29          6           0       18.832207   -5.221309   -1.073846
     30          6           0       15.014793   -5.292671   -1.212667
     31          6           0       14.269261   -4.778311    0.000239
     32          7           0       15.791917   -0.196255   -1.654368
     33          6           0       15.328416   -1.087575   -2.638832
     34          6           0       14.717401   -0.330015   -3.703078
     35          6           0       14.686080    0.982971   -3.166750
     36          6           0       15.358368    1.032577   -1.930704
     37          6           0       14.070534   -0.833396   -4.960344
     38          6           0       14.149864    2.342108   -3.486643
     39          8           0       13.404831    2.731216   -4.411337
     40          6           0       14.630570    3.251432   -2.357936
     41          6           0       15.420681    4.428329   -2.934087
     42          8           0       16.516075    4.445316   -3.569463
     43          8           0       14.799023    5.566104   -2.511747
     44          6           0       15.456523    6.836748   -2.892555
     45          1           0       17.534348    1.891140    3.856182
     46          1           0       18.662670   -4.148264    1.888419
     47          1           0       15.274457   -2.980296   -3.466831
     48          1           0       16.532282    4.677657   -0.147277
     49          1           0       16.343316    3.764082    2.793572
     50          1           0       18.328375    4.853232    2.923557
     51          1           0       18.316533    5.005392    1.152866
     52          1           0       19.172595    3.726757    1.718031
     53          1           0       14.018199    3.760917    1.121223
     54          1           0       14.221498    4.928376   -0.118277
     55          1           0       15.522031    6.313794    1.953318
     56          1           0       14.142860    5.485491    2.708333
     57          1           0       18.433572   -0.555655    6.216941
     58          1           0       18.676485    1.054294    5.518967
     59          1           0       20.067761   -0.087872    5.589427
     60          1           0       20.657720   -2.064656    5.843793
     61          1           0       20.810138   -3.839039    5.820757
     62          1           0       19.242198   -2.899200    6.361040
     63          1           0       17.302136   -5.583519    0.369682
     64          1           0       16.629115   -5.086271   -2.388503
     65          1           0       19.033637   -6.274178   -0.879777
     66          1           0       19.652883   -4.631531   -0.666885
     67          1           0       18.736170   -5.180681   -2.159444
     68          1           0       15.130731   -6.376776   -1.224174
     69          1           0       14.334815   -4.992501   -2.009757
     70          1           0       13.821230   -5.586344    0.577393
     71          1           0       13.423117   -4.143289   -0.263178
     72          1           0       14.887603   -4.223819    0.706249
     73          1           0       13.066532   -0.418463   -5.045850
     74          1           0       13.957841   -1.902612   -5.139565
     75          1           0       14.670530   -0.463932   -5.792233
     76          1           0       13.754217    3.698788   -1.888050
     77          1           0       16.023872    7.225125   -2.047009
     78          1           0       14.571210    7.395048   -3.196930
     79          1           0       16.052782    6.741746   -3.800958
     80         12           0      -16.051161   -0.753456   -0.232538
     81          6           0      -18.032199    1.997634    0.674136
     82          6           0      -13.801762    1.249332   -1.664513
     83          6           0      -14.403238   -3.415345   -1.052487
     84          6           0      -18.993704   -2.757160    0.411888
     85          7           0      -16.032423    1.380037   -0.532777
     86          6           0      -16.798607    2.322861    0.030121
     87          6           0      -16.386469    3.709880   -0.390777
     88          6           0      -15.274485    3.418278   -1.476697
     89          6           0      -14.998287    1.950516   -1.214047
     90          6           0      -15.600998    3.716182   -2.976096
     91          6           0      -15.740708    4.509895    0.852765
     92          6           0      -16.311870    5.955324    1.026706
     93          1           0      -15.875811    6.602210    2.450707
     94          7           0      -14.274227   -1.022543   -0.973675
     95          6           0      -13.427354   -0.059463   -1.495252
     96          6           0      -12.139673   -0.657530   -1.717185
     97          6           0      -12.225291   -2.096112   -1.517743
     98          6           0      -13.653791   -2.257206   -1.045742
     99          6           0      -10.986426    0.226106   -2.273556
    100          6           0      -11.267776   -3.275841   -1.641510
    101          8           0      -11.507907   -4.457270   -1.333573
    102          6           0       -9.907289   -2.863035   -2.079670
    103          7           0      -16.735730   -2.734368   -0.431364
    104          6           0      -15.768027   -3.630786   -0.812454
    105          6           0      -16.358329   -5.030018   -0.990970
    106          6           0      -17.705303   -4.890796   -0.234215
    107          6           0      -17.876212   -3.374753   -0.119727
    108          6           0      -16.384957   -5.413906   -2.523636
    109          6           0      -17.790400   -5.612017    1.177581
    110          6           0      -19.193888   -5.987613    1.679328
    111          7           0      -18.100639   -0.492719    0.447096
    112          6           0      -19.109445   -1.386521    0.643129
    113          6           0      -20.263235   -0.750505    1.238573
    114          6           0      -19.823775    0.583278    1.324130
    115          6           0      -18.538443    0.707713    0.777645
    116          6           0      -21.635166   -1.303123    1.688691
    117          6           0      -20.226707    1.884363    1.779974
    118          8           0      -21.145849    2.278673    2.448770
    119          6           0      -19.104965    2.894721    1.203328
    120          6           0      -18.892924    3.758836    2.367553
    121          8           0      -18.166342    3.565823    3.374963
    122          8           0      -19.669423    4.833664    2.146992
    123          6           0      -19.708136    5.881740    3.167821
    124          1           0      -13.017430    1.901833   -2.054148
    125          1           0      -13.826967   -4.320492   -1.256135
    126          1           0      -19.817316   -3.422870    0.678249
    127          1           0      -17.193386    4.340708   -0.764691
    128          1           0      -14.309512    3.899047   -1.315004
    129          1           0      -15.681861    2.760046   -3.493140
    130          1           0      -14.738855    4.269901   -3.347444
    131          1           0      -16.515927    4.257476   -3.214382
    132          1           0      -14.651536    4.563681    0.870343
    133          1           0      -15.901751    3.883547    1.730249
    134          1           0      -17.400483    5.944912    0.976811
    135          1           0      -15.941372    6.689960    0.312169
    136          1           0      -10.449239    0.647406   -1.424944
    137          1           0      -11.327359    1.160851   -2.720354
    138          1           0      -10.396171   -0.185814   -3.091770
    139          1           0       -9.400762   -2.176202   -1.402513
    140          1           0      -10.106683   -2.444569   -3.066948
    141          1           0       -9.229784   -3.699729   -2.252384
    142          1           0      -15.664321   -5.699073   -0.482054
    143          1           0      -18.497764   -5.347506   -0.827038
    144          1           0      -17.406910   -5.385440   -2.901451
    145          1           0      -16.018794   -6.395367   -2.823783
    146          1           0      -15.897532   -4.722093   -3.210913
    147          1           0      -17.467441   -4.828602    1.863726
    148          1           0      -17.178927   -6.502013    1.327828
    149          1           0      -19.477221   -5.422587    2.568291
    150          1           0      -19.408136   -7.026402    1.931391
    151          1           0      -19.877841   -5.623625    0.913916
    152          1           0      -21.798842   -2.202766    1.095433
    153          1           0      -22.427679   -0.573141    1.518684
    154          1           0      -21.526636   -1.568490    2.740258
    155          1           0      -19.534804    3.500700    0.405556
    156          1           0      -19.207855    6.765907    2.773154
    157          1           0      -19.348824    5.530072    4.134357
    158          1           0      -20.744112    6.197620    3.289969
 ---------------------------------------------------------------------

 SCF Done:  E(RPBE1PBE) =  -4067.38008033     A.U. after   16 cycles

 Excitation energies and oscillator strengths:

 Excited State   1:      Singlet-A      1.8096 eV  685.13 nm  f=0.0000  <S**2>=0.000
     312 -> 313        0.70710
 This state for optimization and/or second-order correction.
 Total Energy, E(TD-HF/TD-DFT) =  -4067.31357716
 Copying the excited state density for this state as the 1-particle RhoCI density.

 Excited State   2:      Singlet-A      1.8175 eV  682.18 nm  f=0.3895  <S**2>=0.000
     309 -> 316       -0.16215
     311 -> 313        0.69583
     311 <- 313       -0.11400

 Excited State   3:      Singlet-A      1.8755 eV  661.08 nm  f=0.3695  <S**2>=0.000
     310 -> 315        0.18971
     312 -> 314        0.68786

 Excited State   4:      Singlet-A      2.1055 eV  588.87 nm  f=0.0000  <S**2>=0.000
     311 -> 314        0.70710

 Excited State   5:      Singlet-A      2.1799 eV  568.76 nm  f=0.1271  <S**2>=0.000
     309 -> 313        0.66143
     311 -> 316        0.23373

 The electronic state is 1-A.
 Alpha  occ. eigenvalues --  -46.91199 -46.90980 -19.26554 -19.25511 -19.20049
 Alpha  occ. eigenvalues --  -19.19805 -19.19286 -19.18941 -19.18805 -19.18679
 Alpha  occ. eigenvalues --  -14.42123 -14.42057 -14.41694 -14.41278 -14.39554
 Alpha  occ. eigenvalues --  -14.39111 -14.38710 -14.38086 -10.37135 -10.35551
 Alpha  occ. eigenvalues --  -10.33019 -10.32028 -10.31835 -10.31643 -10.29949
 Alpha  occ. eigenvalues --  -10.29435 -10.29249 -10.29084 -10.28977 -10.28831
 Alpha  occ. eigenvalues --  -10.28685 -10.28609 -10.28480 -10.28223 -10.28213
 Alpha  occ. eigenvalues --  -10.28179 -10.28063 -10.27889 -10.27714 -10.27596
 Alpha  occ. eigenvalues --  -10.27351 -10.27017 -10.26955 -10.26871 -10.26839
 Alpha  occ. eigenvalues --  -10.26606 -10.26593 -10.26564 -10.26499 -10.26365
 Alpha  occ. eigenvalues --  -10.26209 -10.26170 -10.25849 -10.25742 -10.25660
 Alpha  occ. eigenvalues --  -10.25599 -10.25571 -10.25538 -10.25514 -10.25500
 Alpha  occ. eigenvalues --  -10.25190 -10.25158 -10.25129 -10.25040 -10.24924
 Alpha  occ. eigenvalues --  -10.24877 -10.24741 -10.24508 -10.24441 -10.24126
 Alpha  occ. eigenvalues --  -10.24100 -10.23967 -10.23933 -10.23726 -10.23582
 Alpha  occ. eigenvalues --  -10.23488 -10.23375 -10.23368 -10.23294 -10.23246
 Alpha  occ. eigenvalues --  -10.23094 -10.22951 -10.22833 -10.22760 -10.22226
 Alpha  occ. eigenvalues --  -10.22010  -3.13516  -3.13394  -1.86363  -1.86221
 Alpha  occ. eigenvalues --   -1.85903  -1.85781  -1.85741  -1.85633  -1.10913
 Alpha  occ. eigenvalues --   -1.10703  -1.05558  -1.04929  -1.04016  -1.02737
 Alpha  occ. eigenvalues --   -1.00696  -1.00310  -0.99841  -0.99695  -0.98980
 Alpha  occ. eigenvalues --   -0.98265  -0.97741  -0.97029  -0.96762  -0.95190
 Alpha  occ. eigenvalues --   -0.87097  -0.86804  -0.84027  -0.83418  -0.83163
 Alpha  occ. eigenvalues --   -0.82988  -0.82524  -0.82348  -0.81786  -0.81654
 Alpha  occ. eigenvalues --   -0.81163  -0.81114  -0.80613  -0.80375  -0.79053
 Alpha  occ. eigenvalues --   -0.78808  -0.78442  -0.78112  -0.77259  -0.76684
 Alpha  occ. eigenvalues --   -0.76451  -0.76338  -0.75850  -0.75623  -0.74619
 Alpha  occ. eigenvalues --   -0.74440  -0.72695  -0.72451  -0.71656  -0.71628
 Alpha  occ. eigenvalues --   -0.71242  -0.71203  -0.70364  -0.70231  -0.69842
 Alpha  occ. eigenvalues --   -0.69729  -0.67331  -0.67240  -0.66590  -0.66366
 Alpha  occ. eigenvalues --   -0.64621  -0.63853  -0.63587  -0.63200  -0.62298
 Alpha  occ. eigenvalues --   -0.62093  -0.61662  -0.61614  -0.60472  -0.59999
 Alpha  occ. eigenvalues --   -0.59619  -0.59425  -0.59266  -0.59006  -0.58790
 Alpha  occ. eigenvalues --   -0.58415  -0.56621  -0.56349  -0.54769  -0.54702
 Alpha  occ. eigenvalues --   -0.54369  -0.53830  -0.53754  -0.53745  -0.53258
 Alpha  occ. eigenvalues --   -0.52951  -0.52620  -0.52324  -0.51985  -0.51555
 Alpha  occ. eigenvalues --   -0.50900  -0.50851  -0.50490  -0.50388  -0.50037
 Alpha  occ. eigenvalues --   -0.50023  -0.49820  -0.49390  -0.48982  -0.48874
 Alpha  occ. eigenvalues --   -0.48485  -0.47928  -0.47894  -0.47657  -0.47529
 Alpha  occ. eigenvalues --   -0.47450  -0.47379  -0.47113  -0.47088  -0.46842
 Alpha  occ. eigenvalues --   -0.46760  -0.46221  -0.45945  -0.45860  -0.45585
 Alpha  occ. eigenvalues --   -0.45453  -0.45213  -0.45201  -0.45037  -0.45031
 Alpha  occ. eigenvalues --   -0.44842  -0.44756  -0.44563  -0.44532  -0.44020
 Alpha  occ. eigenvalues --   -0.43974  -0.43711  -0.43550  -0.43511  -0.43511
 Alpha  occ. eigenvalues --   -0.43255  -0.43072  -0.42972  -0.42787  -0.42699
 Alpha  occ. eigenvalues --   -0.42629  -0.42457  -0.42192  -0.42114  -0.41958
 Alpha  occ. eigenvalues --   -0.41770  -0.41588  -0.41519  -0.41363  -0.41193
 Alpha  occ. eigenvalues --   -0.41093  -0.40938  -0.40741  -0.40591  -0.40535
 Alpha  occ. eigenvalues --   -0.40470  -0.40264  -0.40235  -0.39937  -0.39729
 Alpha  occ. eigenvalues --   -0.39642  -0.39287  -0.39183  -0.39123  -0.38907
 Alpha  occ. eigenvalues --   -0.38878  -0.38573  -0.38396  -0.38385  -0.38273
 Alpha  occ. eigenvalues --   -0.37943  -0.37926  -0.37699  -0.37645  -0.37517
 Alpha  occ. eigenvalues --   -0.37417  -0.37389  -0.37084  -0.37035  -0.36856
 Alpha  occ. eigenvalues --   -0.36724  -0.36675  -0.36517  -0.36223  -0.36117
 Alpha  occ. eigenvalues --   -0.36009  -0.35769  -0.35685  -0.35512  -0.35388
 Alpha  occ. eigenvalues --   -0.35192  -0.34884  -0.34509  -0.34237  -0.34035
 Alpha  occ. eigenvalues --   -0.33881  -0.33672  -0.32821  -0.32431  -0.32369
 Alpha  occ. eigenvalues --   -0.32212  -0.32008  -0.31855  -0.31620  -0.31225
 Alpha  occ. eigenvalues --   -0.30468  -0.30349  -0.29570  -0.29448  -0.29173
 Alpha  occ. eigenvalues --   -0.29169  -0.28654  -0.27863  -0.27115  -0.26972
 Alpha  occ. eigenvalues --   -0.26395  -0.25961  -0.25887  -0.25817  -0.25564
 Alpha  occ. eigenvalues --   -0.25425  -0.25202  -0.25052  -0.21197  -0.21101
 Alpha  occ. eigenvalues --   -0.19142  -0.18781
 Alpha virt. eigenvalues --   -0.11732  -0.10997  -0.05734  -0.05270  -0.04458
 Alpha virt. eigenvalues --   -0.03909  -0.02240  -0.01941  -0.00365   0.00056
 Alpha virt. eigenvalues --    0.00178   0.00849   0.00965   0.01435   0.01498

 Mulliken charges:
               1
     1  Mg  12.000000
     2  C    6.000000
     3  C    6.000000
     4  C    6.000000
     5  C    6.000000
     6  N    7.000000
     7  C    6.000000
     8  C    6.000000
     9  C    6.000000
    10  C    6.000000
    11  C    6.000000
    12  C    6.000000
    13  C    6.000000
    14  H    1.000000
    15  N    7.000000
    16  C    6.000000
    17  C    6.000000
    18  C    6.000000
    19  C    6.000000
    20  C    6.000000
    21  C    6.000000
    22  O    8.000000
    23  C    6.000000
    24  N    7.000000
    25  C    6.000000
    26  C    6.000000
    27  C    6.000000
    28  C    6.000000
    29  C    6.000000
    30  C    6.000000
    31  C    6.000000
    32  N    7.000000
    33  C    6.000000
    34  C    6.000000
    35  C    6.000000
    36  C    6.000000
    37  C    6.000000
    38  C    6.000000
    39  O    8.000000
    40  C    6.000000
    41  C    6.000000
    42  O    8.000000
    43  O    8.000000
    44  C    6.000000
    45  H    1.000000
    46  H    1.000000
    47  H    1.000000
    48  H    1.000000
    49  H    1.000000
    50  H    1.000000
    51  H    1.000000
    52  H    1.000000
    53  H    1.000000
    54  H    1.000000
    55  H    1.000000
    56  H    1.000000
    57  H    1.000000
    58  H    1.000000
    59  H    1.000000
    60  H    1.000000
    61  H    1.000000
    62  H    1.000000
    63  H    1.000000
    64  H    1.000000
    65  H    1.000000
    66  H    1.000000
    67  H    1.000000
    68  H    1.000000
    69  H    1.000000
    70  H    1.000000
    71  H    1.000000
    72  H    1.000000
    73  H    1.000000
    74  H    1.000000
    75  H    1.000000
    76  H    1.000000
    77  H    1.000000
    78  H    1.000000
    79  H    1.000000
    80  Mg  12.000000
    81  C    6.000000
    82  C    6.000000
    83  C    6.000000
    84  C    6.000000
    85  N    7.000000
    86  C    6.000000
    87  C    6.000000
    88  C    6.000000
    89  C    6.000000
    90  C    6.000000
    91  C    6.000000
    92  C    6.000000
    93  H    1.000000
    94  N    7.000000
    95  C    6.000000
    96  C    6.000000
    97  C    6.000000
    98  C    6.000000
    99  C    6.000000
   100  C    6.000000
   101  O    8.000000
   102  C    6.000000
   103  N    7.000000
   104  C    6.000000
   105  C    6.000000
   106  C    6.000000
   107  C    6.000000
   108  C    6.000000
   109  C    6.000000
   110  C    6.000000
   111  N    7.000000
   112  C    6.000000
   113  C    6.000000
   114  C    6.000000
   115  C    6.000000
   116  C    6.000000
   117  C    6.000000
   118  O    8.000000
   119  C    6.000000
   120  C    6.000000
   121  O    8.000000
   122  O    8.000000
   123  C    6.000000
   124  H    1.000000
   125  H    1.000000
   126  H    1.000000
   127  H    1.000000
   128  H    1.000000
   129  H    1.000000
   130  H    1.000000
   131  H    1.000000
   132  H    1.000000
   133  H    1.000000
   134  H    1.000000
   135  H    1.000000
   136  H    1.000000
   137  H    1.000000
   138  H    1.000000
   139  H    1.000000
   140  H    1.000000
   141  H    1.000000
   142  H    1.000000
   143  H    1.000000
   144  H    1.000000
   145  H    1.000000
   146  H    1.000000
   147  H    1.000000
   148  H    1.000000
   149  H    1.000000
   150  H    1.000000
   151  H    1.000000
   152  H    1.000000
   153  H    1.000000
   154  H    1.000000
   155  H    1.000000
   156  H    1.000000
   157  H    1.000000
   158  H    1.000000
 Sum of Mulliken charges = 624.00000

 Dipole moment (field-independent basis, Debye):
    X=              0.0000    Y=             -0.0000    Z=              0.0000  Tot=              0.0000
 Quadrupole moment (field-independent basis, Debye-Ang):
   XX=              0.0000   YY=             -0.0000   ZZ=              0.0000
   XY=             -0.0000   XZ=              0.0000   YZ=             -0.0000

 Normal termination of Gaussian 16 at Thu Oct 14 09:03:18 2021.
