 Gaussian 16, Revision A.03,
 Gaussian 16:  ES64L-G16RevA.03 25-Dec-2016

 ---------------------------------------------------
 #p PBE1PBE/Def2SVP td=(nstates=5) density=(current)
 ---------------------------------------------------

 --------------------------------
 TDDFT excited states in gaussian
 --------------------------------
 Symbolic Z-matrix:
 Charge =  0 Multiplicity = 1

                         Standard orientation:
 ---------------------------------------------------------------------
 Center     Atomic      Atomic             Coordinates (Angstroms)
 Number     Number       Type             X           Y           Z
 ---------------------------------------------------------------------
      1         12           0       -0.798222    0.035863   -0.679268
      2          6           0        2.737155   -0.145256   -0.420888
      3          6           0       -0.841340   -3.446337   -0.480393
      4          6           0       -3.939835    0.317126    0.262700
      5          6           0       -0.391861    3.671631   -0.537753
      6          7           0        0.828091   -1.615308   -0.216069
      7          6           0        2.155486   -1.438026   -0.429861
      8          6           0        2.832796   -2.792708   -0.534499
      9          6           0        1.752138   -3.703791   -1.117017
     10          6           0        0.477871   -2.909363   -0.526992
     11          6           0        1.629771   -3.811876   -2.638098
     12          6           0        3.436491   -3.198049    0.880453
     13          6           0        4.807438   -3.740110    0.772732
     14          1           0        5.161726   -4.962603    1.641617
     15          7           0       -2.254890   -1.378033   -0.112342
     16          6           0       -2.087938   -2.783638   -0.178616
     17          6           0       -3.360349   -3.360929    0.174761
     18          6           0       -4.333644   -2.336654    0.317548
     19          6           0       -3.556247   -1.053060    0.187520
     20          6           0       -3.524342   -4.873469    0.285499
     21          6           0       -5.755329   -2.525260    0.673632
     22          8           0       -6.171840   -3.662409    0.856769
     23          6           0       -6.767335   -1.458485    0.935133
     24          7           0       -1.979382    1.845072   -0.100053
     25          6           0       -3.298704    1.604744    0.035585
     26          6           0       -4.088486    2.924713    0.096980
     27          6           0       -2.977319    4.044628   -0.316873
     28          6           0       -1.701099    3.165518   -0.371199
     29          6           0       -5.448281    2.923056   -0.736402
     30          6           0       -2.880114    5.279079    0.633269
     31          6           0       -1.746802    5.279227    1.715146
     32          7           0        0.745178    1.448101   -0.526472
     33          6           0        0.741227    2.871934   -0.549832
     34          6           0        2.179913    3.358037   -0.716148
     35          6           0        2.923763    2.193296   -0.614677
     36          6           0        2.012419    1.081129   -0.521542
     37          6           0        2.793017    4.761489   -0.885419
     38          6           0        4.250735    1.665744   -0.652506
     39          8           0        5.328258    2.229195   -0.851404
     40          6           0        4.110684    0.211360   -0.376110
     41          6           0        4.669637    0.075729    1.058731
     42          8           0        4.096281    0.352316    2.110270
     43          8           0        6.017777   -0.363534    0.943650
     44          6           0        6.792302   -0.449830    2.114549
     45          1           0       -0.923397   -4.534765   -0.516562
     46          1           0       -5.022131    0.299183    0.405311
     47          1           0       -0.172699    4.734960   -0.648995
     48          1           0        3.632243   -2.819164   -1.274810
     49          1           0        1.711548   -4.757562   -0.843696
     50          1           0        2.523461   -3.495114   -3.174987
     51          1           0        0.680892   -3.410206   -2.994456
     52          1           0        1.575506   -4.891020   -2.786264
     53          1           0        2.817029   -3.986177    1.308633
     54          1           0        3.338114   -2.428540    1.646215
     55          1           0        5.407114   -2.867044    1.027610
     56          1           0        4.980864   -4.024465   -0.265026
     57          1           0       -4.060824   -5.305371   -0.559113
     58          1           0       -3.981790   -5.104757    1.246338
     59          1           0       -2.548596   -5.359363    0.297213
     60          1           0       -6.973859   -0.948364   -0.006052
     61          1           0       -6.494588   -0.717526    1.687590
     62          1           0       -7.754648   -1.879548    1.120995
     63          1           0       -4.286458    3.038417    1.162591
     64          1           0       -3.158041    4.345233   -1.348347
     65          1           0       -5.825418    1.909213   -0.869825
     66          1           0       -5.497002    3.479364   -1.673235
     67          1           0       -6.081506    3.589370   -0.148521
     68          1           0       -3.820213    5.484721    1.144511
     69          1           0       -2.659835    6.085211   -0.066118
     70          1           0       -2.308199    5.847824    2.456887
     71          1           0       -0.817792    5.801867    1.486308
     72          1           0       -1.600268    4.248060    2.037238
     73          1           0        3.366399    4.828670   -1.809325
     74          1           0        3.534954    4.670261   -0.092702
     75          1           0        2.012743    5.489254   -0.663707
     76          1           0        4.748217   -0.350956   -1.058446
     77          1           0        7.819714   -0.780367    1.957011
     78          1           0        6.307941   -1.171241    2.771413
     79          1           0        6.787787    0.559217    2.527718
 ---------------------------------------------------------------------

 SCF Done:  E(RPBE1PBE) =  -2033.64310039     A.U. after   15 cycles

 Excitation energies and oscillator strengths:

 Excited State   1:      Singlet-A      1.8406 eV  673.62 nm  f=0.3465  <S**2>=0.000
     155 ->158         0.18915
     156 ->157         0.68696
 This state for optimization and/or second-order correction.
 Total Energy, E(TD-HF/TD-DFT) =  -2033.57546082
 Copying the excited state density for this state as the 1-particle RhoCI density.

 Excited State   2:      Singlet-A      2.1946 eV  564.95 nm  f=0.0642  <S**2>=0.000
     155 ->157         0.63435
     156 ->158        -0.29981

 Excited State   3:      Singlet-A      2.8950 eV  428.28 nm  f=0.0004  <S**2>=0.000
     153 ->157         0.14514
     154 ->157         0.65139
     154 ->159         0.11649
     154 ->161         0.12670

 Excited State   4:      Singlet-A      3.0188 eV  410.70 nm  f=0.0035  <S**2>=0.000
     150 ->157         0.13069
     152 ->157        -0.42557
     152 ->159         0.15459
     153 ->157         0.49452

 Excited State   5:      Singlet-A      3.1055 eV  399.25 nm  f=0.0344  <S**2>=0.000
     152 ->157         0.42187
     153 ->157         0.43894
     154 ->157        -0.12172
     156 ->158         0.26770

 The electronic state is 1-A.
 Alpha  occ. eigenvalues --  -46.94689 -19.25367 -19.21589 -19.19087 -19.17836
 Alpha  occ. eigenvalues --  -14.41882 -14.41513 -14.39868 -14.39459 -10.37650
 Alpha  occ. eigenvalues --  -10.31630 -10.31298 -10.29635 -10.29237 -10.29213
 Alpha  occ. eigenvalues --  -10.29000 -10.28706 -10.28609 -10.28243 -10.27884
 Alpha  occ. eigenvalues --  -10.27072 -10.27008 -10.26649 -10.26373 -10.26233
 Alpha  occ. eigenvalues --  -10.26198 -10.25905 -10.25677 -10.25464 -10.25349
 Alpha  occ. eigenvalues --  -10.25316 -10.25202 -10.25174 -10.24894 -10.24742
 Alpha  occ. eigenvalues --  -10.24548 -10.24302 -10.23860 -10.23823 -10.23113
 Alpha  occ. eigenvalues --  -10.23104 -10.22776 -10.22650  -3.16477  -1.89254
 Alpha  occ. eigenvalues --   -1.88902  -1.88653  -1.10550  -1.04273  -1.04135
 Alpha  occ. eigenvalues --   -1.03449  -0.98804  -0.98064  -0.97479  -0.95980
 Alpha  occ. eigenvalues --   -0.88753  -0.83440  -0.83016  -0.82090  -0.81553
 Alpha  occ. eigenvalues --   -0.81177  -0.79909  -0.79066  -0.77945  -0.76978
 Alpha  occ. eigenvalues --   -0.75870  -0.75144  -0.74624  -0.72360  -0.71585
 Alpha  occ. eigenvalues --   -0.71197  -0.70338  -0.69578  -0.67180  -0.66321
 Alpha  occ. eigenvalues --   -0.64271  -0.63169  -0.61696  -0.61248  -0.59838
 Alpha  occ. eigenvalues --   -0.59447  -0.59212  -0.59101  -0.56766  -0.54483
 Alpha  occ. eigenvalues --   -0.54326  -0.53914  -0.53294  -0.52917  -0.51588
 Alpha  occ. eigenvalues --   -0.50652  -0.50575  -0.50235  -0.49431  -0.49150
 Alpha  occ. eigenvalues --   -0.48290  -0.47954  -0.47648  -0.47317  -0.46740
 Alpha  occ. eigenvalues --   -0.46478  -0.46206  -0.45986  -0.45814  -0.45169
 Alpha  occ. eigenvalues --   -0.44785  -0.44505  -0.44022  -0.43804  -0.43610
 Alpha  occ. eigenvalues --   -0.43155  -0.42925  -0.42518  -0.42209  -0.41845
 Alpha  occ. eigenvalues --   -0.41627  -0.40803  -0.40635  -0.40603  -0.40540
 Alpha  occ. eigenvalues --   -0.40188  -0.40081  -0.39906  -0.39301  -0.39230
 Alpha  occ. eigenvalues --   -0.38922  -0.38553  -0.38325  -0.38138  -0.37824
 Alpha  occ. eigenvalues --   -0.37261  -0.37006  -0.36418  -0.36155  -0.35863
 Alpha  occ. eigenvalues --   -0.35770  -0.35360  -0.34954  -0.34073  -0.33514
 Alpha  occ. eigenvalues --   -0.33288  -0.32903  -0.32629  -0.31595  -0.31314
 Alpha  occ. eigenvalues --   -0.30798  -0.30037  -0.29444  -0.28969  -0.26758
 Alpha  occ. eigenvalues --   -0.26253  -0.25872  -0.25240  -0.24853  -0.21000
 Alpha  occ. eigenvalues --   -0.18756
 Alpha virt. eigenvalues --   -0.11086  -0.06006  -0.04381  -0.03146  -0.02193
 Alpha virt. eigenvalues --    0.00100   0.00785   0.01672   0.02953   0.04254
 Alpha virt. eigenvalues --    0.04773   0.05291   0.05755   0.06472   0.06804

 Mulliken charges:
               1
     1  Mg   0.929786
     2  C    0.006956
     3  C   -0.067173
     4  C   -0.040548
     5  C   -0.054859
     6  N   -0.334308
     7  C    0.024717
     8  C   -0.085253
     9  C   -0.162330
    10  C    0.067301
    11  C    0.033564
    12  C    0.030744
    13  C   -0.145657
    14  H    0.042920
    15  N   -0.521476
    16  C    0.161615
    17  C   -0.177412
    18  C   -0.035093
    19  C    0.132951
    20  C    0.086170
    21  C   -0.006305
    22  O   -0.254509
    23  C    0.002119
    24  N   -0.368437
    25  C    0.094408
    26  C   -0.125997
    27  C   -0.044726
    28  C    0.034703
    29  C   -0.007268
    30  C   -0.059537
    31  C   -0.068662
    32  N   -0.460777
    33  C    0.112934
    34  C   -0.209908
    35  C   -0.019960
    36  C    0.182848
    37  C    0.076941
    38  C    0.080600
    39  O   -0.234120
    40  C   -0.097955
    41  C    0.301935
    42  O   -0.238620
    43  O   -0.377431
    44  C    0.131617
    45  H    0.011593
    46  H   -0.026410
    47  H    0.005937
    48  H    0.030061
    49  H    0.039677
    50  H    0.048173
    51  H    0.055239
    52  H    0.034664
    53  H    0.039854
    54  H    0.065485
    55  H    0.063493
    56  H    0.053286
    57  H    0.061604
    58  H    0.065225
    59  H    0.014138
    60  H    0.045037
    61  H    0.073131
    62  H    0.046818
    63  H    0.066845
    64  H    0.053122
    65  H    0.061908
    66  H    0.040472
    67  H    0.039146
    68  H    0.048898
    69  H    0.040328
    70  H    0.041718
    71  H    0.054222
    72  H    0.071229
    73  H    0.075455
    74  H    0.073303
    75  H    0.042167
    76  H    0.064460
    77  H    0.060173
    78  H    0.045292
    79  H    0.057748
 Sum of Mulliken charges =  -0.00000

 Dipole moment (field-independent basis, Debye):
    X=             -1.5499    Y=              2.2196    Z=             -3.1399  Tot=              4.1458
 Quadrupole moment (field-independent basis, Debye-Ang):
   XX=           -273.4389   YY=           -239.1973   ZZ=           -255.9473
   XY=            -45.9411   XZ=              9.0614   YZ=              6.9533

 Normal termination of Gaussian 16 at Wed Oct 13 17:00:05 2021.
