 Gaussian 16, Revision A.03,
 Gaussian 16:  ES64L-G16RevA.03 25-Dec-2016

 --------------------------------------------------------
 #p PBE1PBE/Def2SVP td=(nstates=5) density=(transition=1)
 --------------------------------------------------------

 --------------------------------
 TDDFT excited states in gaussian
 --------------------------------
 Symbolic Z-matrix:
 Charge =  0 Multiplicity = 1

                         Standard orientation:
 ---------------------------------------------------------------------
 Center     Atomic      Atomic             Coordinates (Angstroms)
 Number     Number       Type             X           Y           Z
 ---------------------------------------------------------------------
      1         12           0      -25.610101   -0.486124   -0.287905
      2          6           0      -23.200786    1.951281   -0.528899
      3          6           0      -27.538847    1.764748    1.680125
      4          6           0      -27.812133   -2.929699    0.492905
      5          6           0      -23.646163   -2.707419   -1.856164
      6          7           0      -25.380324    1.625927    0.488362
      7          6           0      -24.275140    2.397142    0.247205
      8          6           0      -24.459198    3.811079    0.802943
      9          6           0      -25.787182    3.618337    1.671085
     10          6           0      -26.274174    2.257580    1.266932
     11          6           0      -25.582982    3.828199    3.216388
     12          6           0      -24.627182    4.927198   -0.326587
     13          6           0      -23.931680    6.265503   -0.258697
     14          1           0      -23.974660    7.021307    1.021723
     15          7           0      -27.478372   -0.590634    0.884535
     16          6           0      -28.159947    0.439475    1.432280
     17          6           0      -29.448251    0.031127    1.882809
     18          6           0      -29.576741   -1.346315    1.518412
     19          6           0      -28.216824   -1.680397    0.999422
     20          6           0      -30.299309    1.021124    2.610564
     21          6           0      -30.715940   -2.306618    1.815017
     22          8           0      -30.596463   -3.530359    1.699854
     23          6           0      -32.057538   -1.778168    2.291552
     24          7           0      -25.653985   -2.604638   -0.502280
     25          6           0      -26.741390   -3.364832   -0.207874
     26          6           0      -26.576814   -4.779599   -0.760485
     27          6           0      -25.299167   -4.633093   -1.671492
     28          6           0      -24.832167   -3.229986   -1.337786
     29          6           0      -26.563127   -6.018809    0.182577
     30          6           0      -25.488345   -4.925059   -3.218546
     31          6           0      -25.805144   -3.798008   -4.178620
     32          7           0      -23.777987   -0.466550   -0.955381
     33          6           0      -23.091799   -1.377479   -1.717767
     34          6           0      -21.791232   -0.944430   -2.078627
     35          6           0      -21.797249    0.387458   -1.676248
     36          6           0      -23.031880    0.632765   -1.021954
     37          6           0      -20.643097   -1.604867   -2.830657
     38          6           0      -21.062915    1.574348   -1.611604
     39          8           0      -19.922355    1.775095   -1.986534
     40          6           0      -21.921561    2.714076   -0.822630
     41          6           0      -21.160128    3.111074    0.355275
     42          8           0      -20.887336    2.382603    1.329903
     43          8           0      -20.697979    4.388066    0.295585
     44          6           0      -19.665351    4.813155    1.247285
     45          1           0      -28.074253    2.565185    2.194278
     46          1           0      -28.624647   -3.658879    0.480335
     47          1           0      -23.155569   -3.257061   -2.661273
     48          1           0      -23.555982    4.085086    1.349618
     49          1           0      -26.537615    4.368592    1.421374
     50          1           0      -26.237978    4.640995    3.528265
     51          1           0      -24.511301    3.992285    3.330306
     52          1           0      -25.929911    3.009793    3.847953
     53          1           0      -25.705100    5.088161   -0.302271
     54          1           0      -24.527577    4.493823   -1.321197
     55          1           0      -24.240760    6.888688   -1.097839
     56          1           0      -22.869828    6.043152   -0.357828
     57          1           0      -31.290674    0.908609    2.173179
     58          1           0      -29.981073    2.040588    2.391166
     59          1           0      -30.351757    0.909036    3.694054
     60          1           0      -32.396695   -0.886682    1.763158
     61          1           0      -32.071479   -1.744508    3.381806
     62          1           0      -32.764455   -2.558282    2.007462
     63          1           0      -27.506679   -4.936667   -1.307514
     64          1           0      -24.543692   -5.389729   -1.463046
     65          1           0      -25.561600   -6.446137    0.229786
     66          1           0      -27.236834   -6.748695   -0.265985
     67          1           0      -26.913441   -5.656833    1.148572
     68          1           0      -26.291400   -5.656677   -3.296588
     69          1           0      -24.583974   -5.383293   -3.619478
     70          1           0      -26.681854   -4.018534   -4.788049
     71          1           0      -24.980832   -3.550429   -4.848756
     72          1           0      -25.999557   -2.936663   -3.539541
     73          1           0      -20.954319   -2.599209   -3.153139
     74          1           0      -19.770784   -1.655176   -2.178526
     75          1           0      -20.400208   -0.990833   -3.697420
     76          1           0      -21.889447    3.518505   -1.558024
     77          1           0      -19.067439    5.658331    0.906011
     78          1           0      -19.037848    4.017135    1.647026
     79          1           0      -20.216216    5.278106    2.065031
     80         12           0       24.886000   -0.886221    0.191787
     81          6           0       24.482288    2.431571   -0.963300
     82          6           0       25.241630    0.363222    3.360619
     83          6           0       25.902944   -3.886220    1.158045
     84          6           0       24.983458   -1.932419   -3.146989
     85          7           0       25.025311    1.187619    1.068104
     86          6           0       24.712436    2.369932    0.392096
     87          6           0       24.493428    3.516801    1.409431
     88          6           0       24.764453    2.825390    2.795409
     89          6           0       24.996204    1.331258    2.437155
     90          6           0       25.751291    3.505596    3.728135
     91          6           0       23.136164    4.234983    1.352014
     92          6           0       23.244948    5.775240    1.182131
     93          1           0       22.544256    6.597452    2.240890
     94          7           0       25.405515   -1.652516    2.048428
     95          6           0       25.534180   -1.001701    3.240194
     96          6           0       25.762303   -1.996860    4.260684
     97          6           0       26.110050   -3.251927    3.599985
     98          6           0       25.822805   -2.920429    2.212818
     99          6           0       25.908495   -1.618741    5.824712
    100          6           0       26.844691   -4.433719    4.067848
    101          8           0       27.083241   -5.434359    3.453790
    102          6           0       27.373812   -4.366113    5.497352
    103          7           0       25.577687   -2.614846   -0.905921
    104          6           0       25.884702   -3.751371   -0.250748
    105          6           0       25.973742   -4.929697   -1.223342
    106          6           0       25.333563   -4.364356   -2.501344
    107          6           0       25.243935   -2.887864   -2.186216
    108          6           0       27.488012   -5.383279   -1.453300
    109          6           0       23.856216   -4.993323   -2.654238
    110          6           0       22.790400   -4.460232   -1.658207
    111          7           0       24.649675   -0.034366   -1.731367
    112          6           0       24.703561   -0.583638   -2.955540
    113          6           0       24.471606    0.454436   -3.923594
    114          6           0       24.333175    1.619355   -3.192546
    115          6           0       24.511765    1.307803   -1.841906
    116          6           0       24.413218    0.357372   -5.436191
    117          6           0       24.142470    3.058642   -3.391004
    118          8           0       24.083009    3.839944   -4.298195
    119          6           0       24.151429    3.638724   -1.951971
    120          6           0       25.251394    4.634729   -1.931572
    121          8           0       26.374307    4.338228   -2.254227
    122          8           0       24.833334    5.913556   -1.600283
    123          6           0       25.816210    7.021017   -1.847730
    124          1           0       25.144222    0.746946    4.378444
    125          1           0       26.119878   -4.920485    1.434575
    126          1           0       24.786924   -2.193428   -4.188988
    127          1           0       25.294992    4.245940    1.289494
    128          1           0       23.856006    2.907401    3.392468
    129          1           0       26.359517    4.234409    3.194463
    130          1           0       26.401068    2.811768    4.262110
    131          1           0       25.147535    4.088199    4.423490
    132          1           0       22.477373    4.154517    2.216681
    133          1           0       22.529806    3.848025    0.533369
    134          1           0       22.979137    6.085427    0.171625
    135          1           0       24.294547    6.042781    1.297223
    136          1           0       25.280522   -2.305295    6.392401
    137          1           0       25.565290   -0.626523    6.115204
    138          1           0       26.903825   -1.601225    6.268621
    139          1           0       26.466451   -4.275951    6.095028
    140          1           0       27.982103   -3.462580    5.524035
    141          1           0       27.890040   -5.265086    5.835607
    142          1           0       25.367213   -5.786253   -0.927259
    143          1           0       25.857532   -4.428962   -3.455218
    144          1           0       27.465479   -6.447757   -1.688189
    145          1           0       28.195820   -5.276620   -0.630574
    146          1           0       27.799983   -4.819950   -2.332616
    147          1           0       23.853743   -6.082014   -2.604611
    148          1           0       23.412882   -4.655247   -3.590961
    149          1           0       21.846297   -5.003857   -1.647289
    150          1           0       22.564388   -3.432101   -1.941441
    151          1           0       23.241622   -4.459104   -0.665452
    152          1           0       23.603906   -0.265930   -5.815787
    153          1           0       25.362293   -0.109757   -5.697849
    154          1           0       24.418139    1.333448   -5.921291
    155          1           0       23.193330    4.154083   -1.886900
    156          1           0       25.681995    7.570243   -0.915831
    157          1           0       25.541958    7.655293   -2.690486
    158          1           0       26.868319    6.794620   -2.018865
 ---------------------------------------------------------------------

 SCF Done:  E(RPBE1PBE) =  -4067.40829011     A.U. after   16 cycles

 Excitation energies and oscillator strengths:

 Excited State   1:      Singlet-A      1.8679 eV  663.76 nm  f=0.3824  <S**2>=0.000
     309 -> 315        0.16805
     311 -> 313        0.69448
     311 <- 313       -0.11166
 This state for optimization and/or second-order correction.
 Total Energy, E(TD-HF/TD-DFT) =  -4067.33964591
 Copying the excited state density for this state as the 1-particle RhoCI density.

 Excited State   2:      Singlet-A      1.8776 eV  660.35 nm  f=0.3978  <S**2>=0.000
     310 -> 316       -0.17167
     312 -> 314        0.69321
     312 <- 314       -0.11024

 Excited State   3:      Singlet-A      1.9718 eV  628.79 nm  f=0.0000  <S**2>=0.000
     312 -> 313        0.70711

 Excited State   4:      Singlet-A      2.0256 eV  612.08 nm  f=0.0000  <S**2>=0.000
     311 -> 314        0.70711

 Excited State   5:      Singlet-A      2.2057 eV  562.10 nm  f=0.1505  <S**2>=0.000
     310 -> 314        0.66868
     312 -> 316        0.21386

 The electronic state is 1-A.
 Alpha  occ. eigenvalues --  -46.92924 -46.92519 -19.25760 -19.25709 -19.19772
 Alpha  occ. eigenvalues --  -19.19451 -19.19062 -19.18936 -19.18761 -19.18628
 Alpha  occ. eigenvalues --  -14.41684 -14.41638 -14.41376 -14.41057 -14.39429
 Alpha  occ. eigenvalues --  -14.39193 -14.39166 -14.38859 -10.35931 -10.35769
 Alpha  occ. eigenvalues --  -10.32457 -10.32265 -10.31747 -10.31490 -10.29224
 Alpha  occ. eigenvalues --  -10.29013 -10.28867 -10.28837 -10.28542 -10.28530
 Alpha  occ. eigenvalues --  -10.28502 -10.28454 -10.28212 -10.27959 -10.27801
 Alpha  occ. eigenvalues --  -10.27705 -10.27704 -10.27700 -10.27694 -10.27414
 Alpha  occ. eigenvalues --  -10.26993 -10.26795 -10.26755 -10.26521 -10.26308
 Alpha  occ. eigenvalues --  -10.26074 -10.25944 -10.25926 -10.25839 -10.25835
 Alpha  occ. eigenvalues --  -10.25833 -10.25815 -10.25808 -10.25764 -10.25732
 Alpha  occ. eigenvalues --  -10.25541 -10.25381 -10.25375 -10.25369 -10.25324
 Alpha  occ. eigenvalues --  -10.25156 -10.25153 -10.24878 -10.24749 -10.24704
 Alpha  occ. eigenvalues --  -10.24498 -10.24307 -10.24287 -10.24209 -10.24195
 Alpha  occ. eigenvalues --  -10.24101 -10.23932 -10.23904 -10.23899 -10.23565
 Alpha  occ. eigenvalues --  -10.23557 -10.23483 -10.23429 -10.23417 -10.23216
 Alpha  occ. eigenvalues --  -10.23027 -10.22843 -10.22698 -10.22466 -10.22430
 Alpha  occ. eigenvalues --  -10.22357  -3.14912  -3.14707  -1.87734  -1.87531
 Alpha  occ. eigenvalues --   -1.87299  -1.87127  -1.87042  -1.86980  -1.10629
 Alpha  occ. eigenvalues --   -1.10390  -1.06391  -1.05837  -1.04729  -1.04146
 Alpha  occ. eigenvalues --   -1.02412  -1.00635  -1.00108  -0.99809  -0.99339
 Alpha  occ. eigenvalues --   -0.98959  -0.98794  -0.98528  -0.98145  -0.96604
 Alpha  occ. eigenvalues --   -0.87008  -0.86685  -0.83335  -0.83176  -0.83066
 Alpha  occ. eigenvalues --   -0.82571  -0.82549  -0.82472  -0.82187  -0.82075
 Alpha  occ. eigenvalues --   -0.81707  -0.80851  -0.80752  -0.80602  -0.78705
 Alpha  occ. eigenvalues --   -0.78597  -0.78054  -0.77751  -0.76951  -0.76753
 Alpha  occ. eigenvalues --   -0.76022  -0.75511  -0.75478  -0.75178  -0.74622
 Alpha  occ. eigenvalues --   -0.74418  -0.72683  -0.72665  -0.71817  -0.71692
 Alpha  occ. eigenvalues --   -0.71421  -0.71036  -0.70564  -0.70441  -0.69865
 Alpha  occ. eigenvalues --   -0.69580  -0.68029  -0.67544  -0.66223  -0.66007
 Alpha  occ. eigenvalues --   -0.64036  -0.63684  -0.63666  -0.63625  -0.62578
 Alpha  occ. eigenvalues --   -0.62504  -0.61623  -0.61552  -0.60054  -0.59901
 Alpha  occ. eigenvalues --   -0.59830  -0.59698  -0.59639  -0.59252  -0.59049
 Alpha  occ. eigenvalues --   -0.58784  -0.56861  -0.56829  -0.55010  -0.54739
 Alpha  occ. eigenvalues --   -0.54425  -0.54263  -0.53846  -0.53669  -0.53348
 Alpha  occ. eigenvalues --   -0.52886  -0.52606  -0.52456  -0.52149  -0.51903
 Alpha  occ. eigenvalues --   -0.50866  -0.50607  -0.49889  -0.49882  -0.49699
 Alpha  occ. eigenvalues --   -0.49604  -0.49348  -0.49214  -0.48656  -0.48623
 Alpha  occ. eigenvalues --   -0.48008  -0.47875  -0.47784  -0.47552  -0.47249
 Alpha  occ. eigenvalues --   -0.47138  -0.47081  -0.46928  -0.46774  -0.46690
 Alpha  occ. eigenvalues --   -0.46634  -0.46535  -0.46117  -0.46005  -0.45711
 Alpha  occ. eigenvalues --   -0.45404  -0.45320  -0.45079  -0.44835  -0.44636
 Alpha  occ. eigenvalues --   -0.44482  -0.44380  -0.44167  -0.44058  -0.44024
 Alpha  occ. eigenvalues --   -0.43911  -0.43890  -0.43687  -0.43644  -0.43433
 Alpha  occ. eigenvalues --   -0.43389  -0.43185  -0.43058  -0.42927  -0.42828
 Alpha  occ. eigenvalues --   -0.42552  -0.42545  -0.42253  -0.42151  -0.42030
 Alpha  occ. eigenvalues --   -0.41835  -0.41655  -0.41615  -0.41224  -0.41091
 Alpha  occ. eigenvalues --   -0.40950  -0.40889  -0.40769  -0.40738  -0.40628
 Alpha  occ. eigenvalues --   -0.40589  -0.40304  -0.40114  -0.40080  -0.39801
 Alpha  occ. eigenvalues --   -0.39775  -0.39308  -0.39249  -0.38906  -0.38854
 Alpha  occ. eigenvalues --   -0.38792  -0.38493  -0.38411  -0.38219  -0.38150
 Alpha  occ. eigenvalues --   -0.38092  -0.37986  -0.37799  -0.37755  -0.37705
 Alpha  occ. eigenvalues --   -0.37330  -0.37138  -0.37133  -0.36971  -0.36859
 Alpha  occ. eigenvalues --   -0.36794  -0.36589  -0.36380  -0.36308  -0.36289
 Alpha  occ. eigenvalues --   -0.36201  -0.36019  -0.35728  -0.35483  -0.35231
 Alpha  occ. eigenvalues --   -0.34977  -0.34766  -0.34667  -0.34492  -0.33986
 Alpha  occ. eigenvalues --   -0.33451  -0.33291  -0.33225  -0.33043  -0.32813
 Alpha  occ. eigenvalues --   -0.32340  -0.32093  -0.31686  -0.31350  -0.31186
 Alpha  occ. eigenvalues --   -0.31130  -0.30595  -0.29760  -0.29589  -0.29109
 Alpha  occ. eigenvalues --   -0.28737  -0.28657  -0.28017  -0.27232  -0.26999
 Alpha  occ. eigenvalues --   -0.26553  -0.26142  -0.26138  -0.25989  -0.25743
 Alpha  occ. eigenvalues --   -0.25568  -0.25411  -0.25108  -0.21122  -0.20842
 Alpha  occ. eigenvalues --   -0.19184  -0.19087
 Alpha virt. eigenvalues --   -0.11581  -0.11480  -0.04992  -0.04797  -0.03954
 Alpha virt. eigenvalues --   -0.03680  -0.01944  -0.01925  -0.01118  -0.00985
 Alpha virt. eigenvalues --    0.00143   0.00821   0.01163   0.01802   0.02333

 Mulliken charges:
               1
     1  Mg  11.999958
     2  C    6.000351
     3  C    5.999865
     4  C    5.999500
     5  C    5.999873
     6  N    7.000202
     7  C    5.999433
     8  C    6.000184
     9  C    5.999734
    10  C    6.000651
    11  C    5.999925
    12  C    6.000094
    13  C    6.000015
    14  H    0.999873
    15  N    6.999873
    16  C    6.000836
    17  C    6.000390
    18  C    6.000435
    19  C    6.000703
    20  C    5.999909
    21  C    6.000295
    22  O    8.000638
    23  C    5.999859
    24  N    6.999725
    25  C    6.000689
    26  C    5.999791
    27  C    6.000191
    28  C    5.999560
    29  C    6.000028
    30  C    6.000052
    31  C    6.000106
    32  N    7.000021
    33  C    5.999449
    34  C    5.999335
    35  C    5.999978
    36  C    5.999505
    37  C    6.000016
    38  C    5.999676
    39  O    7.999329
    40  C    5.999808
    41  C    5.999957
    42  O    7.999836
    43  O    7.999976
    44  C    6.000056
    45  H    1.000253
    46  H    1.000058
    47  H    0.999752
    48  H    1.000047
    49  H    1.000043
    50  H    1.000079
    51  H    1.000285
    52  H    0.999971
    53  H    0.999783
    54  H    1.000077
    55  H    0.999951
    56  H    1.000098
    57  H    1.000327
    58  H    1.000304
    59  H    1.000447
    60  H    1.000136
    61  H    1.000212
    62  H    1.000303
    63  H    0.999934
    64  H    0.999959
    65  H    1.000189
    66  H    1.000039
    67  H    0.999895
    68  H    0.999784
    69  H    1.000006
    70  H    0.999800
    71  H    1.000030
    72  H    0.999973
    73  H    0.999686
    74  H    0.999653
    75  H    0.999640
    76  H    0.999855
    77  H    0.999894
    78  H    0.999984
    79  H    0.999872
    80  Mg  12.000663
    81  C    5.977015
    82  C    6.005682
    83  C    6.018630
    84  C    5.998091
    85  N    6.991411
    86  C    6.031797
    87  C    5.987625
    88  C    6.010125
    89  C    5.974480
    90  C    6.002724
    91  C    6.000189
    92  C    5.997243
    93  H    1.007309
    94  N    7.002936
    95  C    5.966452
    96  C    5.976717
    97  C    5.980058
    98  C    5.974905
    99  C    6.001098
   100  C    5.990150
   101  O    7.970025
   102  C    6.002154
   103  N    7.005510
   104  C    5.966015
   105  C    6.009178
   106  C    5.993531
   107  C    6.027338
   108  C    6.005182
   109  C    5.994894
   110  C    5.998506
   111  N    6.995160
   112  C    6.033724
   113  C    6.031901
   114  C    5.998341
   115  C    6.038515
   116  C    6.000957
   117  C    6.014760
   118  O    8.025340
   119  C    6.001084
   120  C    6.007217
   121  O    8.001531
   122  O    8.002226
   123  C    5.997712
   124  H    0.989199
   125  H    0.994929
   126  H    1.011184
   127  H    1.001579
   128  H    0.997478
   129  H    0.989707
   130  H    1.006133
   131  H    0.994377
   132  H    1.007538
   133  H    0.994326
   134  H    0.995673
   135  H    1.001774
   136  H    0.984169
   137  H    0.982626
   138  H    0.981185
   139  H    0.993950
   140  H    0.995266
   141  H    0.985161
   142  H    0.999671
   143  H    0.999303
   144  H    0.996352
   145  H    1.006299
   146  H    0.988223
   147  H    1.010443
   148  H    0.997313
   149  H    1.004274
   150  H    0.989455
   151  H    1.017209
   152  H    1.019572
   153  H    1.016847
   154  H    1.013441
   155  H    1.007686
   156  H    1.005869
   157  H    1.002376
   158  H    1.003314
 Sum of Mulliken charges = 624.00000

 Dipole moment (field-independent basis, Debye):
    X=             -2.3238    Y=              4.0939    Z=             -9.2630  Tot=             10.3905
 Quadrupole moment (field-independent basis, Debye-Ang):
   XX=            -97.1800   YY=             -3.0874   ZZ=             -5.1052
   XY=            107.1052   XZ=           -239.9218   YZ=              8.8730

 Normal termination of Gaussian 16 at Fri Oct 15 19:21:01 2021.
