 Gaussian 16, Revision A.03,
 Gaussian 16:  ES64L-G16RevA.03 25-Dec-2016

 --------------------------------------------------------
 #p PBE1PBE/Def2SVP td=(nstates=5) density=(transition=1)
 --------------------------------------------------------

 --------------------------------
 TDDFT excited states in gaussian
 --------------------------------
 Symbolic Z-matrix:
 Charge =  0 Multiplicity = 1

                         Standard orientation:
 ---------------------------------------------------------------------
 Center     Atomic      Atomic             Coordinates (Angstroms)
 Number     Number       Type             X           Y           Z
 ---------------------------------------------------------------------
      1         12           0      -21.103115   -0.466847    0.036911
      2          6           0      -20.447447    2.877133   -0.857959
      3          6           0      -20.622048    0.357920    3.295597
      4          6           0      -21.624920   -3.713524    0.828590
      5          6           0      -21.132623   -1.295305   -3.335229
      6          7           0      -20.506005    1.345872    1.077022
      7          6           0      -20.402959    2.624999    0.523503
      8          6           0      -20.257757    3.632686    1.623983
      9          6           0      -19.835566    2.754870    2.826050
     10          6           0      -20.363358    1.370848    2.367893
     11          6           0      -18.310639    2.655015    3.146075
     12          6           0      -21.528843    4.514070    1.921402
     13          6           0      -21.251240    5.978277    2.047257
     14          1           0      -21.923148    6.707037    3.225999
     15          7           0      -21.218664   -1.463946    1.788823
     16          6           0      -21.079200   -0.931391    3.081294
     17          6           0      -21.301912   -1.935395    4.043753
     18          6           0      -21.617514   -3.192675    3.342349
     19          6           0      -21.512215   -2.829995    1.957820
     20          6           0      -21.103435   -1.791263    5.524347
     21          6           0      -21.903748   -4.669864    3.857005
     22          8           0      -22.164981   -5.557682    3.080323
     23          6           0      -21.958235   -4.984467    5.345167
     24          7           0      -21.234702   -2.269347   -1.102887
     25          6           0      -21.433575   -3.478301   -0.516902
     26          6           0      -21.481365   -4.630850   -1.630324
     27          6           0      -21.626394   -3.809094   -2.985241
     28          6           0      -21.307088   -2.345173   -2.459330
     29          6           0      -20.268725   -5.601454   -1.669655
     30          6           0      -23.042161   -3.915275   -3.656045
     31          6           0      -22.939142   -4.328997   -5.063850
     32          7           0      -20.799349    0.543158   -1.743595
     33          6           0      -20.952291    0.091575   -3.053580
     34          6           0      -20.770540    1.183546   -3.970763
     35          6           0      -20.544909    2.276477   -3.158996
     36          6           0      -20.594927    1.878466   -1.860284
     37          6           0      -20.927860    1.019411   -5.504994
     38          6           0      -20.249620    3.697484   -3.150670
     39          8           0      -19.998801    4.412691   -4.095574
     40          6           0      -20.148920    4.152345   -1.610728
     41          6           0      -18.805525    4.707121   -1.362983
     42          8           0      -17.729630    4.080348   -1.549274
     43          8           0      -18.944009    5.998910   -0.947142
     44          6           0      -17.696186    6.803992   -1.023298
     45          1           0      -20.411614    0.687164    4.315251
     46          1           0      -21.781824   -4.781197    0.994650
     47          1           0      -21.074005   -1.583599   -4.386369
     48          1           0      -19.411723    4.309272    1.497397
     49          1           0      -20.286341    3.063041    3.769570
     50          1           0      -17.753590    3.568710    2.934724
     51          1           0      -17.921079    1.816254    2.568586
     52          1           0      -18.058652    2.339992    4.158357
     53          1           0      -21.958235    4.089802    2.828792
     54          1           0      -22.308329    4.358543    1.174966
     55          1           0      -21.596161    6.338117    1.077775
     56          1           0      -20.187417    6.134055    2.225983
     57          1           0      -22.014614   -1.749963    6.121534
     58          1           0      -20.636173   -0.828832    5.728968
     59          1           0      -20.484052   -2.526299    6.037639
     60          1           0      -22.308961   -6.013527    5.413190
     61          1           0      -22.533092   -4.237562    5.893463
     62          1           0      -20.989680   -4.775848    5.800510
     63          1           0      -22.308624   -5.310366   -1.424738
     64          1           0      -20.847046   -4.142699   -3.672005
     65          1           0      -19.445351   -5.378316   -0.990357
     66          1           0      -19.805488   -5.667427   -2.654429
     67          1           0      -20.654784   -6.591374   -1.425059
     68          1           0      -23.498972   -2.924918   -3.658675
     69          1           0      -23.713028   -4.636248   -3.189340
     70          1           0      -23.151167   -5.396626   -5.127171
     71          1           0      -22.033099   -4.094057   -5.621289
     72          1           0      -23.661087   -3.768228   -5.657613
     73          1           0      -21.460192    0.089768   -5.707618
     74          1           0      -19.975622    1.149005   -6.021370
     75          1           0      -21.601332    1.827254   -5.788791
     76          1           0      -20.908057    4.893755   -1.360197
     77          1           0      -17.908357    7.851068   -0.807797
     78          1           0      -17.419906    6.791887   -2.077858
     79          1           0      -16.968349    6.316002   -0.374450
     80         12           0       20.142810   -0.686282   -0.227081
     81          6           0       21.932294    2.404167   -0.537687
     82          6           0       18.017043    0.801904    1.784883
     83          6           0       19.141819   -3.747312    0.555570
     84          6           0       22.873769   -2.170676   -2.193594
     85          7           0       19.979773    1.386041    0.490681
     86          6           0       20.819995    2.498036    0.283224
     87          6           0       20.345718    3.801534    1.030280
     88          6           0       18.984659    3.184399    1.729058
     89          6           0       18.945183    1.713585    1.326376
     90          6           0       18.998375    3.333156    3.310874
     91          6           0       20.135995    5.067882    0.128984
     92          6           0       19.303459    6.187294    0.742542
     93          1           0       20.080648    7.486327    1.023742
     94          7           0       18.694157   -1.365601    0.934541
     95          6           0       17.840530   -0.629884    1.722548
     96          6           0       16.864068   -1.456666    2.399893
     97          6           0       17.217787   -2.806661    2.002374
     98          6           0       18.375459   -2.657352    1.050270
     99          6           0       15.751629   -0.999847    3.220974
    100          6           0       16.573375   -4.132510    2.368071
    101          8           0       16.880261   -5.185391    1.883325
    102          6           0       15.554187   -4.053145    3.473470
    103          7           0       20.941445   -2.689301   -0.696363
    104          6           0       20.283547   -3.789715   -0.252109
    105          6           0       20.925033   -5.085910   -0.815568
    106          6           0       22.019289   -4.523013   -1.787826
    107          6           0       21.920263   -3.021654   -1.597818
    108          6           0       21.506338   -6.126171    0.201554
    109          6           0       21.856149   -4.896485   -3.303454
    110          6           0       22.298191   -6.340376   -3.629003
    111          7           0       22.011051   -0.103995   -1.160564
    112          6           0       22.924891   -0.762032   -1.951063
    113          6           0       23.863446    0.168835   -2.438283
    114          6           0       23.589427    1.372612   -1.905951
    115          6           0       22.435607    1.194220   -1.083956
    116          6           0       24.920766   -0.236154   -3.457102
    117          6           0       23.961570    2.780852   -1.736704
    118          8           0       24.885968    3.406126   -2.188517
    119          6           0       22.872899    3.489569   -0.797862
    120          6           0       23.551454    3.824530    0.491994
    121          8           0       23.728585    3.180518    1.501404
    122          8           0       23.945635    5.139955    0.347406
    123          6           0       24.640737    5.764994    1.497799
    124          1           0       17.293786    1.193616    2.502992
    125          1           0       18.861422   -4.719589    0.967824
    126          1           0       23.539544   -2.743483   -2.843304
    127          1           0       21.045419    3.987671    1.845231
    128          1           0       18.133008    3.760855    1.367072
    129          1           0       18.021499    3.678354    3.649124
    130          1           0       19.767429    3.947219    3.778709
    131          1           0       19.069935    2.352689    3.780684
    132          1           0       19.702946    4.595608   -0.753753
    133          1           0       21.014652    5.554197   -0.295329
    134          1           0       18.881627    5.840164    1.685340
    135          1           0       18.568077    6.515448    0.008468
    136          1           0       14.923831   -1.326768    2.591751
    137          1           0       15.803939    0.075571    3.391492
    138          1           0       15.616128   -1.458056    4.200450
    139          1           0       14.560640   -3.941343    3.039549
    140          1           0       15.890989   -3.481945    4.339055
    141          1           0       15.706379   -4.989944    4.008777
    142          1           0       20.191918   -5.477015   -1.521663
    143          1           0       23.004635   -4.763002   -1.387713
    144          1           0       22.565717   -6.362895    0.098507
    145          1           0       21.029639   -7.071603   -0.056358
    146          1           0       21.363104   -5.881321    1.253990
    147          1           0       22.475903   -4.233188   -3.905772
    148          1           0       20.807005   -4.699105   -3.527896
    149          1           0       22.980964   -6.710942   -2.864164
    150          1           0       22.743842   -6.296750   -4.622710
    151          1           0       21.485456   -7.067327   -3.628542
    152          1           0       25.230562    0.615117   -4.063391
    153          1           0       24.524826   -1.046661   -4.069078
    154          1           0       25.770824   -0.700818   -2.957019
    155          1           0       22.437479    4.367175   -1.276281
    156          1           0       25.433679    6.372876    1.062292
    157          1           0       25.069064    5.053955    2.204085
    158          1           0       23.815763    6.353560    1.900383
 ---------------------------------------------------------------------

 SCF Done:  E(RPBE1PBE) =  -4067.40630248     A.U. after   16 cycles

 Excitation energies and oscillator strengths:

 Excited State   1:      Singlet-A      1.8595 eV  666.75 nm  f=0.0000  <S**2>=0.000
     312 -> 313        0.70711
 This state for optimization and/or second-order correction.
 Total Energy, E(TD-HF/TD-DFT) =  -4067.33796621
 Copying the excited state density for this state as the 1-particle RhoCI density.

 Excited State   2:      Singlet-A      1.8601 eV  666.54 nm  f=0.3819  <S**2>=0.000
     310 -> 316        0.16839
     312 -> 314        0.69337
     312 <- 314       -0.10831

 Excited State   3:      Singlet-A      1.8995 eV  652.73 nm  f=0.3799  <S**2>=0.000
     309 -> 315        0.17461
     311 -> 313        0.69185
     311 <- 313       -0.10895

 Excited State   4:      Singlet-A      2.1382 eV  579.85 nm  f=0.0000  <S**2>=0.000
     311 -> 314        0.70711

 Excited State   5:      Singlet-A      2.2138 eV  560.05 nm  f=0.1454  <S**2>=0.000
     309 -> 313        0.66233
     311 -> 315       -0.22972

 The electronic state is 1-A.
 Alpha  occ. eigenvalues --  -46.91980 -46.90639 -19.26344 -19.24483 -19.20070
 Alpha  occ. eigenvalues --  -19.20008 -19.19811 -19.19399 -19.19280 -19.19164
 Alpha  occ. eigenvalues --  -14.41693 -14.41522 -14.41092 -14.40861 -14.39266
 Alpha  occ. eigenvalues --  -14.38980 -14.38507 -14.38347 -10.36481 -10.35925
 Alpha  occ. eigenvalues --  -10.33412 -10.32399 -10.32326 -10.31888 -10.29419
 Alpha  occ. eigenvalues --  -10.28905 -10.28665 -10.28597 -10.28400 -10.28327
 Alpha  occ. eigenvalues --  -10.28298 -10.28216 -10.28193 -10.28104 -10.27951
 Alpha  occ. eigenvalues --  -10.27849 -10.27813 -10.27446 -10.27044 -10.26860
 Alpha  occ. eigenvalues --  -10.26785 -10.26730 -10.26677 -10.26448 -10.26434
 Alpha  occ. eigenvalues --  -10.26183 -10.26172 -10.25874 -10.25805 -10.25753
 Alpha  occ. eigenvalues --  -10.25610 -10.25551 -10.25547 -10.25500 -10.25498
 Alpha  occ. eigenvalues --  -10.25471 -10.25354 -10.25333 -10.24749 -10.24699
 Alpha  occ. eigenvalues --  -10.24686 -10.24580 -10.24546 -10.24475 -10.24426
 Alpha  occ. eigenvalues --  -10.24420 -10.24420 -10.24384 -10.24369 -10.24122
 Alpha  occ. eigenvalues --  -10.24113 -10.23954 -10.23716 -10.23648 -10.23550
 Alpha  occ. eigenvalues --  -10.23477 -10.23381 -10.23379 -10.23252 -10.23015
 Alpha  occ. eigenvalues --  -10.23006 -10.23000 -10.22833 -10.22383 -10.22221
 Alpha  occ. eigenvalues --  -10.22123  -3.14102  -3.12941  -1.86938  -1.86456
 Alpha  occ. eigenvalues --   -1.86349  -1.85789  -1.85304  -1.85191  -1.10562
 Alpha  occ. eigenvalues --   -1.10396  -1.06374  -1.06124  -1.05514  -1.05210
 Alpha  occ. eigenvalues --   -1.02241  -1.01163  -0.99546  -0.98460  -0.98143
 Alpha  occ. eigenvalues --   -0.97983  -0.97230  -0.97120  -0.96193  -0.96011
 Alpha  occ. eigenvalues --   -0.87338  -0.87021  -0.83486  -0.83214  -0.82964
 Alpha  occ. eigenvalues --   -0.82527  -0.82329  -0.82296  -0.81475  -0.81401
 Alpha  occ. eigenvalues --   -0.81181  -0.80681  -0.80365  -0.80251  -0.78583
 Alpha  occ. eigenvalues --   -0.78184  -0.78148  -0.77454  -0.77216  -0.76434
 Alpha  occ. eigenvalues --   -0.76249  -0.76219  -0.75532  -0.75035  -0.75034
 Alpha  occ. eigenvalues --   -0.74417  -0.72508  -0.72422  -0.71673  -0.71283
 Alpha  occ. eigenvalues --   -0.71133  -0.70916  -0.70077  -0.69835  -0.69239
 Alpha  occ. eigenvalues --   -0.69193  -0.67388  -0.67198  -0.65725  -0.65424
 Alpha  occ. eigenvalues --   -0.63952  -0.63115  -0.63080  -0.62512  -0.62183
 Alpha  occ. eigenvalues --   -0.61995  -0.61430  -0.60926  -0.59978  -0.59629
 Alpha  occ. eigenvalues --   -0.59517  -0.59129  -0.59116  -0.58804  -0.58628
 Alpha  occ. eigenvalues --   -0.58450  -0.56573  -0.56005  -0.54863  -0.54635
 Alpha  occ. eigenvalues --   -0.54625  -0.54061  -0.53878  -0.53347  -0.52753
 Alpha  occ. eigenvalues --   -0.52658  -0.52484  -0.52441  -0.52127  -0.51519
 Alpha  occ. eigenvalues --   -0.50712  -0.50694  -0.50301  -0.50152  -0.50070
 Alpha  occ. eigenvalues --   -0.49584  -0.49517  -0.49006  -0.48812  -0.48515
 Alpha  occ. eigenvalues --   -0.48438  -0.48257  -0.48081  -0.48013  -0.47335
 Alpha  occ. eigenvalues --   -0.47294  -0.47208  -0.46943  -0.46517  -0.46472
 Alpha  occ. eigenvalues --   -0.46470  -0.46233  -0.45914  -0.45887  -0.45795
 Alpha  occ. eigenvalues --   -0.45495  -0.45463  -0.45120  -0.45026  -0.44819
 Alpha  occ. eigenvalues --   -0.44697  -0.44416  -0.44381  -0.44231  -0.44073
 Alpha  occ. eigenvalues --   -0.44051  -0.44026  -0.43751  -0.43584  -0.43397
 Alpha  occ. eigenvalues --   -0.43390  -0.43069  -0.42688  -0.42645  -0.42474
 Alpha  occ. eigenvalues --   -0.42434  -0.42405  -0.41970  -0.41757  -0.41459
 Alpha  occ. eigenvalues --   -0.41416  -0.41357  -0.41198  -0.41009  -0.40828
 Alpha  occ. eigenvalues --   -0.40597  -0.40576  -0.40537  -0.40397  -0.40216
 Alpha  occ. eigenvalues --   -0.40127  -0.39983  -0.39911  -0.39874  -0.39764
 Alpha  occ. eigenvalues --   -0.39622  -0.39526  -0.39481  -0.39480  -0.39247
 Alpha  occ. eigenvalues --   -0.39169  -0.38724  -0.38637  -0.38297  -0.38274
 Alpha  occ. eigenvalues --   -0.38192  -0.38001  -0.37885  -0.37673  -0.37622
 Alpha  occ. eigenvalues --   -0.37481  -0.37419  -0.37054  -0.36916  -0.36793
 Alpha  occ. eigenvalues --   -0.36751  -0.36719  -0.36435  -0.36138  -0.35930
 Alpha  occ. eigenvalues --   -0.35884  -0.35776  -0.35611  -0.35366  -0.35356
 Alpha  occ. eigenvalues --   -0.34923  -0.34341  -0.34108  -0.33807  -0.33779
 Alpha  occ. eigenvalues --   -0.33374  -0.33091  -0.32868  -0.32863  -0.32765
 Alpha  occ. eigenvalues --   -0.32070  -0.31769  -0.31486  -0.31426  -0.31418
 Alpha  occ. eigenvalues --   -0.31084  -0.30650  -0.29511  -0.29394  -0.29156
 Alpha  occ. eigenvalues --   -0.29116  -0.28611  -0.28249  -0.26965  -0.26859
 Alpha  occ. eigenvalues --   -0.26497  -0.25921  -0.25768  -0.25746  -0.25657
 Alpha  occ. eigenvalues --   -0.25473  -0.25345  -0.25167  -0.20949  -0.20559
 Alpha  occ. eigenvalues --   -0.19143  -0.18588
 Alpha virt. eigenvalues --   -0.11436  -0.10966  -0.04861  -0.04711  -0.03574
 Alpha virt. eigenvalues --   -0.03301  -0.01764  -0.01710  -0.00225  -0.00214
 Alpha virt. eigenvalues --    0.00648   0.00828   0.01415   0.01420   0.01941

 Mulliken charges:
               1
     1  Mg  12.000000
     2  C    6.000000
     3  C    6.000000
     4  C    6.000000
     5  C    6.000000
     6  N    7.000000
     7  C    6.000000
     8  C    6.000000
     9  C    6.000000
    10  C    6.000000
    11  C    6.000000
    12  C    6.000000
    13  C    6.000000
    14  H    1.000000
    15  N    7.000000
    16  C    6.000000
    17  C    6.000000
    18  C    6.000000
    19  C    6.000000
    20  C    6.000000
    21  C    6.000000
    22  O    8.000000
    23  C    6.000000
    24  N    7.000000
    25  C    6.000000
    26  C    6.000000
    27  C    6.000000
    28  C    6.000000
    29  C    6.000000
    30  C    6.000000
    31  C    6.000000
    32  N    7.000000
    33  C    6.000000
    34  C    6.000000
    35  C    6.000000
    36  C    6.000000
    37  C    6.000000
    38  C    6.000000
    39  O    8.000000
    40  C    6.000000
    41  C    6.000000
    42  O    8.000000
    43  O    8.000000
    44  C    6.000000
    45  H    1.000000
    46  H    1.000000
    47  H    1.000000
    48  H    1.000000
    49  H    1.000000
    50  H    1.000000
    51  H    1.000000
    52  H    1.000000
    53  H    1.000000
    54  H    1.000000
    55  H    1.000000
    56  H    1.000000
    57  H    1.000000
    58  H    1.000000
    59  H    1.000000
    60  H    1.000000
    61  H    1.000000
    62  H    1.000000
    63  H    1.000000
    64  H    1.000000
    65  H    1.000000
    66  H    1.000000
    67  H    1.000000
    68  H    1.000000
    69  H    1.000000
    70  H    1.000000
    71  H    1.000000
    72  H    1.000000
    73  H    1.000000
    74  H    1.000000
    75  H    1.000000
    76  H    1.000000
    77  H    1.000000
    78  H    1.000000
    79  H    1.000000
    80  Mg  12.000000
    81  C    6.000000
    82  C    6.000000
    83  C    6.000000
    84  C    6.000000
    85  N    7.000000
    86  C    6.000000
    87  C    6.000000
    88  C    6.000000
    89  C    6.000000
    90  C    6.000000
    91  C    6.000000
    92  C    6.000000
    93  H    1.000000
    94  N    7.000000
    95  C    6.000000
    96  C    6.000000
    97  C    6.000000
    98  C    6.000000
    99  C    6.000000
   100  C    6.000000
   101  O    8.000000
   102  C    6.000000
   103  N    7.000000
   104  C    6.000000
   105  C    6.000000
   106  C    6.000000
   107  C    6.000000
   108  C    6.000000
   109  C    6.000000
   110  C    6.000000
   111  N    7.000000
   112  C    6.000000
   113  C    6.000000
   114  C    6.000000
   115  C    6.000000
   116  C    6.000000
   117  C    6.000000
   118  O    8.000000
   119  C    6.000000
   120  C    6.000000
   121  O    8.000000
   122  O    8.000000
   123  C    6.000000
   124  H    1.000000
   125  H    1.000000
   126  H    1.000000
   127  H    1.000000
   128  H    1.000000
   129  H    1.000000
   130  H    1.000000
   131  H    1.000000
   132  H    1.000000
   133  H    1.000000
   134  H    1.000000
   135  H    1.000000
   136  H    1.000000
   137  H    1.000000
   138  H    1.000000
   139  H    1.000000
   140  H    1.000000
   141  H    1.000000
   142  H    1.000000
   143  H    1.000000
   144  H    1.000000
   145  H    1.000000
   146  H    1.000000
   147  H    1.000000
   148  H    1.000000
   149  H    1.000000
   150  H    1.000000
   151  H    1.000000
   152  H    1.000000
   153  H    1.000000
   154  H    1.000000
   155  H    1.000000
   156  H    1.000000
   157  H    1.000000
   158  H    1.000000
 Sum of Mulliken charges = 624.00000

 Dipole moment (field-independent basis, Debye):
    X=             -0.0000    Y=             -0.0000    Z=              0.0000  Tot=              0.0000
 Quadrupole moment (field-independent basis, Debye-Ang):
   XX=             -0.0000   YY=              0.0000   ZZ=             -0.0000
   XY=             -0.0000   XZ=              0.0000   YZ=             -0.0000

 Normal termination of Gaussian 16 at Thu Oct 14 01:35:19 2021.
