 Gaussian 16, Revision A.03,
 Gaussian 16:  ES64L-G16RevA.03 25-Dec-2016

 --------------------------------------------------------
 #p PBE1PBE/Def2SVP td=(nstates=5) density=(transition=1)
 --------------------------------------------------------

 --------------------------------
 TDDFT excited states in gaussian
 --------------------------------
 Symbolic Z-matrix:
 Charge =  0 Multiplicity = 1

                         Standard orientation:
 ---------------------------------------------------------------------
 Center     Atomic      Atomic             Coordinates (Angstroms)
 Number     Number       Type             X           Y           Z
 ---------------------------------------------------------------------
      1         12           0        3.830140   -0.786308   -0.926582
      2          6           0        6.101660    1.840089   -0.057992
      3          6           0        1.303250    1.257348    0.113302
      4          6           0        1.853030   -3.243659   -1.256857
      5          6           0        6.544329   -2.969614   -0.816969
      6          7           0        3.828970    1.266937   -0.099038
      7          6           0        4.761537    2.186703    0.127947
      8          6           0        4.176014    3.579023    0.510025
      9          6           0        2.759735    3.110654    1.072859
     10          6           0        2.602696    1.818633    0.290591
     11          6           0        2.773909    2.784163    2.562726
     12          6           0        4.016511    4.518234   -0.732622
     13          6           0        3.762743    5.993321   -0.408469
     14          1           0        4.340485    7.010049   -1.274394
     15          7           0        1.861404   -0.834612   -1.083407
     16          6           0        0.988876    0.090719   -0.616777
     17          6           0       -0.358000   -0.398483   -0.981862
     18          6           0       -0.208854   -1.774935   -1.530704
     19          6           0        1.189425   -2.019342   -1.284818
     20          6           0       -1.599128    0.428837   -0.844403
     21          6           0       -1.175753   -2.724039   -2.165086
     22          8           0       -0.891901   -3.955379   -2.359512
     23          6           0       -2.513498   -2.188675   -2.476319
     24          7           0        4.101338   -2.852797   -0.809496
     25          6           0        3.091752   -3.696072   -1.051584
     26          6           0        3.580230   -5.107682   -1.188282
     27          6           0        5.174158   -5.021780   -1.230319
     28          6           0        5.334005   -3.496362   -1.016269
     29          6           0        3.150432   -6.075186   -0.076877
     30          6           0        5.881767   -5.674378   -2.444331
     31          6           0        5.550990   -4.906795   -3.704689
     32          7           0        5.979821   -0.602520   -0.689645
     33          6           0        6.916172   -1.645834   -0.652009
     34          6           0        8.228790   -1.038132   -0.366000
     35          6           0        7.960402    0.323451   -0.239888
     36          6           0        6.564312    0.548637   -0.408756
     37          6           0        9.453955   -1.741722   -0.197579
     38          6           0        8.524582    1.637462    0.022664
     39          8           0        9.666740    2.081282    0.149126
     40          6           0        7.326522    2.656493    0.271768
     41          6           0        7.595808    3.885112   -0.553635
     42          8           0        7.570465    3.836441   -1.800372
     43          8           0        7.604842    4.963707    0.244547
     44          6           0        7.837643    6.220410   -0.516148
     45          1           0        0.455769    1.715708    0.626744
     46          1           0        1.223432   -4.108277   -1.477040
     47          1           0        7.449764   -3.578248   -0.851696
     48          1           0        4.729226    4.107055    1.286918
     49          1           0        1.966316    3.810628    0.811622
     50          1           0        3.786624    2.803360    2.965170
     51          1           0        2.350337    1.783036    2.645345
     52          1           0        2.097771    3.441670    3.109809
     53          1           0        3.085990    4.278609   -1.247180
     54          1           0        4.882256    4.437524   -1.390876
     55          1           0        3.978699    6.214496    0.637167
     56          1           0        2.694954    6.186822   -0.511347
     57          1           0       -1.417181    1.329777   -0.259811
     58          1           0       -2.301337   -0.148058   -0.242902
     59          1           0       -2.046915    0.660671   -1.810877
     60          1           0       -2.979566   -1.828920   -1.558765
     61          1           0       -3.039224   -2.982310   -3.006041
     62          1           0       -2.403709   -1.319553   -3.125566
     63          1           0        3.222229   -5.557509   -2.113440
     64          1           0        5.632598   -5.502114   -0.365573
     65          1           0        2.613453   -6.950928   -0.442163
     66          1           0        2.548270   -5.518306    0.640463
     67          1           0        3.962062   -6.435274    0.554797
     68          1           0        5.526195   -6.694225   -2.587253
     69          1           0        6.966239   -5.712688   -2.340876
     70          1           0        4.591038   -5.327911   -4.001312
     71          1           0        6.308435   -5.085327   -4.468636
     72          1           0        5.392147   -3.848593   -3.496209
     73          1           0       10.208274   -1.175917   -0.744238
     74          1           0        9.378288   -2.763261   -0.569515
     75          1           0        9.564108   -1.698906    0.885883
     76          1           0        7.317186    2.874414    1.339263
     77          1           0        8.702638    6.710585   -0.069218
     78          1           0        6.892077    6.762912   -0.515157
     79          1           0        8.176218    6.104599   -1.546339
     80         12           0       -4.147846   -0.514744    1.023992
     81          6           0       -5.567583    2.238751   -0.656731
     82          6           0       -2.223420    1.763702    2.770386
     83          6           0       -2.598497   -3.087834    2.646740
     84          6           0       -5.826115   -2.623582   -0.977379
     85          7           0       -3.946718    1.775615    1.075571
     86          6           0       -4.718705    2.716695    0.405045
     87          6           0       -4.477507    4.100794    0.973254
     88          6           0       -3.151190    3.933710    1.800366
     89          6           0       -3.122001    2.424816    1.895892
     90          6           0       -1.865549    4.606433    1.177610
     91          6           0       -5.608040    4.582535    1.894654
     92          6           0       -5.931753    6.078117    1.812110
     93          1           0       -4.892041    7.093018    2.363514
     94          7           0       -2.697836   -0.653409    2.556271
     95          6           0       -2.043485    0.416588    3.063641
     96          6           0       -1.039571   -0.049659    3.964014
     97          6           0       -1.171047   -1.474484    4.104095
     98          6           0       -2.130347   -1.787244    3.059584
     99          6           0       -0.085659    0.886269    4.652982
    100          6           0       -0.418176   -2.488964    4.965044
    101          8           0       -0.798620   -3.676180    5.066681
    102          6           0        0.879859   -2.148773    5.688536
    103          7           0       -4.273479   -2.536167    0.918737
    104          6           0       -3.491091   -3.438956    1.632490
    105          6           0       -3.799106   -4.824625    1.165726
    106          6           0       -4.890823   -4.764404    0.037547
    107          6           0       -5.069699   -3.238413   -0.012908
    108          6           0       -2.548377   -5.695008    0.839197
    109          6           0       -6.213729   -5.496656    0.350406
    110          6           0       -6.282550   -6.919731   -0.236598
    111          7           0       -5.379285   -0.313210   -0.510248
    112          6           0       -6.087943   -1.260009   -1.248553
    113          6           0       -7.029701   -0.632212   -2.247926
    114          6           0       -6.785102    0.732329   -2.023564
    115          6           0       -5.845367    0.881250   -0.953441
    116          6           0       -7.956913   -1.356973   -3.206462
    117          6           0       -7.192403    2.047755   -2.493809
    118          8           0       -7.963847    2.380809   -3.394363
    119          6           0       -6.481562    3.070360   -1.509233
    120          6           0       -5.766701    4.083152   -2.425209
    121          8           0       -5.169121    3.831499   -3.451244
    122          8           0       -6.058191    5.369717   -1.975969
    123          6           0       -5.429259    6.413485   -2.785560
    124          1           0       -1.690053    2.512562    3.359284
    125          1           0       -2.174278   -3.983131    3.105525
    126          1           0       -6.235647   -3.369021   -1.661752
    127          1           0       -4.304432    4.874684    0.225835
    128          1           0       -3.180358    4.367978    2.799733
    129          1           0       -2.036787    5.215234    0.289371
    130          1           0       -1.075771    3.933542    0.844446
    131          1           0       -1.419293    5.308931    1.881514
    132          1           0       -5.393363    4.354088    2.938348
    133          1           0       -6.549632    4.098371    1.634866
    134          1           0       -6.901942    6.309156    2.251727
    135          1           0       -6.107076    6.387914    0.782081
    136          1           0        0.271116    1.490879    3.819026
    137          1           0        0.801298    0.455731    5.117564
    138          1           0       -0.545029    1.552152    5.383158
    139          1           0        1.588506   -1.671926    5.011180
    140          1           0        1.210968   -3.130084    6.028069
    141          1           0        0.702451   -1.450347    6.506346
    142          1           0       -4.132622   -5.379472    2.043186
    143          1           0       -4.551462   -5.070606   -0.952826
    144          1           0       -1.666470   -5.066130    0.962994
    145          1           0       -2.603394   -6.011417   -0.202073
    146          1           0       -2.585714   -6.495325    1.579007
    147          1           0       -7.027104   -4.831191    0.061985
    148          1           0       -6.300177   -5.701982    1.417620
    149          1           0       -5.274107   -7.304103   -0.390828
    150          1           0       -6.726584   -7.018668   -1.227301
    151          1           0       -6.763736   -7.563008    0.500719
    152          1           0       -8.771644   -1.771998   -2.612847
    153          1           0       -7.515447   -2.193823   -3.747293
    154          1           0       -8.325127   -0.593504   -3.891579
    155          1           0       -7.142787    3.612060   -0.833150
    156          1           0       -4.433886    6.711704   -2.454942
    157          1           0       -6.137800    7.240142   -2.735412
    158          1           0       -5.241014    6.225702   -3.842620
 ---------------------------------------------------------------------

 SCF Done:  E(RPBE1PBE) =  -4067.41377756     A.U. after   17 cycles

 Excitation energies and oscillator strengths:

 Excited State   1:      Singlet-A      1.5575 eV  796.06 nm  f=0.0002  <S**2>=0.000
     312 -> 313        0.70599
 This state for optimization and/or second-order correction.
 Total Energy, E(TD-HF/TD-DFT) =  -4067.35654175
 Copying the excited state density for this state as the 1-particle RhoCI density.

 Excited State   2:      Singlet-A      1.6733 eV  740.94 nm  f=0.0002  <S**2>=0.000
     311 -> 314        0.70537

 Excited State   3:      Singlet-A      1.8255 eV  679.18 nm  f=0.6444  <S**2>=0.000
     310 -> 316        0.13226
     311 -> 313        0.34639
     312 -> 314        0.60046

 Excited State   4:      Singlet-A      1.8295 eV  677.68 nm  f=0.1178  <S**2>=0.000
     309 -> 315        0.14874
     311 -> 313        0.59845
     312 -> 314       -0.34616

 Excited State   5:      Singlet-A      2.1713 eV  571.00 nm  f=0.0015  <S**2>=0.000
     310 -> 313        0.70518

 The electronic state is 1-A.
 Alpha  occ. eigenvalues --  -46.91433 -46.91302 -19.27063 -19.26846 -19.21092
 Alpha  occ. eigenvalues --  -19.19794 -19.19610 -19.19433 -19.19088 -19.18534
 Alpha  occ. eigenvalues --  -14.42491 -14.42091 -14.41380 -14.41062 -14.40087
 Alpha  occ. eigenvalues --  -14.39467 -14.39143 -14.38372 -10.37172 -10.36238
 Alpha  occ. eigenvalues --  -10.33170 -10.32708 -10.32489 -10.31694 -10.29812
 Alpha  occ. eigenvalues --  -10.29297 -10.29104 -10.29043 -10.29018 -10.28785
 Alpha  occ. eigenvalues --  -10.28696 -10.28616 -10.28607 -10.28539 -10.28330
 Alpha  occ. eigenvalues --  -10.28216 -10.28101 -10.27637 -10.27584 -10.27577
 Alpha  occ. eigenvalues --  -10.27320 -10.27147 -10.27076 -10.27065 -10.27020
 Alpha  occ. eigenvalues --  -10.26953 -10.26808 -10.26736 -10.26606 -10.26540
 Alpha  occ. eigenvalues --  -10.26254 -10.26218 -10.26184 -10.25763 -10.25566
 Alpha  occ. eigenvalues --  -10.25491 -10.25444 -10.25443 -10.25442 -10.25346
 Alpha  occ. eigenvalues --  -10.25344 -10.25316 -10.25202 -10.25076 -10.25000
 Alpha  occ. eigenvalues --  -10.24984 -10.24915 -10.24731 -10.24485 -10.24274
 Alpha  occ. eigenvalues --  -10.24167 -10.24160 -10.24068 -10.24059 -10.23964
 Alpha  occ. eigenvalues --  -10.23851 -10.23834 -10.23717 -10.23372 -10.23216
 Alpha  occ. eigenvalues --  -10.22985 -10.22938 -10.22710 -10.22686 -10.22498
 Alpha  occ. eigenvalues --  -10.22140  -3.13843  -3.13619  -1.86698  -1.86441
 Alpha  occ. eigenvalues --   -1.86188  -1.86105  -1.86007  -1.85853  -1.11558
 Alpha  occ. eigenvalues --   -1.11501  -1.04431  -1.03807  -1.03487  -1.03455
 Alpha  occ. eigenvalues --   -1.01888  -1.01579  -0.99778  -0.99312  -0.98668
 Alpha  occ. eigenvalues --   -0.98473  -0.98298  -0.98000  -0.97197  -0.96432
 Alpha  occ. eigenvalues --   -0.87412  -0.86461  -0.84236  -0.83922  -0.83708
 Alpha  occ. eigenvalues --   -0.83570  -0.82815  -0.82671  -0.82315  -0.82168
 Alpha  occ. eigenvalues --   -0.82098  -0.81637  -0.81506  -0.80928  -0.79418
 Alpha  occ. eigenvalues --   -0.79148  -0.78297  -0.78056  -0.77206  -0.76947
 Alpha  occ. eigenvalues --   -0.76882  -0.76162  -0.76014  -0.75607  -0.75021
 Alpha  occ. eigenvalues --   -0.74769  -0.73208  -0.73099  -0.72188  -0.71933
 Alpha  occ. eigenvalues --   -0.71692  -0.71400  -0.70952  -0.70461  -0.69629
 Alpha  occ. eigenvalues --   -0.69324  -0.67576  -0.67366  -0.66436  -0.66234
 Alpha  occ. eigenvalues --   -0.64300  -0.64091  -0.63415  -0.63401  -0.63036
 Alpha  occ. eigenvalues --   -0.62205  -0.62030  -0.61671  -0.60675  -0.60166
 Alpha  occ. eigenvalues --   -0.59880  -0.59535  -0.59333  -0.59244  -0.59163
 Alpha  occ. eigenvalues --   -0.58853  -0.57569  -0.56992  -0.55507  -0.55024
 Alpha  occ. eigenvalues --   -0.54920  -0.54510  -0.53942  -0.53729  -0.53465
 Alpha  occ. eigenvalues --   -0.53230  -0.52680  -0.52405  -0.52219  -0.51913
 Alpha  occ. eigenvalues --   -0.51049  -0.50992  -0.50510  -0.50406  -0.50147
 Alpha  occ. eigenvalues --   -0.50047  -0.49931  -0.49489  -0.49178  -0.48893
 Alpha  occ. eigenvalues --   -0.48697  -0.48434  -0.48109  -0.47978  -0.47901
 Alpha  occ. eigenvalues --   -0.47836  -0.47709  -0.47468  -0.47399  -0.47058
 Alpha  occ. eigenvalues --   -0.46944  -0.46920  -0.46558  -0.46517  -0.46329
 Alpha  occ. eigenvalues --   -0.46160  -0.45959  -0.45475  -0.45100  -0.45049
 Alpha  occ. eigenvalues --   -0.44908  -0.44778  -0.44628  -0.44536  -0.44434
 Alpha  occ. eigenvalues --   -0.44141  -0.44077  -0.43938  -0.43919  -0.43664
 Alpha  occ. eigenvalues --   -0.43464  -0.43403  -0.43280  -0.43179  -0.43101
 Alpha  occ. eigenvalues --   -0.43054  -0.42657  -0.42463  -0.42418  -0.42163
 Alpha  occ. eigenvalues --   -0.41994  -0.41734  -0.41698  -0.41635  -0.41454
 Alpha  occ. eigenvalues --   -0.41279  -0.41179  -0.40984  -0.40962  -0.40696
 Alpha  occ. eigenvalues --   -0.40566  -0.40158  -0.40015  -0.39855  -0.39782
 Alpha  occ. eigenvalues --   -0.39515  -0.39436  -0.39394  -0.39309  -0.39011
 Alpha  occ. eigenvalues --   -0.38981  -0.38822  -0.38754  -0.38481  -0.38427
 Alpha  occ. eigenvalues --   -0.38375  -0.38300  -0.38272  -0.38007  -0.37812
 Alpha  occ. eigenvalues --   -0.37624  -0.37601  -0.37512  -0.37036  -0.36970
 Alpha  occ. eigenvalues --   -0.36949  -0.36744  -0.36653  -0.36556  -0.36378
 Alpha  occ. eigenvalues --   -0.36197  -0.36078  -0.35908  -0.35734  -0.35665
 Alpha  occ. eigenvalues --   -0.35583  -0.35460  -0.35165  -0.34663  -0.34402
 Alpha  occ. eigenvalues --   -0.33880  -0.33753  -0.33523  -0.33165  -0.32892
 Alpha  occ. eigenvalues --   -0.32655  -0.32484  -0.32418  -0.32301  -0.32050
 Alpha  occ. eigenvalues --   -0.31818  -0.31374  -0.30730  -0.30315  -0.29624
 Alpha  occ. eigenvalues --   -0.29026  -0.28896  -0.28534  -0.27105  -0.26861
 Alpha  occ. eigenvalues --   -0.26745  -0.26346  -0.26218  -0.26040  -0.25921
 Alpha  occ. eigenvalues --   -0.25225  -0.25052  -0.24949  -0.21296  -0.21086
 Alpha  occ. eigenvalues --   -0.19137  -0.18873
 Alpha virt. eigenvalues --   -0.11524  -0.11342  -0.05749  -0.05421  -0.04616
 Alpha virt. eigenvalues --   -0.04283  -0.03040  -0.02279  -0.00165  -0.00053
 Alpha virt. eigenvalues --    0.00175   0.00292   0.00340   0.01066   0.01293

 Mulliken charges:
               1
     1  Mg  11.999996
     2  C    5.999497
     3  C    5.999469
     4  C    6.000734
     5  C    6.000386
     6  N    6.999590
     7  C    6.000366
     8  C    5.999888
     9  C    5.999826
    10  C    6.001326
    11  C    5.999374
    12  C    5.999950
    13  C    6.000003
    14  H    1.000043
    15  N    7.000103
    16  C    6.000727
    17  C    5.998734
    18  C    6.000252
    19  C    5.999482
    20  C    6.000415
    21  C    6.000228
    22  O    7.999828
    23  C    6.000260
    24  N    7.000419
    25  C    5.999272
    26  C    6.000120
    27  C    6.000007
    28  C    5.999715
    29  C    5.999915
    30  C    5.999948
    31  C    6.000003
    32  N    6.999988
    33  C    5.999904
    34  C    6.000319
    35  C    5.999832
    36  C    6.000352
    37  C    5.999948
    38  C    6.000114
    39  O    7.999960
    40  C    6.000042
    41  C    6.000002
    42  O    7.999973
    43  O    7.999984
    44  C    5.999998
    45  H    0.999312
    46  H    1.000149
    47  H    1.000104
    48  H    1.000029
    49  H    1.000123
    50  H    1.000337
    51  H    1.000142
    52  H    1.000622
    53  H    0.999940
    54  H    1.000027
    55  H    0.999997
    56  H    0.999928
    57  H    0.999537
    58  H    1.001062
    59  H    0.999349
    60  H    1.000068
    61  H    0.999931
    62  H    0.999716
    63  H    0.999941
    64  H    0.999946
    65  H    1.000023
    66  H    1.000193
    67  H    0.999910
    68  H    1.000052
    69  H    0.999933
    70  H    1.000075
    71  H    0.999973
    72  H    0.999961
    73  H    1.000078
    74  H    1.000080
    75  H    1.000107
    76  H    0.999984
    77  H    1.000010
    78  H    0.999984
    79  H    1.000005
    80  Mg  11.998841
    81  C    6.002455
    82  C    6.003883
    83  C    5.997278
    84  C    5.997090
    85  N    7.003004
    86  C    5.998931
    87  C    6.000051
    88  C    6.000237
    89  C    5.997976
    90  C    5.999891
    91  C    5.999827
    92  C    5.999905
    93  H    1.000315
    94  N    6.999641
    95  C    5.999426
    96  C    5.999120
    97  C    6.000247
    98  C    5.999989
    99  C    6.000029
   100  C    6.000034
   101  O    8.000491
   102  C    6.000004
   103  N    6.997230
   104  C    6.000741
   105  C    6.000151
   106  C    5.999705
   107  C    6.001856
   108  C    6.000055
   109  C    6.000191
   110  C    6.000028
   111  N    7.000475
   112  C    6.001119
   113  C    6.000015
   114  C    6.000462
   115  C    5.999773
   116  C    6.000155
   117  C    6.000157
   118  O    8.000507
   119  C    5.999560
   120  C    6.000075
   121  O    8.000419
   122  O    8.000064
   123  C    5.999886
   124  H    1.000762
   125  H    0.999066
   126  H    0.999161
   127  H    1.000162
   128  H    1.000146
   129  H    1.000086
   130  H    0.999994
   131  H    1.000130
   132  H    1.000238
   133  H    0.999995
   134  H    1.000183
   135  H    1.000004
   136  H    0.999536
   137  H    0.999798
   138  H    0.999377
   139  H    0.999913
   140  H    0.999941
   141  H    0.999937
   142  H    0.999718
   143  H    0.999825
   144  H    0.999875
   145  H    0.999682
   146  H    0.999712
   147  H    0.999845
   148  H    0.999878
   149  H    0.999955
   150  H    0.999797
   151  H    0.999809
   152  H    1.000176
   153  H    1.000298
   154  H    0.999901
   155  H    1.000396
   156  H    1.000154
   157  H    1.000173
   158  H    1.000169
 Sum of Mulliken charges = 624.00000

 Dipole moment (field-independent basis, Debye):
    X=             -0.0085    Y=              0.2331    Z=             -0.0553  Tot=              0.2397
 Quadrupole moment (field-independent basis, Debye-Ang):
   XX=              0.7043   YY=             -0.1532   ZZ=             -0.0738
   XY=             -1.0897   XZ=              0.2816   YZ=              0.1403

 Normal termination of Gaussian 16 at Thu Oct 14 16:21:29 2021.
