 Gaussian 16, Revision A.03,
 Gaussian 16:  ES64L-G16RevA.03 25-Dec-2016

 --------------------------------------------------------
 #p PBE1PBE/Def2SVP td=(nstates=5) density=(transition=1)
 --------------------------------------------------------

 --------------------------------
 TDDFT excited states in gaussian
 --------------------------------
 Symbolic Z-matrix:
 Charge =  0 Multiplicity = 1

                         Standard orientation:
 ---------------------------------------------------------------------
 Center     Atomic      Atomic             Coordinates (Angstroms)
 Number     Number       Type             X           Y           Z
 ---------------------------------------------------------------------
      1         12           0       23.834859    0.529114    0.181789
      2          6           0       23.037869   -2.345662   -1.614875
      3          6           0       23.965992   -1.339960    3.066960
      4          6           0       24.325705    3.443895    1.814417
      5          6           0       23.277561    2.414230   -2.802413
      6          7           0       23.424767   -1.557302    0.640254
      7          6           0       23.145729   -2.565253   -0.230147
      8          6           0       23.116251   -3.925483    0.478791
      9          6           0       23.278651   -3.492894    2.002874
     10          6           0       23.595216   -1.998895    1.877829
     11          6           0       22.005612   -3.732487    2.805577
     12          6           0       24.298889   -4.901675    0.141062
     13          6           0       24.031746   -6.379685    0.259567
     14          1           0       22.850014   -6.844933    0.986054
     15          7           0       24.190656    0.959489    2.117635
     16          6           0       24.194925    0.026864    3.174125
     17          6           0       24.653127    0.739816    4.337650
     18          6           0       24.821614    2.111014    4.018726
     19          6           0       24.437711    2.231946    2.590690
     20          6           0       24.691402    0.128077    5.721740
     21          6           0       25.302996    3.243768    4.824718
     22          8           0       25.206232    4.400175    4.472971
     23          6           0       25.832159    3.012044    6.286497
     24          7           0       23.983443    2.684283   -0.418127
     25          6           0       24.163330    3.639838    0.444000
     26          6           0       24.117901    5.039774   -0.239123
     27          6           0       23.863473    4.738731   -1.704936
     28          6           0       23.632109    3.184772   -1.694712
     29          6           0       23.071237    5.993089    0.508474
     30          6           0       25.000389    5.222807   -2.629590
     31          6           0       24.817784    6.625328   -3.321313
     32          7           0       23.546623    0.172998   -1.791006
     33          6           0       23.333901    1.027236   -2.901418
     34          6           0       23.128119    0.285348   -4.086564
     35          6           0       22.923856   -1.065606   -3.573361
     36          6           0       23.234032   -1.027868   -2.183825
     37          6           0       22.772355    0.857301   -5.446684
     38          6           0       22.539522   -2.352671   -4.022747
     39          8           0       22.262338   -2.787781   -5.133385
     40          6           0       22.695420   -3.319501   -2.672971
     41          6           0       21.378612   -4.027532   -2.545401
     42          8           0       20.288989   -3.460064   -2.414428
     43          8           0       21.492650   -5.437755   -2.727407
     44          6           0       20.216112   -6.211956   -2.625793
     45          1           0       23.988274   -1.993954    3.941999
     46          1           0       24.305408    4.340249    2.437209
     47          1           0       23.147460    2.935704   -3.752616
     48          1           0       22.132450   -4.350093    0.277701
     49          1           0       24.067247   -4.041125    2.518131
     50          1           0       21.318581   -4.387058    2.269951
     51          1           0       21.528764   -2.806149    3.127066
     52          1           0       22.154184   -4.347557    3.693140
     53          1           0       25.140019   -4.627224    0.776721
     54          1           0       24.648311   -4.628999   -0.854995
     55          1           0       24.854176   -6.803160    0.835669
     56          1           0       23.982642   -6.812885   -0.739478
     57          1           0       23.967568    0.569806    6.406521
     58          1           0       25.710421    0.217255    6.100556
     59          1           0       24.445681   -0.931861    5.784943
     60          1           0       24.944039    2.953469    6.916246
     61          1           0       26.341629    3.905912    6.646675
     62          1           0       26.376148    2.071077    6.359129
     63          1           0       25.120809    5.428317   -0.061187
     64          1           0       22.894671    5.112579   -2.032644
     65          1           0       22.323345    6.365015   -0.191696
     66          1           0       23.515089    6.912638    0.890464
     67          1           0       22.605583    5.349752    1.256194
     68          1           0       25.092152    4.467819   -3.411200
     69          1           0       25.914666    5.196642   -2.036517
     70          1           0       24.247068    6.468530   -4.237307
     71          1           0       25.698755    7.237713   -3.514550
     72          1           0       24.130869    7.099520   -2.621133
     73          1           0       23.744756    1.103908   -5.872171
     74          1           0       22.177433    1.765119   -5.353750
     75          1           0       22.077901    0.273733   -6.052436
     76          1           0       23.539738   -3.993878   -2.821213
     77          1           0       19.512571   -5.930359   -3.408441
     78          1           0       19.660428   -6.175898   -1.688390
     79          1           0       20.604405   -7.205736   -2.848789
     80         12           0      -24.009883    0.564465    0.158920
     81          6           0      -21.635936   -2.030762    0.474193
     82          6           0      -26.451328   -1.752542   -0.431829
     83          6           0      -25.975720    3.040447   -0.776541
     84          6           0      -21.317054    2.870026    0.296430
     85          7           0      -24.026178   -1.657392    0.155860
     86          6           0      -22.980017   -2.443857    0.314571
     87          6           0      -23.479776   -3.852559    0.579523
     88          6           0      -24.892002   -3.871276   -0.122647
     89          6           0      -25.171808   -2.322520   -0.157870
     90          6           0      -24.838828   -4.633488   -1.501036
     91          6           0      -23.658900   -4.145007    2.091427
     92          6           0      -23.677958   -5.683531    2.499452
     93          1           0      -23.563425   -6.799458    1.457460
     94          7           0      -25.962506    0.652119   -0.301799
     95          6           0      -26.886790   -0.415118   -0.439055
     96          6           0      -28.225009    0.162714   -0.704367
     97          6           0      -28.059044    1.582366   -0.888403
     98          6           0      -26.625114    1.864811   -0.661108
     99          6           0      -29.477346   -0.638919   -0.760489
    100          6           0      -29.071526    2.747072   -1.218950
    101          8           0      -28.763946    3.946408   -1.250789
    102          6           0      -30.459691    2.379174   -1.656426
    103          7           0      -23.667647    2.674742   -0.308274
    104          6           0      -24.645901    3.484222   -0.616360
    105          6           0      -24.258352    4.927600   -0.776301
    106          6           0      -22.726810    4.894568   -0.436309
    107          6           0      -22.548971    3.397545   -0.028324
    108          6           0      -24.701809    5.489669   -2.130159
    109          6           0      -22.303883    5.826867    0.692006
    110          6           0      -20.938900    6.582105    0.508583
    111          7           0      -21.856288    0.527033    0.422150
    112          6           0      -20.909268    1.567107    0.497996
    113          6           0      -19.654299    1.014197    0.876013
    114          6           0      -19.813385   -0.399008    0.713710
    115          6           0      -21.146268   -0.638334    0.494122
    116          6           0      -18.468998    1.790264    1.374233
    117          6           0      -19.239874   -1.760474    0.839953
    118          8           0      -18.103648   -2.108672    1.085328
    119          6           0      -20.377694   -2.810445    0.426778
    120          6           0      -20.199418   -4.098777    1.161294
    121          8           0      -20.235898   -4.257018    2.345902
    122          8           0      -19.871958   -5.147891    0.282100
    123          6           0      -19.015712   -6.223372    0.825820
    124          1           0      -27.232080   -2.412523   -0.816746
    125          1           0      -26.566285    3.944510   -0.935112
    126          1           0      -20.524437    3.612819    0.408775
    127          1           0      -22.657209   -4.471655    0.221623
    128          1           0      -25.642927   -4.359221    0.499651
    129          1           0      -23.826042   -4.981904   -1.700665
    130          1           0      -24.999597   -3.841633   -2.232654
    131          1           0      -25.488066   -5.506751   -1.565523
    132          1           0      -24.628962   -3.708991    2.333589
    133          1           0      -22.872080   -3.603600    2.616563
    134          1           0      -24.609189   -5.804243    3.055022
    135          1           0      -22.875569   -5.783690    3.230775
    136          1           0      -29.458672   -1.677580   -0.432402
    137          1           0      -29.867056   -0.727228   -1.774217
    138          1           0      -30.153296   -0.105604   -0.091617
    139          1           0      -31.162722    2.241254   -0.835085
    140          1           0      -30.231196    1.466682   -2.208478
    141          1           0      -30.772845    3.163167   -2.345366
    142          1           0      -24.820817    5.397732    0.030260
    143          1           0      -22.080564    5.122361   -1.283107
    144          1           0      -24.810793    4.733569   -2.908287
    145          1           0      -23.891747    6.147280   -2.443029
    146          1           0      -25.641590    6.039082   -2.070617
    147          1           0      -22.223663    5.289087    1.636555
    148          1           0      -23.184821    6.445515    0.862593
    149          1           0      -20.397836    6.222043   -0.366297
    150          1           0      -20.367922    6.325901    1.400776
    151          1           0      -20.944200    7.670703    0.444485
    152          1           0      -18.344126    2.599310    0.654383
    153          1           0      -17.539649    1.222063    1.417755
    154          1           0      -18.703670    2.250001    2.334799
    155          1           0      -20.191088   -3.135522   -0.596248
    156          1           0      -19.599240   -7.144140    0.826933
    157          1           0      -18.643800   -5.992283    1.824616
    158          1           0      -18.181469   -6.301980    0.128759
 ---------------------------------------------------------------------

 SCF Done:  E(RPBE1PBE) =  -4067.39453372     A.U. after   17 cycles

 Excitation energies and oscillator strengths:

 Excited State   1:      Singlet-A      1.8459 eV  671.68 nm  f=0.3589  <S**2>=0.000
     309 -> 316       -0.17467
     311 -> 313        0.69230
     311 <- 313       -0.10446
 This state for optimization and/or second-order correction.
 Total Energy, E(TD-HF/TD-DFT) =  -4067.32669882
 Copying the excited state density for this state as the 1-particle RhoCI density.

 Excited State   2:      Singlet-A      1.8894 eV  656.20 nm  f=0.3608  <S**2>=0.000
     310 -> 315       -0.18739
     312 -> 314        0.68566

 Excited State   3:      Singlet-A      1.9258 eV  643.82 nm  f=0.0000  <S**2>=0.000
     312 -> 313        0.70711

 Excited State   4:      Singlet-A      2.1292 eV  582.29 nm  f=0.0000  <S**2>=0.000
     311 -> 314        0.70711

 Excited State   5:      Singlet-A      2.1350 eV  580.72 nm  f=0.0935  <S**2>=0.000
     310 -> 314        0.65947
     312 -> 315        0.23134

 The electronic state is 1-A.
 Alpha  occ. eigenvalues --  -46.91926 -46.91384 -19.24888 -19.24057 -19.20185
 Alpha  occ. eigenvalues --  -19.19872 -19.19751 -19.19157 -19.18904 -19.18860
 Alpha  occ. eigenvalues --  -14.42121 -14.41470 -14.41187 -14.41126 -14.39716
 Alpha  occ. eigenvalues --  -14.39300 -14.39195 -14.37904 -10.36172 -10.35685
 Alpha  occ. eigenvalues --  -10.33616 -10.32274 -10.32272 -10.31793 -10.29644
 Alpha  occ. eigenvalues --  -10.29070 -10.28986 -10.28794 -10.28787 -10.28756
 Alpha  occ. eigenvalues --  -10.28467 -10.28372 -10.28303 -10.28195 -10.28168
 Alpha  occ. eigenvalues --  -10.28036 -10.27991 -10.27842 -10.27767 -10.27094
 Alpha  occ. eigenvalues --  -10.26874 -10.26837 -10.26494 -10.26265 -10.25992
 Alpha  occ. eigenvalues --  -10.25952 -10.25939 -10.25929 -10.25848 -10.25835
 Alpha  occ. eigenvalues --  -10.25773 -10.25768 -10.25614 -10.25529 -10.25523
 Alpha  occ. eigenvalues --  -10.25467 -10.25436 -10.25427 -10.25420 -10.25393
 Alpha  occ. eigenvalues --  -10.25236 -10.25172 -10.25122 -10.25094 -10.24871
 Alpha  occ. eigenvalues --  -10.24590 -10.24578 -10.24483 -10.24086 -10.23930
 Alpha  occ. eigenvalues --  -10.23913 -10.23902 -10.23820 -10.23660 -10.23577
 Alpha  occ. eigenvalues --  -10.23468 -10.23450 -10.23386 -10.23365 -10.23320
 Alpha  occ. eigenvalues --  -10.23291 -10.23247 -10.23214 -10.22867 -10.22753
 Alpha  occ. eigenvalues --  -10.22574  -3.13970  -3.13656  -1.86823  -1.86510
 Alpha  occ. eigenvalues --   -1.86343  -1.86190  -1.86023  -1.85900  -1.10059
 Alpha  occ. eigenvalues --   -1.08249  -1.05548  -1.04871  -1.04592  -1.03726
 Alpha  occ. eigenvalues --   -1.01954  -1.00725  -0.99783  -0.99696  -0.99120
 Alpha  occ. eigenvalues --   -0.98723  -0.98147  -0.96831  -0.96671  -0.95285
 Alpha  occ. eigenvalues --   -0.86601  -0.86357  -0.83564  -0.83556  -0.83222
 Alpha  occ. eigenvalues --   -0.83093  -0.82636  -0.82013  -0.81989  -0.81730
 Alpha  occ. eigenvalues --   -0.81607  -0.81482  -0.80728  -0.80062  -0.78535
 Alpha  occ. eigenvalues --   -0.78181  -0.78114  -0.77366  -0.76788  -0.76457
 Alpha  occ. eigenvalues --   -0.75924  -0.75710  -0.75058  -0.74582  -0.74283
 Alpha  occ. eigenvalues --   -0.74219  -0.72830  -0.72720  -0.71643  -0.71509
 Alpha  occ. eigenvalues --   -0.71173  -0.70800  -0.70193  -0.69768  -0.69416
 Alpha  occ. eigenvalues --   -0.69398  -0.67637  -0.67014  -0.66151  -0.66039
 Alpha  occ. eigenvalues --   -0.64208  -0.63819  -0.63360  -0.62992  -0.62576
 Alpha  occ. eigenvalues --   -0.61764  -0.61650  -0.60967  -0.60419  -0.60174
 Alpha  occ. eigenvalues --   -0.59717  -0.59591  -0.59465  -0.59225  -0.59056
 Alpha  occ. eigenvalues --   -0.58060  -0.56054  -0.55733  -0.54780  -0.54515
 Alpha  occ. eigenvalues --   -0.54256  -0.53927  -0.53758  -0.53222  -0.53106
 Alpha  occ. eigenvalues --   -0.52671  -0.52407  -0.52207  -0.51864  -0.51501
 Alpha  occ. eigenvalues --   -0.50923  -0.50808  -0.50046  -0.49743  -0.49525
 Alpha  occ. eigenvalues --   -0.49201  -0.48773  -0.48605  -0.47838  -0.47776
 Alpha  occ. eigenvalues --   -0.47739  -0.47710  -0.47664  -0.47382  -0.47361
 Alpha  occ. eigenvalues --   -0.47036  -0.46822  -0.46780  -0.46737  -0.46651
 Alpha  occ. eigenvalues --   -0.46623  -0.46316  -0.46203  -0.45938  -0.45750
 Alpha  occ. eigenvalues --   -0.45721  -0.45354  -0.45272  -0.45046  -0.44846
 Alpha  occ. eigenvalues --   -0.44655  -0.44517  -0.44432  -0.44177  -0.44024
 Alpha  occ. eigenvalues --   -0.43866  -0.43826  -0.43718  -0.43617  -0.43151
 Alpha  occ. eigenvalues --   -0.43016  -0.42974  -0.42951  -0.42848  -0.42674
 Alpha  occ. eigenvalues --   -0.42473  -0.42358  -0.42231  -0.42165  -0.41953
 Alpha  occ. eigenvalues --   -0.41884  -0.41769  -0.41763  -0.41647  -0.41552
 Alpha  occ. eigenvalues --   -0.41074  -0.41045  -0.40912  -0.40482  -0.40385
 Alpha  occ. eigenvalues --   -0.40304  -0.39973  -0.39858  -0.39839  -0.39754
 Alpha  occ. eigenvalues --   -0.39492  -0.39269  -0.39132  -0.38884  -0.38814
 Alpha  occ. eigenvalues --   -0.38714  -0.38657  -0.38531  -0.38261  -0.38032
 Alpha  occ. eigenvalues --   -0.37964  -0.37925  -0.37759  -0.37553  -0.37522
 Alpha  occ. eigenvalues --   -0.37397  -0.37019  -0.36981  -0.36860  -0.36836
 Alpha  occ. eigenvalues --   -0.36727  -0.36574  -0.36480  -0.36444  -0.36287
 Alpha  occ. eigenvalues --   -0.36189  -0.36034  -0.35853  -0.35709  -0.35116
 Alpha  occ. eigenvalues --   -0.35079  -0.34904  -0.34710  -0.34415  -0.33964
 Alpha  occ. eigenvalues --   -0.33658  -0.33593  -0.32795  -0.32751  -0.32528
 Alpha  occ. eigenvalues --   -0.32280  -0.32036  -0.31460  -0.31232  -0.30819
 Alpha  occ. eigenvalues --   -0.30770  -0.30405  -0.29705  -0.29389  -0.29177
 Alpha  occ. eigenvalues --   -0.29026  -0.28565  -0.28437  -0.26991  -0.26657
 Alpha  occ. eigenvalues --   -0.26363  -0.26025  -0.25766  -0.25702  -0.25488
 Alpha  occ. eigenvalues --   -0.25347  -0.25076  -0.24253  -0.21099  -0.20580
 Alpha  occ. eigenvalues --   -0.19131  -0.18885
 Alpha virt. eigenvalues --   -0.11528  -0.11031  -0.05498  -0.05227  -0.04184
 Alpha virt. eigenvalues --   -0.03971  -0.02029  -0.01753  -0.00012   0.00011
 Alpha virt. eigenvalues --    0.00261   0.01148   0.01330   0.01334   0.02248

 Mulliken charges:
               1
     1  Mg  11.999318
     2  C    6.027736
     3  C    5.999015
     4  C    5.979593
     5  C    5.998533
     6  N    7.016032
     7  C    5.964692
     8  C    6.011617
     9  C    5.987888
    10  C    6.025946
    11  C    5.995943
    12  C    6.002155
    13  C    6.000313
    14  H    0.995834
    15  N    6.991309
    16  C    6.034186
    17  C    6.020270
    18  C    6.017684
    19  C    6.027341
    20  C    5.995625
    21  C    6.009783
    22  O    8.030302
    23  C    5.998024
    24  N    6.992549
    25  C    6.027356
    26  C    5.998383
    27  C    6.003859
    28  C    5.976567
    29  C    5.997531
    30  C    6.003920
    31  C    5.998768
    32  N    7.000283
    33  C    5.968636
    34  C    5.974229
    35  C    5.993923
    36  C    5.971592
    37  C    6.000222
    38  C    5.986085
    39  O    7.968910
    40  C    5.992022
    41  C    5.995712
    42  O    7.996505
    43  O    7.997909
    44  C    6.001500
    45  H    1.013484
    46  H    1.002162
    47  H    0.988037
    48  H    1.002514
    49  H    1.002765
    50  H    1.014420
    51  H    0.997964
    52  H    1.003316
    53  H    0.990512
    54  H    1.007369
    55  H    0.996810
    56  H    1.004172
    57  H    1.017814
    58  H    1.016358
    59  H    1.015830
    60  H    1.008141
    61  H    1.013672
    62  H    1.004579
    63  H    0.996236
    64  H    1.000256
    65  H    1.007469
    66  H    0.999106
    67  H    0.994156
    68  H    1.005611
    69  H    0.990103
    70  H    1.001797
    71  H    0.995212
    72  H    0.994270
    73  H    0.985268
    74  H    0.983805
    75  H    0.987194
    76  H    0.994290
    77  H    0.999623
    78  H    0.993892
    79  H    0.996194
    80  Mg  12.000007
    81  C    6.000046
    82  C    6.000009
    83  C    5.999969
    84  C    6.000014
    85  N    7.000012
    86  C    5.999995
    87  C    6.000008
    88  C    6.000016
    89  C    5.999992
    90  C    5.999993
    91  C    5.999997
    92  C    6.000002
    93  H    1.000024
    94  N    6.999974
    95  C    5.999994
    96  C    5.999978
    97  C    6.000051
    98  C    6.000025
    99  C    6.000011
   100  C    5.999927
   101  O    7.999978
   102  C    6.000001
   103  N    6.999956
   104  C    6.000013
   105  C    5.999986
   106  C    6.000013
   107  C    5.999992
   108  C    6.000005
   109  C    5.999997
   110  C    6.000004
   111  N    6.999987
   112  C    6.000018
   113  C    6.000020
   114  C    6.000018
   115  C    5.999948
   116  C    5.999996
   117  C    6.000023
   118  O    8.000053
   119  C    5.999982
   120  C    6.000015
   121  O    7.999985
   122  O    8.000013
   123  C    5.999992
   124  H    0.999992
   125  H    0.999985
   126  H    1.000009
   127  H    1.000005
   128  H    0.999986
   129  H    1.000002
   130  H    1.000018
   131  H    0.999996
   132  H    1.000003
   133  H    0.999974
   134  H    0.999988
   135  H    0.999983
   136  H    0.999968
   137  H    0.999984
   138  H    0.999964
   139  H    0.999970
   140  H    1.000009
   141  H    0.999981
   142  H    0.999989
   143  H    1.000026
   144  H    1.000023
   145  H    0.999999
   146  H    1.000002
   147  H    0.999977
   148  H    1.000004
   149  H    1.000026
   150  H    0.999976
   151  H    1.000003
   152  H    1.000043
   153  H    1.000028
   154  H    0.999991
   155  H    1.000035
   156  H    1.000008
   157  H    0.999981
   158  H    1.000038
 Sum of Mulliken charges = 624.00000

 Dipole moment (field-independent basis, Debye):
    X=              1.9794    Y=              1.1946    Z=              9.8588  Tot=             10.1263
 Quadrupole moment (field-independent basis, Debye-Ang):
   XX=             92.6417   YY=             -1.7926   ZZ=              4.8540
   XY=             28.9503   XZ=            235.3182   YZ=              6.0331

 Normal termination of Gaussian 16 at Fri Oct 15 09:59:21 2021.
