 Gaussian 16, Revision A.03,
 Gaussian 16:  ES64L-G16RevA.03 25-Dec-2016

 --------------------------------------------------------
 #p PBE1PBE/Def2SVP td=(nstates=5) density=(transition=1)
 --------------------------------------------------------

 --------------------------------
 TDDFT excited states in gaussian
 --------------------------------
 Symbolic Z-matrix:
 Charge =  0 Multiplicity = 1

                         Standard orientation:
 ---------------------------------------------------------------------
 Center     Atomic      Atomic             Coordinates (Angstroms)
 Number     Number       Type             X           Y           Z
 ---------------------------------------------------------------------
      1         12           0      -10.823777   -0.066829   -0.241514
      2          6           0       -7.921780   -1.062223    1.358843
      3          6           0      -10.243831    3.184599    0.785927
      4          6           0      -13.197110    0.940392   -2.420420
      5          6           0      -11.038421   -3.368517   -1.462345
      6          7           0       -9.092332    0.991338    0.707519
      7          6           0       -8.171587    0.326377    1.410992
      8          6           0       -7.185125    1.330377    2.083719
      9          6           0       -8.084343    2.654642    2.130327
     10          6           0       -9.288279    2.253402    1.194809
     11          6           0       -8.427867    3.099793    3.572319
     12          6           0       -5.974552    1.549507    1.205135
     13          6           0       -4.642575    1.634362    1.934001
     14          1           0       -3.491741    2.616922    1.496641
     15          7           0      -11.716058    1.840423   -0.595039
     16          6           0      -11.319535    3.048733   -0.159703
     17          6           0      -12.236196    4.013197   -0.675167
     18          6           0      -13.224731    3.366398   -1.477246
     19          6           0      -12.776166    1.968985   -1.515605
     20          6           0      -12.219227    5.424889   -0.217833
     21          6           0      -14.281124    4.083513   -2.240265
     22          8           0      -14.408746    5.291046   -2.124086
     23          6           0      -15.271815    3.337891   -3.126358
     24          7           0      -12.054366   -1.155064   -1.727412
     25          6           0      -12.896704   -0.435614   -2.520581
     26          6           0      -13.407333   -1.275411   -3.646016
     27          6           0      -12.689683   -2.670464   -3.323269
     28          6           0      -11.906547   -2.463441   -2.050626
     29          6           0      -14.941687   -1.326729   -3.769397
     30          6           0      -11.804230   -3.286896   -4.494988
     31          6           0      -12.017953   -4.747691   -4.956530
     32          7           0       -9.768821   -1.840288   -0.091020
     33          6           0      -10.011980   -3.088446   -0.571880
     34          6           0       -9.234276   -4.024911    0.110574
     35          6           0       -8.375893   -3.304529    0.929506
     36          6           0       -8.687829   -1.985092    0.716994
     37          6           0       -9.267053   -5.559105   -0.152028
     38          6           0       -7.353482   -3.375328    1.864986
     39          8           0       -6.723232   -4.364510    2.221998
     40          6           0       -6.902866   -1.878350    2.225683
     41          6           0       -7.148081   -1.563675    3.586844
     42          8           0       -8.196400   -1.291700    4.176888
     43          8           0       -5.907358   -1.594294    4.216073
     44          6           0       -5.786714   -1.317077    5.637146
     45          1           0      -10.155410    4.177054    1.232256
     46          1           0      -13.976086    1.113569   -3.166466
     47          1           0      -11.254007   -4.373177   -1.832278
     48          1           0       -6.891627    0.914091    3.046994
     49          1           0       -7.662930    3.497001    1.582703
     50          1           0       -8.087764    2.374804    4.311530
     51          1           0       -9.505208    3.242831    3.661726
     52          1           0       -7.973920    4.078038    3.728975
     53          1           0       -5.998169    2.391362    0.512866
     54          1           0       -6.012149    0.730805    0.486536
     55          1           0       -4.261701    0.615151    1.996906
     56          1           0       -4.971229    1.908123    2.936554
     57          1           0      -12.998237    5.437368    0.544230
     58          1           0      -12.428854    6.113728   -1.036385
     59          1           0      -11.263775    5.725787    0.212039
     60          1           0      -14.739524    3.136324   -4.056072
     61          1           0      -16.029628    4.071898   -3.399228
     62          1           0      -15.638697    2.441094   -2.627271
     63          1           0      -12.951992   -0.755610   -4.488352
     64          1           0      -13.415293   -3.473288   -3.192510
     65          1           0      -15.190407   -0.713665   -4.636280
     66          1           0      -15.452454   -0.982046   -2.869687
     67          1           0      -15.250459   -2.345462   -4.002538
     68          1           0      -10.757530   -3.227524   -4.197015
     69          1           0      -11.919440   -2.753074   -5.438569
     70          1           0      -11.318995   -5.249890   -4.287809
     71          1           0      -11.674223   -4.875142   -5.982215
     72          1           0      -12.947437   -5.266441   -4.722260
     73          1           0       -8.765959   -5.756579   -1.098800
     74          1           0      -10.253741   -6.001701   -0.289990
     75          1           0       -8.741683   -6.100077    0.635503
     76          1           0       -5.857133   -1.805699    1.926513
     77          1           0       -4.944795   -1.903316    6.004092
     78          1           0       -6.702684   -1.443751    6.214866
     79          1           0       -5.449908   -0.285527    5.740900
     80         12           0       10.519425    0.104377   -0.620069
     81          6           0        8.060437    0.857739    1.752792
     82          6           0       10.230879   -3.214101    0.144818
     83          6           0       13.081328   -0.489345   -2.626394
     84          6           0       10.851596    3.618642   -1.182231
     85          7           0        9.295459   -1.022879    0.843824
     86          6           0        8.300764   -0.558730    1.675594
     87          6           0        7.503814   -1.716042    2.248704
     88          6           0        8.414357   -2.966802    1.928718
     89          6           0        9.324996   -2.343661    0.816430
     90          6           0        9.217285   -3.460108    3.125663
     91          6           0        6.026882   -1.669151    1.711721
     92          6           0        5.197233   -2.931909    2.074828
     93          1           0        5.563475   -3.638757    3.363306
     94          7           0       11.471667   -1.559385   -1.158239
     95          6           0       11.294133   -2.845986   -0.665322
     96          6           0       12.260563   -3.792340   -1.249797
     97          6           0       13.066896   -2.970548   -2.096065
     98          6           0       12.551663   -1.609618   -1.971326
     99          6           0       12.240985   -5.248940   -0.972922
    100          6           0       14.230645   -3.432544   -2.934643
    101          8           0       14.862771   -2.644941   -3.691876
    102          6           0       14.643786   -4.879004   -2.968464
    103          7           0       11.758399    1.401764   -1.797071
    104          6           0       12.733525    0.856149   -2.524370
    105          6           0       13.621496    1.991381   -3.200298
    106          6           0       12.907146    3.363342   -2.688074
    107          6           0       11.786017    2.775529   -1.830012
    108          6           0       15.120124    1.808647   -2.722155
    109          6           0       12.283031    4.252091   -3.847278
    110          6           0       13.257966    5.250539   -4.534918
    111          7           0        9.736548    1.879499    0.125973
    112          6           0        9.860962    3.240505   -0.259277
    113          6           0        8.885573    4.092075    0.552331
    114          6           0        8.212488    3.220912    1.402941
    115          6           0        8.715401    1.871069    1.041180
    116          6           0        8.642349    5.564671    0.441829
    117          6           0        7.185473    3.081578    2.408679
    118          8           0        6.467269    3.908184    2.979907
    119          6           0        6.905835    1.504178    2.556163
    120          6           0        6.850353    1.052082    3.997467
    121          8           0        7.813873    0.732378    4.639881
    122          8           0        5.517541    0.827406    4.410181
    123          6           0        5.312685   -0.023455    5.592041
    124          1           0       10.054769   -4.220059    0.532394
    125          1           0       13.936499   -0.690107   -3.275348
    126          1           0       10.970719    4.703302   -1.226646
    127          1           0        7.438542   -1.565349    3.325511
    128          1           0        7.903455   -3.818231    1.477948
    129          1           0        8.945688   -4.508467    3.248353
    130          1           0        9.011401   -2.805292    3.972067
    131          1           0       10.280810   -3.557951    2.909163
    132          1           0        6.185664   -1.347510    0.682903
    133          1           0        5.575740   -0.802295    2.193388
    134          1           0        5.347055   -3.579403    1.210834
    135          1           0        4.150969   -2.636102    2.150498
    136          1           0       13.191453   -5.400907   -0.461726
    137          1           0       12.117562   -5.856041   -1.869352
    138          1           0       11.496567   -5.654773   -0.286712
    139          1           0       13.832772   -5.467733   -3.394929
    140          1           0       14.831494   -5.014183   -1.902563
    141          1           0       15.580147   -5.104591   -3.478045
    142          1           0       13.420667    1.783603   -4.252017
    143          1           0       13.423855    3.945376   -1.923772
    144          1           0       15.274785    0.988095   -2.021741
    145          1           0       15.461984    2.715644   -2.222847
    146          1           0       15.677811    1.535485   -3.617474
    147          1           0       11.324782    4.687286   -3.565054
    148          1           0       12.002210    3.551226   -4.632757
    149          1           0       13.226186    5.032059   -5.601739
    150          1           0       14.238954    5.150643   -4.070210
    151          1           0       12.941020    6.285831   -4.406927
    152          1           0        7.673095    5.674782   -0.044992
    153          1           0        9.441573    6.037493   -0.130225
    154          1           0        8.548773    6.135737    1.365298
    155          1           0        5.962158    1.318786    2.043947
    156          1           0        5.528263    0.625170    6.440689
    157          1           0        5.886522   -0.946610    5.508347
    158          1           0        4.267838   -0.331542    5.564451
 ---------------------------------------------------------------------

 SCF Done:  E(RPBE1PBE) =  -4067.36847693     A.U. after   16 cycles

 Excitation energies and oscillator strengths:

 Excited State   1:      Singlet-A      1.5914 eV  779.09 nm  f=0.0000  <S**2>=0.000
     312 -> 313        0.70709
 This state for optimization and/or second-order correction.
 Total Energy, E(TD-HF/TD-DFT) =  -4067.30999406
 Copying the excited state density for this state as the 1-particle RhoCI density.

 Excited State   2:      Singlet-A      1.8601 eV  666.54 nm  f=0.2151  <S**2>=0.000
     309 -> 315        0.17127
     311 -> 313        0.66690
     312 -> 314       -0.18495
     311 <- 313       -0.10622

 Excited State   3:      Singlet-A      1.8619 eV  665.90 nm  f=0.5428  <S**2>=0.000
     310 -> 316       -0.18423
     311 -> 313        0.18594
     312 -> 314        0.66285

 Excited State   4:      Singlet-A      2.2168 eV  559.30 nm  f=0.0000  <S**2>=0.000
     311 -> 314        0.70708

 Excited State   5:      Singlet-A      2.2360 eV  554.49 nm  f=0.0971  <S**2>=0.000
     309 -> 313        0.64820
     311 -> 315       -0.26549

 The electronic state is 1-A.
 Alpha  occ. eigenvalues --  -46.93080 -46.91478 -19.25294 -19.24615 -19.20448
 Alpha  occ. eigenvalues --  -19.20366 -19.19547 -19.19401 -19.18613 -19.18574
 Alpha  occ. eigenvalues --  -14.41890 -14.41578 -14.41521 -14.41120 -14.39631
 Alpha  occ. eigenvalues --  -14.39500 -14.39482 -14.38899 -10.36544 -10.36393
 Alpha  occ. eigenvalues --  -10.32672 -10.32392 -10.32318 -10.31795 -10.29283
 Alpha  occ. eigenvalues --  -10.29159 -10.29061 -10.28949 -10.28890 -10.28806
 Alpha  occ. eigenvalues --  -10.28746 -10.28644 -10.28570 -10.28436 -10.28058
 Alpha  occ. eigenvalues --  -10.28056 -10.27895 -10.27734 -10.27499 -10.27269
 Alpha  occ. eigenvalues --  -10.27137 -10.27071 -10.26838 -10.26747 -10.26359
 Alpha  occ. eigenvalues --  -10.26274 -10.26227 -10.26169 -10.26158 -10.26157
 Alpha  occ. eigenvalues --  -10.26140 -10.26098 -10.25995 -10.25981 -10.25979
 Alpha  occ. eigenvalues --  -10.25926 -10.25678 -10.25557 -10.25490 -10.25477
 Alpha  occ. eigenvalues --  -10.25475 -10.25214 -10.25083 -10.24935 -10.24733
 Alpha  occ. eigenvalues --  -10.24643 -10.24490 -10.24449 -10.24384 -10.24378
 Alpha  occ. eigenvalues --  -10.24334 -10.24124 -10.23993 -10.23750 -10.23668
 Alpha  occ. eigenvalues --  -10.23629 -10.23623 -10.23389 -10.23362 -10.23293
 Alpha  occ. eigenvalues --  -10.23203 -10.23065 -10.22870 -10.22839 -10.22558
 Alpha  occ. eigenvalues --  -10.22396  -3.14989  -3.13736  -1.87842  -1.87357
 Alpha  occ. eigenvalues --   -1.87204  -1.86583  -1.86096  -1.85990  -1.10460
 Alpha  occ. eigenvalues --   -1.10173  -1.04828  -1.04763  -1.03839  -1.02580
 Alpha  occ. eigenvalues --   -1.02435  -1.02293  -1.00216  -0.98904  -0.98721
 Alpha  occ. eigenvalues --   -0.98501  -0.98081  -0.97432  -0.97326  -0.96058
 Alpha  occ. eigenvalues --   -0.88300  -0.85935  -0.83830  -0.83380  -0.83142
 Alpha  occ. eigenvalues --   -0.82796  -0.82714  -0.82260  -0.82087  -0.81849
 Alpha  occ. eigenvalues --   -0.81262  -0.81033  -0.80647  -0.80568  -0.79739
 Alpha  occ. eigenvalues --   -0.78916  -0.78478  -0.77346  -0.77223  -0.76479
 Alpha  occ. eigenvalues --   -0.76301  -0.76161  -0.75848  -0.75106  -0.75029
 Alpha  occ. eigenvalues --   -0.74315  -0.73193  -0.72547  -0.71953  -0.71749
 Alpha  occ. eigenvalues --   -0.71249  -0.70886  -0.70799  -0.70057  -0.69546
 Alpha  occ. eigenvalues --   -0.68891  -0.67956  -0.66889  -0.66511  -0.65891
 Alpha  occ. eigenvalues --   -0.64348  -0.63686  -0.63680  -0.62969  -0.62756
 Alpha  occ. eigenvalues --   -0.62554  -0.61771  -0.61467  -0.60576  -0.60338
 Alpha  occ. eigenvalues --   -0.60075  -0.59923  -0.59629  -0.59441  -0.58446
 Alpha  occ. eigenvalues --   -0.58262  -0.57266  -0.55833  -0.55174  -0.55075
 Alpha  occ. eigenvalues --   -0.54533  -0.54047  -0.53721  -0.53536  -0.53243
 Alpha  occ. eigenvalues --   -0.52840  -0.52636  -0.52180  -0.52163  -0.51343
 Alpha  occ. eigenvalues --   -0.50958  -0.50734  -0.50682  -0.50289  -0.50108
 Alpha  occ. eigenvalues --   -0.49394  -0.49142  -0.48945  -0.48707  -0.48455
 Alpha  occ. eigenvalues --   -0.48250  -0.47992  -0.47951  -0.47832  -0.47185
 Alpha  occ. eigenvalues --   -0.47128  -0.46921  -0.46768  -0.46744  -0.46537
 Alpha  occ. eigenvalues --   -0.46481  -0.46371  -0.46332  -0.46127  -0.45952
 Alpha  occ. eigenvalues --   -0.45843  -0.45724  -0.45330  -0.45029  -0.45024
 Alpha  occ. eigenvalues --   -0.44734  -0.44573  -0.44568  -0.44259  -0.44100
 Alpha  occ. eigenvalues --   -0.44079  -0.44017  -0.43868  -0.43732  -0.43688
 Alpha  occ. eigenvalues --   -0.43623  -0.43508  -0.43142  -0.43045  -0.42954
 Alpha  occ. eigenvalues --   -0.42765  -0.42676  -0.42231  -0.42003  -0.41621
 Alpha  occ. eigenvalues --   -0.41531  -0.41513  -0.41435  -0.41359  -0.40909
 Alpha  occ. eigenvalues --   -0.40849  -0.40746  -0.40696  -0.40555  -0.40441
 Alpha  occ. eigenvalues --   -0.40310  -0.40232  -0.40105  -0.39968  -0.39847
 Alpha  occ. eigenvalues --   -0.39813  -0.39644  -0.39498  -0.39415  -0.39314
 Alpha  occ. eigenvalues --   -0.38952  -0.38787  -0.38713  -0.38477  -0.38287
 Alpha  occ. eigenvalues --   -0.38285  -0.37984  -0.37955  -0.37808  -0.37803
 Alpha  occ. eigenvalues --   -0.37703  -0.37454  -0.37159  -0.37061  -0.37012
 Alpha  occ. eigenvalues --   -0.36888  -0.36816  -0.36684  -0.36403  -0.36252
 Alpha  occ. eigenvalues --   -0.36053  -0.35895  -0.35738  -0.35267  -0.35231
 Alpha  occ. eigenvalues --   -0.35049  -0.34645  -0.34099  -0.34036  -0.33418
 Alpha  occ. eigenvalues --   -0.33250  -0.33235  -0.33188  -0.32985  -0.32983
 Alpha  occ. eigenvalues --   -0.32427  -0.32242  -0.31735  -0.31179  -0.31177
 Alpha  occ. eigenvalues --   -0.30908  -0.30697  -0.29826  -0.29582  -0.29373
 Alpha  occ. eigenvalues --   -0.29345  -0.29055  -0.28674  -0.27458  -0.26821
 Alpha  occ. eigenvalues --   -0.26445  -0.26374  -0.25952  -0.25747  -0.25580
 Alpha  occ. eigenvalues --   -0.25509  -0.25179  -0.25103  -0.21523  -0.20870
 Alpha  occ. eigenvalues --   -0.19228  -0.18142
 Alpha virt. eigenvalues --   -0.11667  -0.10462  -0.05780  -0.05521  -0.04425
 Alpha virt. eigenvalues --   -0.04390  -0.02176  -0.02116  -0.00449  -0.00226
 Alpha virt. eigenvalues --   -0.00175   0.00518   0.00635   0.01146   0.01381

 Mulliken charges:
               1
     1  Mg  12.000000
     2  C    6.000000
     3  C    6.000000
     4  C    6.000000
     5  C    6.000000
     6  N    7.000000
     7  C    6.000000
     8  C    6.000000
     9  C    6.000000
    10  C    6.000000
    11  C    6.000000
    12  C    6.000000
    13  C    6.000000
    14  H    1.000000
    15  N    7.000000
    16  C    6.000000
    17  C    6.000000
    18  C    6.000000
    19  C    6.000000
    20  C    6.000000
    21  C    6.000000
    22  O    8.000000
    23  C    6.000000
    24  N    7.000000
    25  C    6.000000
    26  C    6.000000
    27  C    6.000000
    28  C    6.000000
    29  C    6.000000
    30  C    6.000000
    31  C    6.000000
    32  N    7.000000
    33  C    6.000000
    34  C    6.000000
    35  C    6.000000
    36  C    6.000000
    37  C    6.000000
    38  C    6.000000
    39  O    8.000000
    40  C    6.000000
    41  C    6.000000
    42  O    8.000000
    43  O    8.000000
    44  C    6.000000
    45  H    1.000000
    46  H    1.000000
    47  H    1.000000
    48  H    1.000000
    49  H    1.000000
    50  H    1.000000
    51  H    1.000000
    52  H    1.000000
    53  H    1.000000
    54  H    1.000000
    55  H    1.000000
    56  H    1.000000
    57  H    1.000000
    58  H    1.000000
    59  H    1.000000
    60  H    1.000000
    61  H    1.000000
    62  H    1.000000
    63  H    1.000000
    64  H    1.000000
    65  H    1.000000
    66  H    1.000000
    67  H    1.000000
    68  H    1.000000
    69  H    1.000000
    70  H    1.000000
    71  H    1.000000
    72  H    1.000000
    73  H    1.000000
    74  H    1.000000
    75  H    1.000000
    76  H    1.000000
    77  H    1.000000
    78  H    1.000000
    79  H    1.000000
    80  Mg  12.000000
    81  C    6.000000
    82  C    6.000000
    83  C    6.000000
    84  C    6.000000
    85  N    7.000000
    86  C    6.000000
    87  C    6.000000
    88  C    6.000000
    89  C    6.000000
    90  C    6.000000
    91  C    6.000000
    92  C    6.000000
    93  H    1.000000
    94  N    7.000000
    95  C    6.000000
    96  C    6.000000
    97  C    6.000000
    98  C    6.000000
    99  C    6.000000
   100  C    6.000000
   101  O    8.000000
   102  C    6.000000
   103  N    7.000000
   104  C    6.000000
   105  C    6.000000
   106  C    6.000000
   107  C    6.000000
   108  C    6.000000
   109  C    6.000000
   110  C    6.000000
   111  N    7.000000
   112  C    6.000000
   113  C    6.000000
   114  C    6.000000
   115  C    6.000000
   116  C    6.000000
   117  C    6.000000
   118  O    8.000000
   119  C    6.000000
   120  C    6.000000
   121  O    8.000000
   122  O    8.000000
   123  C    6.000000
   124  H    1.000000
   125  H    1.000000
   126  H    1.000000
   127  H    1.000000
   128  H    1.000000
   129  H    1.000000
   130  H    1.000000
   131  H    1.000000
   132  H    1.000000
   133  H    1.000000
   134  H    1.000000
   135  H    1.000000
   136  H    1.000000
   137  H    1.000000
   138  H    1.000000
   139  H    1.000000
   140  H    1.000000
   141  H    1.000000
   142  H    1.000000
   143  H    1.000000
   144  H    1.000000
   145  H    1.000000
   146  H    1.000000
   147  H    1.000000
   148  H    1.000000
   149  H    1.000000
   150  H    1.000000
   151  H    1.000000
   152  H    1.000000
   153  H    1.000000
   154  H    1.000000
   155  H    1.000000
   156  H    1.000000
   157  H    1.000000
   158  H    1.000000
 Sum of Mulliken charges = 624.00000

 Dipole moment (field-independent basis, Debye):
    X=             -0.0000    Y=             -0.0000    Z=              0.0000  Tot=              0.0000
 Quadrupole moment (field-independent basis, Debye-Ang):
   XX=             -0.0000   YY=              0.0000   ZZ=              0.0000
   XY=             -0.0000   XZ=              0.0000   YZ=             -0.0000

 Normal termination of Gaussian 16 at Thu Oct 14 10:11:06 2021.
