 Gaussian 16, Revision A.03,
 Gaussian 16:  ES64L-G16RevA.03 25-Dec-2016

 --------------------------------------------------------
 #p PBE1PBE/Def2SVP td=(nstates=5) density=(transition=1)
 --------------------------------------------------------

 --------------------------------
 TDDFT excited states in gaussian
 --------------------------------
 Symbolic Z-matrix:
 Charge =  0 Multiplicity = 1

                         Standard orientation:
 ---------------------------------------------------------------------
 Center     Atomic      Atomic             Coordinates (Angstroms)
 Number     Number       Type             X           Y           Z
 ---------------------------------------------------------------------
      1         12           0      -19.438652    0.065148   -0.369825
      2          6           0      -16.878098   -1.066327    1.556007
      3          6           0      -19.884192    2.919063    1.516902
      4          6           0      -22.118681    0.898273   -2.331128
      5          6           0      -19.363071   -3.082657   -2.152098
      6          7           0      -18.620943    0.708746    1.446870
      7          6           0      -17.372196    0.212706    1.951312
      8          6           0      -16.780557    1.158186    2.918665
      9          6           0      -17.988052    2.175433    3.140854
     10          6           0      -18.926966    1.954372    1.975880
     11          6           0      -18.752656    1.955276    4.540533
     12          6           0      -15.388743    1.729052    2.506910
     13          6           0      -14.361989    1.751994    3.593058
     14          1           0      -14.878664    2.159136    5.029082
     15          7           0      -20.768881    1.725650   -0.445934
     16          6           0      -20.748860    2.752831    0.450093
     17          6           0      -21.767613    3.670841    0.071098
     18          6           0      -22.413623    3.169953   -1.125983
     19          6           0      -21.724558    1.871652   -1.431703
     20          6           0      -22.115355    4.911104    0.923059
     21          6           0      -23.493585    3.711846   -2.009375
     22          8           0      -24.058234    3.159419   -2.960193
     23          6           0      -23.921982    5.197668   -1.707322
     24          7           0      -20.686305   -1.007018   -1.984191
     25          6           0      -21.630020   -0.400139   -2.659921
     26          6           0      -22.042038   -1.174960   -3.909933
     27          6           0      -21.148181   -2.445656   -3.834126
     28          6           0      -20.346476   -2.184336   -2.560552
     29          6           0      -23.615068   -1.526371   -3.964366
     30          6           0      -20.230153   -2.503978   -5.133759
     31          6           0      -19.121050   -1.450581   -5.376160
     32          7           0      -18.458115   -1.791698   -0.221925
     33          6           0      -18.503913   -2.907955   -1.035611
     34          6           0      -17.406135   -3.790992   -0.591856
     35          6           0      -16.706276   -3.168215    0.397532
     36          6           0      -17.411071   -1.924445    0.587149
     37          6           0      -17.225575   -5.195504   -1.055030
     38          6           0      -15.583157   -3.241724    1.331719
     39          8           0      -14.757097   -4.117297    1.527753
     40          6           0      -15.682030   -1.861567    2.118323
     41          6           0      -15.942679   -2.186542    3.535402
     42          8           0      -16.871847   -2.864984    4.006926
     43          8           0      -14.910513   -1.572205    4.215163
     44          6           0      -15.048072   -1.594684    5.677291
     45          1           0      -20.022896    3.858542    2.055694
     46          1           0      -22.902468    1.280543   -2.989393
     47          1           0      -19.274290   -4.004970   -2.728865
     48          1           0      -16.615996    0.557984    3.814426
     49          1           0      -17.585882    3.186792    3.089971
     50          1           0      -18.203380    1.330626    5.244955
     51          1           0      -19.629917    1.350706    4.310725
     52          1           0      -19.005302    2.968386    4.850624
     53          1           0      -15.502703    2.753755    2.153102
     54          1           0      -15.075120    1.044008    1.719346
     55          1           0      -13.580167    2.491665    3.425140
     56          1           0      -13.733018    0.886712    3.802759
     57          1           0      -21.424838    5.750656    0.843671
     58          1           0      -22.186073    4.489421    1.925560
     59          1           0      -23.034973    5.401593    0.604683
     60          1           0      -24.506100    5.216334   -0.787202
     61          1           0      -24.345783    5.616525   -2.619856
     62          1           0      -23.079690    5.880198   -1.592354
     63          1           0      -21.760749   -0.590975   -4.785931
     64          1           0      -21.714324   -3.376017   -3.788366
     65          1           0      -24.042581   -0.858917   -4.713449
     66          1           0      -24.080051   -1.317930   -3.000264
     67          1           0      -23.936152   -2.520726   -4.271997
     68          1           0      -20.771021   -2.563022   -6.078118
     69          1           0      -19.693525   -3.437767   -4.962797
     70          1           0      -18.212893   -2.051721   -5.329532
     71          1           0      -19.144832   -0.639525   -4.649418
     72          1           0      -19.182396   -0.959682   -6.347397
     73          1           0      -16.143638   -5.318856   -1.018298
     74          1           0      -17.625055   -5.367617   -2.054651
     75          1           0      -17.546749   -5.846292   -0.242802
     76          1           0      -14.651218   -1.525662    2.008799
     77          1           0      -14.095232   -1.174692    6.000779
     78          1           0      -15.068482   -2.647888    5.957385
     79          1           0      -15.959998   -1.148902    6.075029
     80         12           0       19.316960   -0.328663    0.341190
     81          6           0       17.964733    2.692024   -0.442866
     82          6           0       16.060050   -1.512517    1.047954
     83          6           0       20.487884   -3.442924    0.050498
     84          6           0       22.508836    0.799472   -0.916529
     85          7           0       17.317519    0.527622    0.317055
     86          6           0       16.945836    1.717651   -0.021178
     87          6           0       15.451751    2.030035    0.346597
     88          6           0       14.948434    0.738744    1.097204
     89          6           0       16.189700   -0.189337    0.862289
     90          6           0       14.412512    0.941698    2.515101
     91          6           0       14.571409    2.480346   -0.964559
     92          6           0       15.048428    2.056666   -2.344309
     93          1           0       14.085615    2.049914   -3.531666
     94          7           0       18.384605   -2.212196    0.518196
     95          6           0       17.088210   -2.498517    0.872834
     96          6           0       16.894756   -3.883422    0.871360
     97          6           0       18.161395   -4.503926    0.542652
     98          6           0       19.094776   -3.370607    0.308904
     99          6           0       15.587787   -4.487682    1.351059
    100          6           0       18.383102   -6.024964    0.458332
    101          8           0       17.403719   -6.770027    0.686562
    102          6           0       19.621126   -6.673847    0.136321
    103          7           0       21.242933   -1.238793   -0.510691
    104          6           0       21.450528   -2.505966   -0.290631
    105          6           0       22.917061   -2.940195   -0.572588
    106          6           0       23.588630   -1.574200   -0.833416
    107          6           0       22.405341   -0.527739   -0.744004
    108          6           0       23.572660   -3.665546    0.546681
    109          6           0       24.385513   -1.528216   -2.221336
    110          6           0       25.963800   -1.442847   -2.117276
    111          7           0       20.178913    1.388938   -0.404889
    112          6           0       21.461017    1.745140   -0.841609
    113          6           0       21.454349    3.195986   -1.206819
    114          6           0       20.102683    3.551975   -1.096496
    115          6           0       19.352728    2.427129   -0.641326
    116          6           0       22.551956    4.036832   -1.645402
    117          6           0       19.256929    4.631109   -1.329804
    118          8           0       19.438239    5.797107   -1.710083
    119          6           0       17.857504    4.167428   -0.834729
    120          6           0       17.377981    5.160422    0.250583
    121          8           0       16.326340    5.776615    0.280629
    122          8           0       18.298411    5.305995    1.265925
    123          6           0       17.980207    6.252351    2.341753
    124          1           0       15.015844   -1.794774    1.196626
    125          1           0       20.967579   -4.422605    0.097020
    126          1           0       23.513699    1.169439   -1.130094
    127          1           0       15.485583    2.787288    1.130330
    128          1           0       14.157604    0.226405    0.548421
    129          1           0       15.066419    0.441035    3.228868
    130          1           0       13.417731    0.513979    2.645142
    131          1           0       14.266378    1.977386    2.821983
    132          1           0       14.523073    3.560346   -0.823415
    133          1           0       13.556936    2.082878   -1.002334
    134          1           0       15.418044    1.045983   -2.173062
    135          1           0       15.921355    2.677922   -2.545461
    136          1           0       15.590803   -5.207971    2.169565
    137          1           0       15.057520   -4.894944    0.489895
    138          1           0       14.934794   -3.686074    1.695668
    139          1           0       20.469041   -6.511912    0.801606
    140          1           0       20.031653   -6.268644   -0.788000
    141          1           0       19.515436   -7.736882   -0.077960
    142          1           0       23.111155   -3.614903   -1.406271
    143          1           0       24.240410   -1.252811   -0.020928
    144          1           0       23.676368   -4.740784    0.401888
    145          1           0       22.934232   -3.665330    1.430871
    146          1           0       24.553938   -3.236632    0.749071
    147          1           0       24.110172   -0.606251   -2.735253
    148          1           0       24.252880   -2.410249   -2.846395
    149          1           0       26.414203   -2.156955   -2.805545
    150          1           0       26.252642   -1.803047   -1.129808
    151          1           0       26.210480   -0.435142   -2.452123
    152          1           0       23.425943    3.620825   -1.143671
    153          1           0       22.401718    5.066654   -1.319396
    154          1           0       22.529879    4.021472   -2.734669
    155          1           0       17.058460    4.381019   -1.544290
    156          1           0       18.915160    6.579031    2.797389
    157          1           0       17.396955    5.891733    3.188871
    158          1           0       17.374866    7.099596    2.018177
 ---------------------------------------------------------------------

 SCF Done:  E(RPBE1PBE) =  -4067.34017553     A.U. after   19 cycles

 Excitation energies and oscillator strengths:

 Excited State   1:      Singlet-A      1.7338 eV  715.09 nm  f=0.0000  <S**2>=0.000
     312 -> 313        0.70711
 This state for optimization and/or second-order correction.
 Total Energy, E(TD-HF/TD-DFT) =  -4067.27645865
 Copying the excited state density for this state as the 1-particle RhoCI density.

 Excited State   2:      Singlet-A      1.8382 eV  674.50 nm  f=0.3549  <S**2>=0.000
     310 -> 315        0.17951
     312 -> 314        0.69130
     312 <- 314       -0.10357

 Excited State   3:      Singlet-A      1.8537 eV  668.85 nm  f=0.4365  <S**2>=0.000
     309 -> 316        0.15870
     311 -> 313        0.69654
     311 <- 313       -0.12229

 Excited State   4:      Singlet-A      2.1567 eV  574.87 nm  f=0.0000  <S**2>=0.000
     311 -> 314        0.70710

 Excited State   5:      Singlet-A      2.2557 eV  549.64 nm  f=0.0515  <S**2>=0.000
     310 -> 314        0.62864
     312 -> 315       -0.31574

 The electronic state is 1-A.
 Alpha  occ. eigenvalues --  -46.93718 -46.92638 -19.26353 -19.25491 -19.20551
 Alpha  occ. eigenvalues --  -19.20321 -19.19936 -19.19546 -19.19025 -19.17866
 Alpha  occ. eigenvalues --  -14.42704 -14.41968 -14.41573 -14.41410 -14.40117
 Alpha  occ. eigenvalues --  -14.39608 -14.39221 -14.39080 -10.36743 -10.36600
 Alpha  occ. eigenvalues --  -10.32708 -10.32663 -10.31655 -10.31595 -10.30556
 Alpha  occ. eigenvalues --  -10.29634 -10.29585 -10.29263 -10.29083 -10.28871
 Alpha  occ. eigenvalues --  -10.28695 -10.28691 -10.28599 -10.28577 -10.28506
 Alpha  occ. eigenvalues --  -10.28107 -10.27918 -10.27843 -10.27604 -10.27335
 Alpha  occ. eigenvalues --  -10.27137 -10.27077 -10.27050 -10.26975 -10.26728
 Alpha  occ. eigenvalues --  -10.26646 -10.26582 -10.26336 -10.26308 -10.26303
 Alpha  occ. eigenvalues --  -10.26168 -10.26152 -10.25875 -10.25860 -10.25745
 Alpha  occ. eigenvalues --  -10.25571 -10.25554 -10.25420 -10.25388 -10.25373
 Alpha  occ. eigenvalues --  -10.25176 -10.25080 -10.25067 -10.25049 -10.24965
 Alpha  occ. eigenvalues --  -10.24816 -10.24814 -10.24803 -10.24767 -10.24728
 Alpha  occ. eigenvalues --  -10.24403 -10.24217 -10.24133 -10.24078 -10.23939
 Alpha  occ. eigenvalues --  -10.23721 -10.23587 -10.23530 -10.23334 -10.23120
 Alpha  occ. eigenvalues --  -10.23085 -10.23084 -10.23003 -10.22938 -10.22657
 Alpha  occ. eigenvalues --  -10.22567  -3.15707  -3.14627  -1.88523  -1.88114
 Alpha  occ. eigenvalues --   -1.87895  -1.87470  -1.86990  -1.86849  -1.10862
 Alpha  occ. eigenvalues --   -1.10770  -1.05089  -1.04153  -1.03605  -1.02531
 Alpha  occ. eigenvalues --   -1.02325  -1.02152  -0.99766  -0.99604  -0.99122
 Alpha  occ. eigenvalues --   -0.98592  -0.98207  -0.97435  -0.97131  -0.96316
 Alpha  occ. eigenvalues --   -0.87244  -0.86822  -0.84037  -0.83738  -0.83401
 Alpha  occ. eigenvalues --   -0.83335  -0.83097  -0.82461  -0.82298  -0.82101
 Alpha  occ. eigenvalues --   -0.81713  -0.81252  -0.80399  -0.79761  -0.79013
 Alpha  occ. eigenvalues --   -0.78946  -0.78432  -0.77678  -0.77230  -0.76826
 Alpha  occ. eigenvalues --   -0.76683  -0.75878  -0.75693  -0.75482  -0.74567
 Alpha  occ. eigenvalues --   -0.74131  -0.72856  -0.72342  -0.71716  -0.71676
 Alpha  occ. eigenvalues --   -0.71473  -0.71265  -0.70657  -0.70152  -0.69719
 Alpha  occ. eigenvalues --   -0.69309  -0.67850  -0.66939  -0.66651  -0.66441
 Alpha  occ. eigenvalues --   -0.64183  -0.63984  -0.63650  -0.63279  -0.62842
 Alpha  occ. eigenvalues --   -0.62764  -0.61833  -0.61385  -0.60424  -0.60156
 Alpha  occ. eigenvalues --   -0.59813  -0.59475  -0.59373  -0.59223  -0.59118
 Alpha  occ. eigenvalues --   -0.58941  -0.57846  -0.57124  -0.55411  -0.54828
 Alpha  occ. eigenvalues --   -0.54589  -0.53997  -0.53591  -0.53499  -0.53382
 Alpha  occ. eigenvalues --   -0.53173  -0.52674  -0.52505  -0.52113  -0.51702
 Alpha  occ. eigenvalues --   -0.51027  -0.50556  -0.50267  -0.50094  -0.49993
 Alpha  occ. eigenvalues --   -0.49528  -0.49450  -0.49298  -0.49031  -0.48973
 Alpha  occ. eigenvalues --   -0.48429  -0.48123  -0.48054  -0.47928  -0.47778
 Alpha  occ. eigenvalues --   -0.47674  -0.47502  -0.47130  -0.46980  -0.46915
 Alpha  occ. eigenvalues --   -0.46742  -0.46478  -0.46314  -0.46215  -0.46107
 Alpha  occ. eigenvalues --   -0.45725  -0.45650  -0.45556  -0.45403  -0.45314
 Alpha  occ. eigenvalues --   -0.44855  -0.44534  -0.44516  -0.44284  -0.44196
 Alpha  occ. eigenvalues --   -0.43963  -0.43883  -0.43674  -0.43476  -0.43438
 Alpha  occ. eigenvalues --   -0.43284  -0.43260  -0.43202  -0.43115  -0.43024
 Alpha  occ. eigenvalues --   -0.42758  -0.42400  -0.42341  -0.42110  -0.42086
 Alpha  occ. eigenvalues --   -0.42002  -0.41911  -0.41603  -0.41561  -0.41382
 Alpha  occ. eigenvalues --   -0.41339  -0.41010  -0.40879  -0.40683  -0.40602
 Alpha  occ. eigenvalues --   -0.40501  -0.40312  -0.40077  -0.39943  -0.39843
 Alpha  occ. eigenvalues --   -0.39595  -0.39499  -0.39334  -0.39301  -0.39159
 Alpha  occ. eigenvalues --   -0.38748  -0.38571  -0.38508  -0.38250  -0.38014
 Alpha  occ. eigenvalues --   -0.37739  -0.37683  -0.37650  -0.37616  -0.37485
 Alpha  occ. eigenvalues --   -0.37204  -0.37093  -0.37062  -0.36886  -0.36859
 Alpha  occ. eigenvalues --   -0.36856  -0.36758  -0.36502  -0.36427  -0.36365
 Alpha  occ. eigenvalues --   -0.35836  -0.35714  -0.35664  -0.35580  -0.35367
 Alpha  occ. eigenvalues --   -0.34997  -0.34755  -0.34730  -0.34476  -0.34026
 Alpha  occ. eigenvalues --   -0.33605  -0.33049  -0.32893  -0.32857  -0.32522
 Alpha  occ. eigenvalues --   -0.32148  -0.31851  -0.31735  -0.31588  -0.31476
 Alpha  occ. eigenvalues --   -0.31377  -0.31316  -0.29792  -0.29640  -0.29631
 Alpha  occ. eigenvalues --   -0.29380  -0.29305  -0.29016  -0.27157  -0.26874
 Alpha  occ. eigenvalues --   -0.26396  -0.26333  -0.25946  -0.25869  -0.25653
 Alpha  occ. eigenvalues --   -0.25434  -0.25057  -0.24846  -0.21814  -0.21296
 Alpha  occ. eigenvalues --   -0.19329  -0.18661
 Alpha virt. eigenvalues --   -0.11948  -0.11062  -0.05790  -0.05440  -0.04449
 Alpha virt. eigenvalues --   -0.04202  -0.02371  -0.02271  -0.02049  -0.00863
 Alpha virt. eigenvalues --    0.00072   0.00471   0.00806   0.00831   0.01045

 Mulliken charges:
               1
     1  Mg  12.000000
     2  C    6.000000
     3  C    6.000000
     4  C    6.000000
     5  C    6.000000
     6  N    7.000000
     7  C    6.000000
     8  C    6.000000
     9  C    6.000000
    10  C    6.000000
    11  C    6.000000
    12  C    6.000000
    13  C    6.000000
    14  H    1.000000
    15  N    7.000000
    16  C    6.000000
    17  C    6.000000
    18  C    6.000000
    19  C    6.000000
    20  C    6.000000
    21  C    6.000000
    22  O    8.000000
    23  C    6.000000
    24  N    7.000000
    25  C    6.000000
    26  C    6.000000
    27  C    6.000000
    28  C    6.000000
    29  C    6.000000
    30  C    6.000000
    31  C    6.000000
    32  N    7.000000
    33  C    6.000000
    34  C    6.000000
    35  C    6.000000
    36  C    6.000000
    37  C    6.000000
    38  C    6.000000
    39  O    8.000000
    40  C    6.000000
    41  C    6.000000
    42  O    8.000000
    43  O    8.000000
    44  C    6.000000
    45  H    1.000000
    46  H    1.000000
    47  H    1.000000
    48  H    1.000000
    49  H    1.000000
    50  H    1.000000
    51  H    1.000000
    52  H    1.000000
    53  H    1.000000
    54  H    1.000000
    55  H    1.000000
    56  H    1.000000
    57  H    1.000000
    58  H    1.000000
    59  H    1.000000
    60  H    1.000000
    61  H    1.000000
    62  H    1.000000
    63  H    1.000000
    64  H    1.000000
    65  H    1.000000
    66  H    1.000000
    67  H    1.000000
    68  H    1.000000
    69  H    1.000000
    70  H    1.000000
    71  H    1.000000
    72  H    1.000000
    73  H    1.000000
    74  H    1.000000
    75  H    1.000000
    76  H    1.000000
    77  H    1.000000
    78  H    1.000000
    79  H    1.000000
    80  Mg  12.000000
    81  C    6.000000
    82  C    6.000000
    83  C    6.000000
    84  C    6.000000
    85  N    7.000000
    86  C    6.000000
    87  C    6.000000
    88  C    6.000000
    89  C    6.000000
    90  C    6.000000
    91  C    6.000000
    92  C    6.000000
    93  H    1.000000
    94  N    7.000000
    95  C    6.000000
    96  C    6.000000
    97  C    6.000000
    98  C    6.000000
    99  C    6.000000
   100  C    6.000000
   101  O    8.000000
   102  C    6.000000
   103  N    7.000000
   104  C    6.000000
   105  C    6.000000
   106  C    6.000000
   107  C    6.000000
   108  C    6.000000
   109  C    6.000000
   110  C    6.000000
   111  N    7.000000
   112  C    6.000000
   113  C    6.000000
   114  C    6.000000
   115  C    6.000000
   116  C    6.000000
   117  C    6.000000
   118  O    8.000000
   119  C    6.000000
   120  C    6.000000
   121  O    8.000000
   122  O    8.000000
   123  C    6.000000
   124  H    1.000000
   125  H    1.000000
   126  H    1.000000
   127  H    1.000000
   128  H    1.000000
   129  H    1.000000
   130  H    1.000000
   131  H    1.000000
   132  H    1.000000
   133  H    1.000000
   134  H    1.000000
   135  H    1.000000
   136  H    1.000000
   137  H    1.000000
   138  H    1.000000
   139  H    1.000000
   140  H    1.000000
   141  H    1.000000
   142  H    1.000000
   143  H    1.000000
   144  H    1.000000
   145  H    1.000000
   146  H    1.000000
   147  H    1.000000
   148  H    1.000000
   149  H    1.000000
   150  H    1.000000
   151  H    1.000000
   152  H    1.000000
   153  H    1.000000
   154  H    1.000000
   155  H    1.000000
   156  H    1.000000
   157  H    1.000000
   158  H    1.000000
 Sum of Mulliken charges = 624.00000

 Dipole moment (field-independent basis, Debye):
    X=              0.0000    Y=             -0.0000    Z=              0.0000  Tot=              0.0000
 Quadrupole moment (field-independent basis, Debye-Ang):
   XX=             -0.0000   YY=              0.0000   ZZ=             -0.0000
   XY=              0.0000   XZ=              0.0000   YZ=              0.0000

 Normal termination of Gaussian 16 at Wed Oct 13 20:44:13 2021.
