 Gaussian 16, Revision A.03,
 Gaussian 16:  ES64L-G16RevA.03 25-Dec-2016

 --------------------------------------------------------
 #p PBE1PBE/Def2SVP td=(nstates=5) density=(transition=1)
 --------------------------------------------------------

 --------------------------------
 TDDFT excited states in gaussian
 --------------------------------
 Symbolic Z-matrix:
 Charge =  0 Multiplicity = 1

                         Standard orientation:
 ---------------------------------------------------------------------
 Center     Atomic      Atomic             Coordinates (Angstroms)
 Number     Number       Type             X           Y           Z
 ---------------------------------------------------------------------
      1         12           0       -0.730856    0.076575    0.030670
      2          6           0        2.732108    0.174729    0.237107
      3          6           0       -0.638841   -3.288268   -0.177871
      4          6           0       -4.057382    0.123100   -0.339392
      5          6           0       -0.711987    3.577709    0.091323
      6          7           0        0.930772   -1.345794    0.067237
      7          6           0        2.210905   -1.123396    0.246267
      8          6           0        2.944421   -2.542403    0.289192
      9          6           0        1.970491   -3.311874   -0.577891
     10          6           0        0.617434   -2.637377   -0.185951
     11          6           0        2.379138   -3.209054   -2.063201
     12          6           0        3.243979   -2.973622    1.789050
     13          6           0        4.333269   -4.039850    1.940624
     14          1           0        4.843774   -4.746765    0.696903
     15          7           0       -2.148174   -1.365456   -0.042183
     16          6           0       -1.896782   -2.735463   -0.037849
     17          6           0       -3.208129   -3.432455    0.122556
     18          6           0       -4.257212   -2.423899    0.009600
     19          6           0       -3.462118   -1.186281   -0.208476
     20          6           0       -3.324098   -4.928766    0.292366
     21          6           0       -5.846850   -2.535097    0.131891
     22          8           0       -6.607857   -1.562643    0.086215
     23          6           0       -6.412171   -3.925628    0.332998
     24          7           0       -2.130487    1.581118   -0.212718
     25          6           0       -3.434644    1.365268   -0.362135
     26          6           0       -4.239346    2.676963   -0.617519
     27          6           0       -3.182185    3.719929   -0.227429
     28          6           0       -1.922509    2.933915   -0.041187
     29          6           0       -4.791906    2.828931   -2.062259
     30          6           0       -3.536405    4.766188    0.920918
     31          6           0       -2.933200    4.540016    2.268222
     32          7           0        0.685682    1.610470   -0.067761
     33          6           0        0.562935    2.955622    0.029259
     34          6           0        1.809732    3.633849    0.008222
     35          6           0        2.740141    2.551009    0.097110
     36          6           0        1.975677    1.407554    0.052069
     37          6           0        2.214244    5.083055   -0.071709
     38          6           0        4.113008    2.154560    0.199421
     39          8           0        5.141034    2.795172    0.244853
     40          6           0        4.186815    0.615018    0.452857
     41          6           0        5.139801    0.008678   -0.481643
     42          8           0        4.985628    0.049408   -1.692820
     43          8           0        6.328757   -0.459124    0.134251
     44          6           0        7.368323   -0.969339   -0.773381
     45          1           0       -0.562592   -4.368613   -0.309269
     46          1           0       -5.136089    0.103938   -0.503550
     47          1           0       -0.743165    4.668434    0.057991
     48          1           0        3.935212   -2.457997   -0.155211
     49          1           0        1.849710   -4.358290   -0.298786
     50          1           0        2.667931   -4.235571   -2.291453
     51          1           0        3.216892   -2.530363   -2.228674
     52          1           0        1.461319   -2.994472   -2.610171
     53          1           0        2.340567   -3.372158    2.251559
     54          1           0        3.629446   -2.072357    2.266317
     55          1           0        3.945444   -4.781589    2.638169
     56          1           0        5.173836   -3.559878    2.441199
     57          1           0       -2.477299   -5.333618    0.847733
     58          1           0       -3.436645   -5.524441   -0.612925
     59          1           0       -4.189404   -5.135636    0.921912
     60          1           0       -5.958763   -4.501347   -0.473543
     61          1           0       -7.490761   -4.001449    0.198247
     62          1           0       -6.179744   -4.276884    1.338467
     63          1           0       -5.107651    2.744230    0.037755
     64          1           0       -2.944328    4.246421   -1.151007
     65          1           0       -4.600087    3.868473   -2.329184
     66          1           0       -5.841390    2.584110   -2.218290
     67          1           0       -4.261596    2.118290   -2.696242
     68          1           0       -4.620299    4.873484    0.964451
     69          1           0       -3.120156    5.736919    0.652591
     70          1           0       -2.216928    5.343380    2.442061
     71          1           0       -2.264545    3.683090    2.358771
     72          1           0       -3.643314    4.576130    3.094452
     73          1           0        1.360175    5.745989   -0.214642
     74          1           0        2.999469    5.189939   -0.820669
     75          1           0        2.614492    5.527332    0.839874
     76          1           0        4.508558    0.386948    1.468665
     77          1           0        8.196346   -1.481832   -0.284278
     78          1           0        7.719005   -0.067237   -1.275452
     79          1           0        6.837871   -1.580307   -1.502802
 ---------------------------------------------------------------------

 SCF Done:  E(RPBE1PBE) =  -2033.69765834     A.U. after   15 cycles

 Excitation energies and oscillator strengths:

 Excited State   1:      Singlet-A      1.8723 eV  662.20 nm  f=0.3796  <S**2>=0.000
     155 ->158        -0.17551
     156 ->157         0.69317
     156 <-157        -0.10658
 This state for optimization and/or second-order correction.
 Total Energy, E(TD-HF/TD-DFT) =  -2033.62885276
 Copying the excited state density for this state as the 1-particle RhoCI density.

 Excited State   2:      Singlet-A      2.2175 eV  559.12 nm  f=0.1416  <S**2>=0.000
     155 ->157         0.66483
     156 ->158         0.23623

 Excited State   3:      Singlet-A      2.9382 eV  421.97 nm  f=0.0001  <S**2>=0.000
     154 ->157         0.68262
     154 ->159         0.11335
     154 ->160         0.12480

 Excited State   4:      Singlet-A      3.1104 eV  398.61 nm  f=0.0024  <S**2>=0.000
     152 ->157        -0.18643
     153 ->157         0.67736

 Excited State   5:      Singlet-A      3.2486 eV  381.65 nm  f=0.0131  <S**2>=0.000
     150 ->157        -0.12166
     151 ->157         0.11762
     152 ->157         0.65260
     153 ->157         0.17515

 The electronic state is 1-A.
 Alpha  occ. eigenvalues --  -46.91185 -19.24631 -19.20495 -19.19734 -19.18348
 Alpha  occ. eigenvalues --  -14.41391 -14.41104 -14.39645 -14.38436 -10.35927
 Alpha  occ. eigenvalues --  -10.34199 -10.31437 -10.28886 -10.28544 -10.28407
 Alpha  occ. eigenvalues --  -10.28338 -10.28325 -10.28161 -10.27821 -10.27660
 Alpha  occ. eigenvalues --  -10.26857 -10.26486 -10.26154 -10.26045 -10.25925
 Alpha  occ. eigenvalues --  -10.25765 -10.25388 -10.25378 -10.25329 -10.25257
 Alpha  occ. eigenvalues --  -10.25050 -10.24784 -10.24704 -10.24641 -10.24284
 Alpha  occ. eigenvalues --  -10.24038 -10.23763 -10.23438 -10.23286 -10.23229
 Alpha  occ. eigenvalues --  -10.23087 -10.22197 -10.22018  -3.13524  -1.86379
 Alpha  occ. eigenvalues --   -1.85863  -1.85797  -1.09270  -1.05021  -1.04529
 Alpha  occ. eigenvalues --   -1.01616  -1.00382  -0.99443  -0.98798  -0.97721
 Alpha  occ. eigenvalues --   -0.86609  -0.83556  -0.82816  -0.82524  -0.81587
 Alpha  occ. eigenvalues --   -0.81287  -0.80757  -0.78528  -0.78030  -0.77022
 Alpha  occ. eigenvalues --   -0.76593  -0.75343  -0.74456  -0.72753  -0.71614
 Alpha  occ. eigenvalues --   -0.71026  -0.70144  -0.69436  -0.67348  -0.65631
 Alpha  occ. eigenvalues --   -0.63701  -0.63156  -0.62371  -0.60892  -0.59594
 Alpha  occ. eigenvalues --   -0.59175  -0.58781  -0.58421  -0.55903  -0.55065
 Alpha  occ. eigenvalues --   -0.54219  -0.53751  -0.52704  -0.52556  -0.52108
 Alpha  occ. eigenvalues --   -0.50404  -0.50243  -0.50018  -0.49333  -0.48433
 Alpha  occ. eigenvalues --   -0.48221  -0.47735  -0.47465  -0.47142  -0.46931
 Alpha  occ. eigenvalues --   -0.46643  -0.46450  -0.45851  -0.45202  -0.45099
 Alpha  occ. eigenvalues --   -0.45048  -0.44396  -0.44100  -0.43882  -0.43607
 Alpha  occ. eigenvalues --   -0.43488  -0.43233  -0.43104  -0.42344  -0.42010
 Alpha  occ. eigenvalues --   -0.41674  -0.41265  -0.41142  -0.40760  -0.40521
 Alpha  occ. eigenvalues --   -0.40486  -0.39680  -0.39443  -0.39142  -0.38835
 Alpha  occ. eigenvalues --   -0.38549  -0.38348  -0.38079  -0.37941  -0.37785
 Alpha  occ. eigenvalues --   -0.37412  -0.36983  -0.36674  -0.36270  -0.35919
 Alpha  occ. eigenvalues --   -0.35822  -0.35511  -0.34988  -0.34880  -0.34118
 Alpha  occ. eigenvalues --   -0.33177  -0.33054  -0.32562  -0.31706  -0.31228
 Alpha  occ. eigenvalues --   -0.30571  -0.29699  -0.29035  -0.28580  -0.26853
 Alpha  occ. eigenvalues --   -0.26627  -0.26004  -0.25473  -0.25256  -0.20842
 Alpha  occ. eigenvalues --   -0.18976
 Alpha virt. eigenvalues --   -0.11297  -0.04807  -0.04200  -0.02033   0.00123
 Alpha virt. eigenvalues --    0.00869   0.01402   0.02030   0.02509   0.03618
 Alpha virt. eigenvalues --    0.04361   0.05141   0.05693   0.06327   0.07474

 Mulliken charges:
               1
     1  Mg  11.997681
     2  C    6.021394
     3  C    5.992110
     4  C    5.978602
     5  C    6.002790
     6  N    7.013636
     7  C    5.967295
     8  C    6.001568
     9  C    5.996893
    10  C    6.026026
    11  C    6.003252
    12  C    6.002444
    13  C    5.999972
    14  H    0.996852
    15  N    6.995712
    16  C    6.040054
    17  C    6.018946
    18  C    6.021004
    19  C    6.025857
    20  C    5.995923
    21  C    6.015059
    22  O    8.029382
    23  C    5.995230
    24  N    6.992906
    25  C    6.032738
    26  C    5.991510
    27  C    6.008718
    28  C    5.972910
    29  C    5.999634
    30  C    6.000864
    31  C    6.002335
    32  N    6.995528
    33  C    5.970751
    34  C    5.968442
    35  C    5.997444
    36  C    5.976207
    37  C    6.003235
    38  C    5.985733
    39  O    7.970868
    40  C    5.998397
    41  C    5.993729
    42  O    7.995576
    43  O    7.998589
    44  C    6.000967
    45  H    1.011256
    46  H    1.003544
    47  H    0.988064
    48  H    1.003030
    49  H    0.998463
    50  H    1.002650
    51  H    1.013831
    52  H    0.997045
    53  H    0.988664
    54  H    1.007599
    55  H    0.996335
    56  H    1.003425
    57  H    1.015904
    58  H    1.020541
    59  H    1.014451
    60  H    1.004114
    61  H    1.014260
    62  H    1.008353
    63  H    0.998015
    64  H    0.998147
    65  H    1.010107
    66  H    0.996480
    67  H    0.998022
    68  H    0.989554
    69  H    1.000473
    70  H    1.001998
    71  H    1.001644
    72  H    0.990477
    73  H    0.982955
    74  H    0.983448
    75  H    0.978794
    76  H    0.993305
    77  H    0.995438
    78  H    1.000549
    79  H    0.994305
 Sum of Mulliken charges = 312.00000

 Dipole moment (field-independent basis, Debye):
    X=             -6.7974    Y=             -7.7834    Z=             -0.3719  Tot=             10.3404
 Quadrupole moment (field-independent basis, Debye-Ang):
   XX=              9.0013   YY=             -2.4705   ZZ=             -0.0625
   XY=              7.0829   XZ=             -0.0760   YZ=             -0.8031

 Normal termination of Gaussian 16 at Wed Oct 13 20:06:12 2021.
