 Gaussian 16, Revision A.03,
 Gaussian 16:  ES64L-G16RevA.03 25-Dec-2016

 --------------------------------------------------------
 #p PBE1PBE/Def2SVP td=(nstates=5) density=(transition=1)
 --------------------------------------------------------

 --------------------------------
 TDDFT excited states in gaussian
 --------------------------------
 Symbolic Z-matrix:
 Charge =  0 Multiplicity = 1

                         Standard orientation:
 ---------------------------------------------------------------------
 Center     Atomic      Atomic             Coordinates (Angstroms)
 Number     Number       Type             X           Y           Z
 ---------------------------------------------------------------------
      1         12           0      -25.245411   -0.508861   -0.116631
      2          6           0      -21.781928   -1.261195   -0.456366
      3          6           0      -25.078625   -1.356067    3.198059
      4          6           0      -28.251116    1.201007    0.421090
      5          6           0      -25.189329    0.886916   -3.341089
      6          7           0      -23.420655   -1.006224    1.252593
      7          6           0      -22.222304   -1.478716    0.872523
      8          6           0      -21.637550   -2.322839    1.990148
      9          6           0      -22.667256   -2.308355    3.219956
     10          6           0      -23.877525   -1.610120    2.416038
     11          6           0      -22.958082   -3.765911    3.642716
     12          6           0      -20.261857   -1.814198    2.389947
     13          6           0      -20.059786   -0.280290    2.399132
     14          1           0      -19.965600    0.405976    3.789257
     15          7           0      -26.568660   -0.193594    1.587326
     16          6           0      -26.251676   -0.636609    2.853007
     17          6           0      -27.416655   -0.404363    3.647903
     18          6           0      -28.354351    0.428140    2.925891
     19          6           0      -27.788614    0.490882    1.554476
     20          6           0      -27.486280   -0.761926    5.114534
     21          6           0      -29.557414    1.190177    3.483865
     22          8           0      -29.796634    1.161092    4.675687
     23          6           0      -30.440633    1.973784    2.673144
     24          7           0      -26.493695    0.933756   -1.246942
     25          6           0      -27.696362    1.332531   -0.859935
     26          6           0      -28.386684    2.234481   -1.870115
     27          6           0      -27.205757    2.409473   -2.919114
     28          6           0      -26.261835    1.323501   -2.547136
     29          6           0      -29.714726    1.596785   -2.510361
     30          6           0      -26.624781    3.896975   -2.864198
     31          6           0      -26.825852    4.837677   -4.018393
     32          7           0      -23.942433   -0.446901   -1.645625
     33          6           0      -24.100707    0.047157   -2.956484
     34          6           0      -22.917001   -0.268433   -3.777629
     35          6           0      -22.045563   -0.788018   -2.820558
     36          6           0      -22.619231   -0.783204   -1.501214
     37          6           0      -22.721202   -0.167176   -5.329844
     38          6           0      -20.683486   -1.311804   -2.676430
     39          8           0      -19.761044   -1.513151   -3.483564
     40          6           0      -20.452701   -1.655410   -1.167827
     41          6           0      -19.350156   -0.702080   -0.859628
     42          8           0      -19.408819    0.494161   -0.985961
     43          8           0      -18.243973   -1.370443   -0.545994
     44          6           0      -17.020051   -0.610203   -0.112424
     45          1           0      -25.120778   -1.892387    4.148186
     46          1           0      -29.211734    1.719916    0.425141
     47          1           0      -25.237814    1.448297   -4.277047
     48          1           0      -21.562479   -3.266563    1.449866
     49          1           0      -22.309058   -1.710964    4.058782
     50          1           0      -22.657906   -3.882751    4.683842
     51          1           0      -22.402559   -4.519080    3.083344
     52          1           0      -24.038475   -3.886085    3.567287
     53          1           0      -19.511266   -2.227006    1.715871
     54          1           0      -20.024694   -2.115492    3.410695
     55          1           0      -20.863105    0.339548    2.001155
     56          1           0      -19.139625   -0.126306    1.835371
     57          1           0      -26.542944   -1.170487    5.477783
     58          1           0      -28.352230   -1.409959    5.254037
     59          1           0      -27.775207    0.140099    5.652817
     60          1           0      -29.988602    2.841766    2.192688
     61          1           0      -31.258239    2.346947    3.289591
     62          1           0      -30.748112    1.265707    1.902848
     63          1           0      -28.590671    3.239556   -1.501774
     64          1           0      -27.755345    2.369167   -3.859727
     65          1           0      -29.919474    0.634990   -2.039211
     66          1           0      -29.505321    1.410921   -3.563957
     67          1           0      -30.604804    2.227633   -2.493870
     68          1           0      -25.535167    3.894023   -2.833131
     69          1           0      -26.988048    4.425767   -1.984062
     70          1           0      -25.951453    4.941610   -4.660880
     71          1           0      -27.002551    5.761356   -3.466324
     72          1           0      -27.770321    4.717231   -4.549284
     73          1           0      -22.581106    0.884917   -5.576478
     74          1           0      -23.592075   -0.632030   -5.792294
     75          1           0      -21.789352   -0.668481   -5.590846
     76          1           0      -20.204083   -2.716889   -1.137775
     77          1           0      -16.415930   -0.266834   -0.952516
     78          1           0      -16.381741   -1.222498    0.525863
     79          1           0      -17.407095    0.224597    0.471848
     80         12           0       24.913502    0.393782   -0.028361
     81          6           0       21.962707   -1.179321   -0.652264
     82          6           0       26.606335   -2.599403   -0.138139
     83          6           0       27.742073    2.070839    0.776274
     84          6           0       23.080197    3.359968    0.548262
     85          7           0       24.301857   -1.696042   -0.141081
     86          6           0       23.114740   -2.032046   -0.712836
     87          6           0       23.075943   -3.433588   -1.220471
     88          6           0       24.553292   -3.918104   -0.780347
     89          6           0       25.223492   -2.666453   -0.316942
     90          6           0       24.522243   -5.030776    0.362906
     91          6           0       22.900439   -3.402213   -2.810143
     92          6           0       22.318226   -4.650691   -3.476433
     93          1           0       22.180937   -6.028992   -2.782935
     94          7           0       26.929523   -0.118744    0.189297
     95          6           0       27.416406   -1.434517    0.124681
     96          6           0       28.837739   -1.371226    0.374690
     97          6           0       29.183945   -0.025095    0.610136
     98          6           0       27.923867    0.692839    0.475992
     99          6           0       29.720345   -2.638860    0.297722
    100          6           0       30.629704    0.562960    1.035098
    101          8           0       30.869957    1.776025    1.082203
    102          6           0       31.834932   -0.296750    1.378692
    103          7           0       25.336427    2.496287    0.519904
    104          6           0       26.596848    2.879545    0.834605
    105          6           0       26.616853    4.273809    1.458915
    106          6           0       25.126747    4.826977    1.071527
    107          6           0       24.452893    3.536909    0.578310
    108          6           0       27.050191    4.351423    2.994106
    109          6           0       25.042614    5.860513   -0.163096
    110          6           0       24.263195    7.153982   -0.012786
    111          7           0       22.936231    1.065155   -0.078370
    112          6           0       22.338673    2.241999    0.178105
    113          6           0       20.874037    2.140426   -0.111959
    114          6           0       20.734526    0.786289   -0.498373
    115          6           0       22.003527    0.180690   -0.328545
    116          6           0       19.797282    3.166491   -0.075314
    117          6           0       19.737928   -0.123010   -0.924768
    118          8           0       18.517049    0.050215   -1.118215
    119          6           0       20.486500   -1.448315   -1.041912
    120          6           0       19.889737   -2.402529   -0.135530
    121          8           0       19.696712   -2.345852    1.038629
    122          8           0       19.649057   -3.549991   -0.885366
    123          6           0       19.079616   -4.810537   -0.272066
    124          1           0       27.235056   -3.459029   -0.377760
    125          1           0       28.640060    2.583415    1.128450
    126          1           0       22.435441    4.170609    0.892355
    127          1           0       22.336584   -4.150323   -0.863612
    128          1           0       25.102517   -4.332622   -1.625682
    129          1           0       25.292378   -5.799219    0.300034
    130          1           0       23.512392   -5.433323    0.440514
    131          1           0       24.712090   -4.508350    1.301091
    132          1           0       23.844317   -3.189196   -3.312336
    133          1           0       22.235910   -2.559843   -3.003946
    134          1           0       22.897028   -4.789134   -4.390505
    135          1           0       21.320280   -4.412786   -3.842709
    136          1           0       29.187096   -3.539010   -0.007731
    137          1           0       30.171223   -2.762428    1.281818
    138          1           0       30.529089   -2.421484   -0.400356
    139          1           0       32.120583   -0.753013    0.431612
    140          1           0       31.562853   -1.196084    1.931568
    141          1           0       32.545202    0.267049    1.983119
    142          1           0       27.331014    4.876004    0.896011
    143          1           0       24.648985    5.295665    1.932085
    144          1           0       26.268610    4.805262    3.603877
    145          1           0       27.980230    4.910142    3.092396
    146          1           0       27.176985    3.350934    3.408369
    147          1           0       24.715316    5.370701   -1.080073
    148          1           0       26.072054    6.127620   -0.399948
    149          1           0       23.518840    7.158946   -0.808273
    150          1           0       24.896921    8.039731   -0.046959
    151          1           0       23.696180    7.134006    0.918964
    152          1           0       20.135776    4.179753    0.140448
    153          1           0       19.056967    2.925976    0.688139
    154          1           0       19.300547    3.175293   -1.045303
    155          1           0       20.450553   -1.853900   -2.053425
    156          1           0       18.954470   -4.686128    0.803773
    157          1           0       19.784674   -5.632152   -0.405226
    158          1           0       18.125818   -4.970436   -0.774788
 ---------------------------------------------------------------------

 SCF Done:  E(RPBE1PBE) =  -4067.33710345     A.U. after   16 cycles

 Excitation energies and oscillator strengths:

 Excited State   1:      Singlet-A      1.8532 eV  669.02 nm  f=0.3484  <S**2>=0.000
     309 -> 315        0.19402
     311 -> 313        0.68721
 This state for optimization and/or second-order correction.
 Total Energy, E(TD-HF/TD-DFT) =  -4067.26899891
 Copying the excited state density for this state as the 1-particle RhoCI density.

 Excited State   2:      Singlet-A      1.8923 eV  655.19 nm  f=0.3824  <S**2>=0.000
     310 -> 316       -0.18632
     312 -> 314        0.68962
     312 <- 314       -0.10199

 Excited State   3:      Singlet-A      1.9719 eV  628.75 nm  f=0.0000  <S**2>=0.000
     312 -> 313        0.70711

 Excited State   4:      Singlet-A      2.0992 eV  590.62 nm  f=0.0000  <S**2>=0.000
     311 -> 314        0.70711

 Excited State   5:      Singlet-A      2.2158 eV  559.54 nm  f=0.0720  <S**2>=0.000
     309 -> 313        0.63258
     311 -> 315       -0.30038

 The electronic state is 1-A.
 Alpha  occ. eigenvalues --  -46.93569 -46.92770 -19.25684 -19.24320 -19.19715
 Alpha  occ. eigenvalues --  -19.19492 -19.19116 -19.19058 -19.18938 -19.18245
 Alpha  occ. eigenvalues --  -14.41995 -14.41912 -14.41446 -14.41138 -14.39830
 Alpha  occ. eigenvalues --  -14.39224 -14.39181 -14.38948 -10.35716 -10.35572
 Alpha  occ. eigenvalues --  -10.33491 -10.32170 -10.31512 -10.31396 -10.29757
 Alpha  occ. eigenvalues --  -10.29647 -10.29394 -10.29128 -10.29090 -10.28784
 Alpha  occ. eigenvalues --  -10.28538 -10.28492 -10.28440 -10.28341 -10.28335
 Alpha  occ. eigenvalues --  -10.27990 -10.27714 -10.27696 -10.27601 -10.27489
 Alpha  occ. eigenvalues --  -10.27458 -10.26699 -10.26559 -10.26525 -10.26505
 Alpha  occ. eigenvalues --  -10.26380 -10.26320 -10.26128 -10.26117 -10.26042
 Alpha  occ. eigenvalues --  -10.26018 -10.26005 -10.25994 -10.25869 -10.25827
 Alpha  occ. eigenvalues --  -10.25744 -10.25671 -10.25670 -10.25643 -10.25542
 Alpha  occ. eigenvalues --  -10.25534 -10.25340 -10.25078 -10.25074 -10.25071
 Alpha  occ. eigenvalues --  -10.24897 -10.24712 -10.24549 -10.24425 -10.24302
 Alpha  occ. eigenvalues --  -10.24150 -10.24079 -10.24006 -10.23967 -10.23756
 Alpha  occ. eigenvalues --  -10.23692 -10.23640 -10.23582 -10.23557 -10.23544
 Alpha  occ. eigenvalues --  -10.23531 -10.22958 -10.22912 -10.22772 -10.22455
 Alpha  occ. eigenvalues --  -10.22367  -3.15463  -3.14763  -1.88265  -1.87867
 Alpha  occ. eigenvalues --   -1.87662  -1.87624  -1.87119  -1.86996  -1.11807
 Alpha  occ. eigenvalues --   -1.10309  -1.04917  -1.04317  -1.03557  -1.02957
 Alpha  occ. eigenvalues --   -1.02499  -1.01981  -1.00191  -0.99202  -0.99096
 Alpha  occ. eigenvalues --   -0.98290  -0.98261  -0.97275  -0.97072  -0.96211
 Alpha  occ. eigenvalues --   -0.87806  -0.86291  -0.83239  -0.83036  -0.82943
 Alpha  occ. eigenvalues --   -0.82548  -0.82501  -0.81834  -0.81390  -0.81330
 Alpha  occ. eigenvalues --   -0.81182  -0.80520  -0.80467  -0.79599  -0.78898
 Alpha  occ. eigenvalues --   -0.78642  -0.78322  -0.77733  -0.77068  -0.76820
 Alpha  occ. eigenvalues --   -0.76618  -0.75813  -0.75444  -0.75415  -0.74662
 Alpha  occ. eigenvalues --   -0.74589  -0.72748  -0.72226  -0.71798  -0.71623
 Alpha  occ. eigenvalues --   -0.71375  -0.70681  -0.70545  -0.70470  -0.69547
 Alpha  occ. eigenvalues --   -0.69288  -0.67291  -0.67021  -0.66440  -0.66170
 Alpha  occ. eigenvalues --   -0.63713  -0.63214  -0.62999  -0.62917  -0.62612
 Alpha  occ. eigenvalues --   -0.62521  -0.61125  -0.60431  -0.59998  -0.59708
 Alpha  occ. eigenvalues --   -0.59658  -0.59607  -0.59323  -0.59064  -0.58799
 Alpha  occ. eigenvalues --   -0.58556  -0.56990  -0.56317  -0.55065  -0.54836
 Alpha  occ. eigenvalues --   -0.54449  -0.53840  -0.53788  -0.53582  -0.53373
 Alpha  occ. eigenvalues --   -0.53065  -0.52881  -0.52387  -0.52306  -0.51823
 Alpha  occ. eigenvalues --   -0.50733  -0.50655  -0.50347  -0.50144  -0.49793
 Alpha  occ. eigenvalues --   -0.49584  -0.49464  -0.49096  -0.48648  -0.48447
 Alpha  occ. eigenvalues --   -0.48326  -0.48072  -0.47685  -0.47679  -0.47491
 Alpha  occ. eigenvalues --   -0.47336  -0.47190  -0.46916  -0.46712  -0.46651
 Alpha  occ. eigenvalues --   -0.46625  -0.46398  -0.46229  -0.46144  -0.46066
 Alpha  occ. eigenvalues --   -0.45977  -0.45371  -0.45200  -0.45114  -0.44796
 Alpha  occ. eigenvalues --   -0.44452  -0.44348  -0.44267  -0.44190  -0.44044
 Alpha  occ. eigenvalues --   -0.44021  -0.43794  -0.43711  -0.43535  -0.43512
 Alpha  occ. eigenvalues --   -0.43110  -0.42933  -0.42905  -0.42782  -0.42595
 Alpha  occ. eigenvalues --   -0.42437  -0.42299  -0.41949  -0.41943  -0.41623
 Alpha  occ. eigenvalues --   -0.41609  -0.41599  -0.41317  -0.41282  -0.41159
 Alpha  occ. eigenvalues --   -0.41023  -0.40943  -0.40861  -0.40517  -0.40348
 Alpha  occ. eigenvalues --   -0.40275  -0.40075  -0.39913  -0.39883  -0.39799
 Alpha  occ. eigenvalues --   -0.39552  -0.39427  -0.39144  -0.39126  -0.39020
 Alpha  occ. eigenvalues --   -0.38771  -0.38750  -0.38742  -0.38559  -0.38528
 Alpha  occ. eigenvalues --   -0.38339  -0.38066  -0.37971  -0.37734  -0.37507
 Alpha  occ. eigenvalues --   -0.37245  -0.37131  -0.36867  -0.36642  -0.36465
 Alpha  occ. eigenvalues --   -0.36330  -0.36202  -0.36152  -0.36107  -0.35975
 Alpha  occ. eigenvalues --   -0.35894  -0.35704  -0.35662  -0.35080  -0.34997
 Alpha  occ. eigenvalues --   -0.34948  -0.34720  -0.34678  -0.34333  -0.33642
 Alpha  occ. eigenvalues --   -0.33398  -0.32917  -0.32792  -0.32552  -0.32395
 Alpha  occ. eigenvalues --   -0.32085  -0.31827  -0.31759  -0.31584  -0.31403
 Alpha  occ. eigenvalues --   -0.31026  -0.30697  -0.29414  -0.29332  -0.29265
 Alpha  occ. eigenvalues --   -0.29115  -0.28819  -0.28667  -0.27005  -0.26802
 Alpha  occ. eigenvalues --   -0.26101  -0.26008  -0.25990  -0.25674  -0.25519
 Alpha  occ. eigenvalues --   -0.25471  -0.25360  -0.24476  -0.21215  -0.20785
 Alpha  occ. eigenvalues --   -0.18976  -0.18769
 Alpha virt. eigenvalues --   -0.11257  -0.10993  -0.05918  -0.05182  -0.04193
 Alpha virt. eigenvalues --   -0.03956  -0.02118  -0.02057  -0.01656  -0.00086
 Alpha virt. eigenvalues --    0.00425   0.00781   0.00977   0.01357   0.01614

 Mulliken charges:
               1
     1  Mg  12.005413
     2  C    6.011407
     3  C    5.976150
     4  C    5.987068
     5  C    6.018386
     6  N    7.006186
     7  C    5.973168
     8  C    6.001053
     9  C    5.986444
    10  C    6.040318
    11  C    5.999148
    12  C    6.002680
    13  C    6.007090
    14  H    0.987066
    15  N    6.991833
    16  C    6.040917
    17  C    6.017980
    18  C    6.010536
    19  C    6.035013
    20  C    5.996990
    21  C    6.011557
    22  O    8.017050
    23  C    5.996308
    24  N    7.003619
    25  C    6.026168
    26  C    5.987808
    27  C    6.014242
    28  C    5.963127
    29  C    5.997406
    30  C    6.000677
    31  C    6.001616
    32  N    7.003148
    33  C    5.960362
    34  C    5.973658
    35  C    5.998389
    36  C    5.970231
    37  C    5.995817
    38  C    5.983947
    39  O    7.967983
    40  C    6.000154
    41  C    5.993618
    42  O    7.997514
    43  O    7.998667
    44  C    6.001629
    45  H    1.006489
    46  H    1.009536
    47  H    0.991146
    48  H    1.005516
    49  H    1.005409
    50  H    1.004079
    51  H    1.010067
    52  H    0.996020
    53  H    1.004876
    54  H    0.992714
    55  H    1.000040
    56  H    1.003844
    57  H    1.017785
    58  H    1.018008
    59  H    1.015498
    60  H    1.010536
    61  H    1.011600
    62  H    1.006397
    63  H    1.001571
    64  H    0.995639
    65  H    0.996749
    66  H    1.011533
    67  H    1.001392
    68  H    1.003482
    69  H    0.987479
    70  H    1.002436
    71  H    0.995179
    72  H    0.995608
    73  H    0.984502
    74  H    0.986058
    75  H    0.990214
    76  H    0.990632
    77  H    0.998207
    78  H    0.994405
    79  H    0.995810
    80  Mg  11.999984
    81  C    5.999871
    82  C    6.000064
    83  C    6.000175
    84  C    6.000027
    85  N    7.000042
    86  C    6.000268
    87  C    5.999851
    88  C    6.000099
    89  C    5.999695
    90  C    6.000024
    91  C    5.999978
    92  C    5.999992
    93  H    1.000052
    94  N    7.000052
    95  C    5.999612
    96  C    5.999847
    97  C    5.999826
    98  C    5.999726
    99  C    5.999991
   100  C    5.999913
   101  O    7.999735
   102  C    6.000017
   103  N    6.999993
   104  C    5.999720
   105  C    6.000098
   106  C    5.999922
   107  C    6.000216
   108  C    6.000019
   109  C    5.999950
   110  C    5.999999
   111  N    6.999992
   112  C    6.000272
   113  C    6.000243
   114  C    6.000054
   115  C    6.000247
   116  C    5.999994
   117  C    6.000121
   118  O    8.000350
   119  C    6.000024
   120  C    6.000033
   121  O    8.000026
   122  O    8.000013
   123  C    5.999985
   124  H    0.999918
   125  H    0.999910
   126  H    1.000063
   127  H    1.000038
   128  H    0.999985
   129  H    0.999976
   130  H    0.999888
   131  H    0.999980
   132  H    1.000087
   133  H    0.999945
   134  H    1.000036
   135  H    1.000012
   136  H    0.999858
   137  H    0.999844
   138  H    0.999856
   139  H    0.999928
   140  H    0.999926
   141  H    0.999854
   142  H    0.999990
   143  H    1.000014
   144  H    0.999898
   145  H    0.999972
   146  H    1.000026
   147  H    1.000008
   148  H    1.000086
   149  H    1.000004
   150  H    1.000025
   151  H    0.999991
   152  H    1.000160
   153  H    1.000180
   154  H    1.000183
   155  H    1.000114
   156  H    1.000017
   157  H    1.000043
   158  H    1.000074
 Sum of Mulliken charges = 624.00000

 Dipole moment (field-independent basis, Debye):
    X=             -6.5811    Y=              0.1745    Z=              7.4700  Tot=              9.9570
 Quadrupole moment (field-independent basis, Debye-Ang):
   XX=            317.4066   YY=             -0.0374   ZZ=             -0.1178
   XY=             -2.1297   XZ=           -189.4189   YZ=             -2.1940

 Normal termination of Gaussian 16 at Wed Oct 13 23:50:56 2021.
