 Gaussian 16, Revision A.03,
 Gaussian 16:  ES64L-G16RevA.03 25-Dec-2016

 --------------------------------------------------------
 #p PBE1PBE/Def2SVP td=(nstates=5) density=(transition=1)
 --------------------------------------------------------

 --------------------------------
 TDDFT excited states in gaussian
 --------------------------------
 Symbolic Z-matrix:
 Charge =  0 Multiplicity = 1

                         Standard orientation:
 ---------------------------------------------------------------------
 Center     Atomic      Atomic             Coordinates (Angstroms)
 Number     Number       Type             X           Y           Z
 ---------------------------------------------------------------------
      1         12           0       24.870048   -0.580441    0.513098
      2          6           0       25.217628    1.895740   -1.903745
      3          6           0       24.160623    1.844383    2.828225
      4          6           0       24.859927   -3.017562    2.895233
      5          6           0       25.875576   -2.886204   -1.998016
      6          7           0       24.742455    1.608346    0.477195
      7          6           0       24.806712    2.368253   -0.660870
      8          6           0       24.490073    3.805595   -0.240422
      9          6           0       24.463093    3.794967    1.277614
     10          6           0       24.416242    2.295109    1.546323
     11          6           0       25.537112    4.510918    2.051812
     12          6           0       23.194176    4.455195   -0.923734
     13          6           0       22.735065    5.831647   -0.343867
     14          1           0       23.288683    7.129683   -0.987820
     15          7           0       24.407885   -0.578203    2.536271
     16          6           0       24.175398    0.509367    3.312600
     17          6           0       24.001032    0.025978    4.657590
     18          6           0       24.211968   -1.384209    4.666964
     19          6           0       24.531015   -1.726078    3.354073
     20          6           0       23.671766    0.975813    5.767625
     21          6           0       24.249933   -2.302575    5.923078
     22          8           0       24.767056   -3.405050    5.896583
     23          6           0       23.791818   -1.885713    7.238460
     24          7           0       25.280178   -2.531638    0.435943
     25          6           0       25.172636   -3.386074    1.532804
     26          6           0       25.466700   -4.851844    1.169129
     27          6           0       25.495496   -4.788403   -0.395913
     28          6           0       25.505065   -3.293308   -0.668796
     29          6           0       26.558396   -5.509846    1.906786
     30          6           0       24.372189   -5.601298   -1.248853
     31          6           0       24.786188   -6.679460   -2.254846
     32          7           0       25.508564   -0.535770   -1.587458
     33          6           0       25.886864   -1.551772   -2.419602
     34          6           0       26.198826   -1.063643   -3.720594
     35          6           0       25.870948    0.340747   -3.599569
     36          6           0       25.540152    0.607709   -2.241456
     37          6           0       26.622321   -1.917884   -4.854167
     38          6           0       25.725546    1.563073   -4.356134
     39          8           0       25.825256    1.845475   -5.534020
     40          6           0       25.285633    2.659108   -3.218160
     41          6           0       26.142791    3.870917   -3.269161
     42          8           0       27.321159    3.873735   -2.987790
     43          8           0       25.463042    4.967253   -3.648411
     44          6           0       26.159071    6.301846   -3.491694
     45          1           0       23.881479    2.606998    3.558638
     46          1           0       24.856608   -3.777658    3.679039
     47          1           0       26.137136   -3.743053   -2.622689
     48          1           0       25.377630    4.309703   -0.622556
     49          1           0       23.553350    4.284444    1.624397
     50          1           0       26.096577    3.646603    2.408345
     51          1           0       25.133376    5.159589    2.829328
     52          1           0       26.229822    5.047650    1.403249
     53          1           0       22.439983    3.693446   -0.725036
     54          1           0       23.359492    4.569723   -1.994373
     55          1           0       23.008147    5.937482    0.705301
     56          1           0       21.646575    5.865425   -0.390037
     57          1           0       23.485134    2.020253    5.515860
     58          1           0       24.560359    1.006367    6.397287
     59          1           0       22.869777    0.617523    6.413328
     60          1           0       24.112403   -0.929426    7.650510
     61          1           0       23.926694   -2.616850    8.035440
     62          1           0       22.710029   -1.882201    7.106616
     63          1           0       24.509468   -5.268684    1.483447
     64          1           0       26.519788   -5.123864   -0.557572
     65          1           0       26.287410   -6.350113    2.546590
     66          1           0       27.032790   -4.752283    2.531153
     67          1           0       27.325838   -5.947851    1.268721
     68          1           0       23.798028   -4.865606   -1.811733
     69          1           0       23.598507   -6.126747   -0.687728
     70          1           0       24.731312   -6.376951   -3.300914
     71          1           0       24.338009   -7.658448   -2.087470
     72          1           0       25.859440   -6.832120   -2.140326
     73          1           0       27.379888   -2.614775   -4.496427
     74          1           0       26.961446   -1.339485   -5.713137
     75          1           0       25.807106   -2.613661   -5.055303
     76          1           0       24.282504    2.977676   -3.499758
     77          1           0       25.591976    6.932593   -4.175911
     78          1           0       27.202464    6.186780   -3.784586
     79          1           0       25.996294    6.618459   -2.461365
     80         12           0      -24.661525   -0.694530   -0.176622
     81          6           0      -25.841767    2.130071    1.515806
     82          6           0      -23.442089    1.210552   -2.554306
     83          6           0      -24.213904   -3.487350   -2.126902
     84          6           0      -26.410117   -2.745102    2.104408
     85          7           0      -24.582606    1.401269   -0.383333
     86          6           0      -25.051976    2.415366    0.422284
     87          6           0      -24.562848    3.780426   -0.044168
     88          6           0      -23.999464    3.442533   -1.461757
     89          6           0      -23.903504    1.956822   -1.432946
     90          6           0      -24.667905    4.019861   -2.690739
     91          6           0      -23.575061    4.493877    0.933332
     92          6           0      -23.099689    5.879885    0.484142
     93          1           0      -23.258407    7.001717    1.499917
     94          7           0      -23.947433   -1.089219   -2.202878
     95          6           0      -23.350663   -0.142847   -2.957174
     96          6           0      -22.787768   -0.756878   -4.127676
     97          6           0      -23.104571   -2.124902   -4.067081
     98          6           0      -23.800030   -2.276268   -2.760068
     99          6           0      -22.063876    0.007209   -5.216124
    100          6           0      -22.747146   -3.231762   -5.004134
    101          8           0      -23.184869   -4.412695   -4.963447
    102          6           0      -21.731196   -2.995239   -6.114934
    103          7           0      -25.249088   -2.765919   -0.039972
    104          6           0      -24.998344   -3.682545   -1.003594
    105          6           0      -25.378719   -5.162578   -0.457569
    106          6           0      -25.633181   -4.890390    1.066619
    107          6           0      -25.709800   -3.397778    1.104173
    108          6           0      -26.624536   -5.703600   -1.262284
    109          6           0      -24.381711   -5.302802    1.924672
    110          6           0      -23.007984   -4.776352    1.539337
    111          7           0      -25.874271   -0.411011    1.567915
    112          6           0      -26.481531   -1.356835    2.347483
    113          6           0      -27.144966   -0.681204    3.363679
    114          6           0      -26.987148    0.715937    3.134321
    115          6           0      -26.199881    0.831463    2.018940
    116          6           0      -27.995433   -1.230941    4.454011
    117          6           0      -27.309622    2.095115    3.565441
    118          8           0      -28.013231    2.558698    4.455595
    119          6           0      -26.476993    3.071655    2.566632
    120          6           0      -27.339235    4.183691    2.085285
    121          8           0      -28.575802    4.081822    1.829427
    122          8           0      -26.612419    5.291102    2.149863
    123          6           0      -27.395184    6.512005    2.168534
    124          1           0      -22.919181    1.793950   -3.315169
    125          1           0      -24.047208   -4.390668   -2.718524
    126          1           0      -26.827865   -3.412197    2.860051
    127          1           0      -25.457040    4.403411   -0.016364
    128          1           0      -22.964130    3.758589   -1.593948
    129          1           0      -25.300675    4.894771   -2.541752
    130          1           0      -25.234687    3.233481   -3.189922
    131          1           0      -23.890344    4.142357   -3.444986
    132          1           0      -22.717575    3.847776    1.123151
    133          1           0      -24.055357    4.601612    1.905311
    134          1           0      -23.804030    6.334051   -0.212582
    135          1           0      -22.091953    5.838412    0.069752
    136          1           0      -22.102374    1.092005   -5.117653
    137          1           0      -22.498635   -0.060756   -6.213055
    138          1           0      -21.012031   -0.264200   -5.311030
    139          1           0      -22.184520   -2.323411   -6.843271
    140          1           0      -21.610782   -3.871798   -6.751120
    141          1           0      -20.749843   -2.696347   -5.744773
    142          1           0      -24.554403   -5.847587   -0.656042
    143          1           0      -26.598737   -5.351192    1.274998
    144          1           0      -26.842720   -5.130484   -2.163585
    145          1           0      -27.557931   -5.693660   -0.699219
    146          1           0      -26.487959   -6.711859   -1.650609
    147          1           0      -24.443705   -6.384121    1.801739
    148          1           0      -24.470784   -5.092674    2.990083
    149          1           0      -23.045733   -4.318049    0.550856
    150          1           0      -22.177384   -5.475498    1.629993
    151          1           0      -22.802517   -4.062127    2.336725
    152          1           0      -27.509356   -1.995098    5.061073
    153          1           0      -28.828905   -1.712375    3.943314
    154          1           0      -28.400770   -0.453845    5.101215
    155          1           0      -25.706994    3.497306    3.209561
    156          1           0      -26.992033    7.202491    2.910400
    157          1           0      -28.447178    6.407565    2.432978
    158          1           0      -27.286170    6.950280    1.175963
 ---------------------------------------------------------------------

 SCF Done:  E(RPBE1PBE) =  -4067.39108096     A.U. after   17 cycles

 Excitation energies and oscillator strengths:

 Excited State   1:      Singlet-A      1.8359 eV  675.35 nm  f=0.0000  <S**2>=0.000
     312 -> 313        0.70711
 This state for optimization and/or second-order correction.
 Total Energy, E(TD-HF/TD-DFT) =  -4067.32361445
 Copying the excited state density for this state as the 1-particle RhoCI density.

 Excited State   2:      Singlet-A      1.8526 eV  669.23 nm  f=0.3450  <S**2>=0.000
     310 -> 316       -0.15625
     311 -> 313        0.69561
     311 <- 313       -0.11154

 Excited State   3:      Singlet-A      1.8570 eV  667.66 nm  f=0.4133  <S**2>=0.000
     309 -> 315       -0.17271
     312 -> 314        0.69240
     312 <- 314       -0.11161

 Excited State   4:      Singlet-A      2.1304 eV  581.99 nm  f=0.0000  <S**2>=0.000
     311 -> 314        0.70711

 Excited State   5:      Singlet-A      2.2290 eV  556.23 nm  f=0.0886  <S**2>=0.000
     309 -> 314        0.64384
     312 -> 315        0.27289

 The electronic state is 1-A.
 Alpha  occ. eigenvalues --  -46.92797 -46.91290 -19.27373 -19.25087 -19.19446
 Alpha  occ. eigenvalues --  -19.19300 -19.19137 -19.18950 -19.18944 -19.18500
 Alpha  occ. eigenvalues --  -14.42374 -14.42243 -14.41570 -14.41412 -14.39273
 Alpha  occ. eigenvalues --  -14.38753 -14.38127 -14.37905 -10.36352 -10.34977
 Alpha  occ. eigenvalues --  -10.32716 -10.32694 -10.32240 -10.31835 -10.29633
 Alpha  occ. eigenvalues --  -10.29383 -10.29354 -10.29307 -10.28953 -10.28901
 Alpha  occ. eigenvalues --  -10.28874 -10.28730 -10.28208 -10.28116 -10.28064
 Alpha  occ. eigenvalues --  -10.28010 -10.27468 -10.27347 -10.27158 -10.27094
 Alpha  occ. eigenvalues --  -10.26801 -10.26763 -10.26384 -10.26258 -10.26178
 Alpha  occ. eigenvalues --  -10.26125 -10.26025 -10.26015 -10.25966 -10.25858
 Alpha  occ. eigenvalues --  -10.25829 -10.25782 -10.25704 -10.25647 -10.25592
 Alpha  occ. eigenvalues --  -10.25359 -10.25352 -10.25253 -10.25157 -10.25037
 Alpha  occ. eigenvalues --  -10.25019 -10.24940 -10.24791 -10.24747 -10.24736
 Alpha  occ. eigenvalues --  -10.24721 -10.24694 -10.24553 -10.24537 -10.24532
 Alpha  occ. eigenvalues --  -10.24379 -10.24251 -10.24246 -10.23912 -10.23773
 Alpha  occ. eigenvalues --  -10.23718 -10.23439 -10.23240 -10.23226 -10.23170
 Alpha  occ. eigenvalues --  -10.23063 -10.23054 -10.22974 -10.22896 -10.22565
 Alpha  occ. eigenvalues --  -10.22323  -3.14770  -3.13528  -1.87618  -1.87113
 Alpha  occ. eigenvalues --   -1.87006  -1.86386  -1.85905  -1.85753  -1.12996
 Alpha  occ. eigenvalues --   -1.10637  -1.05718  -1.04299  -1.03775  -1.02874
 Alpha  occ. eigenvalues --   -1.01575  -1.00820  -0.99929  -0.99882  -0.98971
 Alpha  occ. eigenvalues --   -0.98825  -0.98131  -0.97972  -0.97249  -0.97025
 Alpha  occ. eigenvalues --   -0.86827  -0.86328  -0.83865  -0.83594  -0.83505
 Alpha  occ. eigenvalues --   -0.83048  -0.82672  -0.82629  -0.82177  -0.81907
 Alpha  occ. eigenvalues --   -0.81477  -0.81280  -0.81021  -0.80253  -0.79136
 Alpha  occ. eigenvalues --   -0.78929  -0.78118  -0.78020  -0.77201  -0.76820
 Alpha  occ. eigenvalues --   -0.76735  -0.76083  -0.75739  -0.75674  -0.75122
 Alpha  occ. eigenvalues --   -0.74884  -0.73153  -0.72967  -0.72142  -0.71980
 Alpha  occ. eigenvalues --   -0.71707  -0.71599  -0.70544  -0.70230  -0.69612
 Alpha  occ. eigenvalues --   -0.69547  -0.67305  -0.67262  -0.66296  -0.66179
 Alpha  occ. eigenvalues --   -0.64210  -0.63705  -0.63609  -0.63295  -0.62747
 Alpha  occ. eigenvalues --   -0.62670  -0.62284  -0.61373  -0.60119  -0.59937
 Alpha  occ. eigenvalues --   -0.59907  -0.59832  -0.59317  -0.59138  -0.59096
 Alpha  occ. eigenvalues --   -0.58781  -0.57391  -0.56028  -0.55438  -0.55094
 Alpha  occ. eigenvalues --   -0.54311  -0.54310  -0.53905  -0.53617  -0.53472
 Alpha  occ. eigenvalues --   -0.53191  -0.52598  -0.52176  -0.51912  -0.51719
 Alpha  occ. eigenvalues --   -0.50998  -0.50820  -0.50578  -0.50357  -0.50353
 Alpha  occ. eigenvalues --   -0.50047  -0.49966  -0.49787  -0.49381  -0.49108
 Alpha  occ. eigenvalues --   -0.48963  -0.48427  -0.48064  -0.47815  -0.47543
 Alpha  occ. eigenvalues --   -0.47390  -0.47327  -0.47159  -0.47098  -0.46929
 Alpha  occ. eigenvalues --   -0.46760  -0.46341  -0.46184  -0.45903  -0.45640
 Alpha  occ. eigenvalues --   -0.45635  -0.45459  -0.45259  -0.45095  -0.44886
 Alpha  occ. eigenvalues --   -0.44835  -0.44722  -0.44584  -0.44137  -0.44081
 Alpha  occ. eigenvalues --   -0.43966  -0.43726  -0.43720  -0.43625  -0.43548
 Alpha  occ. eigenvalues --   -0.43286  -0.43247  -0.43082  -0.42948  -0.42884
 Alpha  occ. eigenvalues --   -0.42746  -0.42437  -0.42166  -0.42038  -0.41831
 Alpha  occ. eigenvalues --   -0.41683  -0.41611  -0.41541  -0.41370  -0.41244
 Alpha  occ. eigenvalues --   -0.41212  -0.41053  -0.41004  -0.40814  -0.40772
 Alpha  occ. eigenvalues --   -0.40686  -0.40232  -0.40034  -0.39932  -0.39856
 Alpha  occ. eigenvalues --   -0.39616  -0.39600  -0.39264  -0.39236  -0.39080
 Alpha  occ. eigenvalues --   -0.39075  -0.38894  -0.38677  -0.38564  -0.38550
 Alpha  occ. eigenvalues --   -0.38204  -0.38098  -0.38067  -0.37697  -0.37599
 Alpha  occ. eigenvalues --   -0.37572  -0.37504  -0.37317  -0.37064  -0.36797
 Alpha  occ. eigenvalues --   -0.36669  -0.36498  -0.36355  -0.36283  -0.36185
 Alpha  occ. eigenvalues --   -0.36165  -0.35840  -0.35720  -0.35362  -0.35319
 Alpha  occ. eigenvalues --   -0.35112  -0.34561  -0.34487  -0.34234  -0.34225
 Alpha  occ. eigenvalues --   -0.33781  -0.33664  -0.32869  -0.32757  -0.32367
 Alpha  occ. eigenvalues --   -0.32327  -0.32019  -0.31945  -0.31662  -0.31380
 Alpha  occ. eigenvalues --   -0.31370  -0.31016  -0.29511  -0.29318  -0.29278
 Alpha  occ. eigenvalues --   -0.29238  -0.28277  -0.27909  -0.27402  -0.26639
 Alpha  occ. eigenvalues --   -0.26387  -0.26086  -0.25638  -0.25371  -0.25281
 Alpha  occ. eigenvalues --   -0.25222  -0.24702  -0.24445  -0.21144  -0.21023
 Alpha  occ. eigenvalues --   -0.19348  -0.18797
 Alpha virt. eigenvalues --   -0.11786  -0.11256  -0.05397  -0.04937  -0.04141
 Alpha virt. eigenvalues --   -0.03617  -0.02084  -0.01746  -0.01067  -0.00289
 Alpha virt. eigenvalues --    0.00503   0.00531   0.00782   0.01321   0.01618

 Mulliken charges:
               1
     1  Mg  12.000000
     2  C    6.000000
     3  C    6.000000
     4  C    6.000000
     5  C    6.000000
     6  N    7.000000
     7  C    6.000000
     8  C    6.000000
     9  C    6.000000
    10  C    6.000000
    11  C    6.000000
    12  C    6.000000
    13  C    6.000000
    14  H    1.000000
    15  N    7.000000
    16  C    6.000000
    17  C    6.000000
    18  C    6.000000
    19  C    6.000000
    20  C    6.000000
    21  C    6.000000
    22  O    8.000000
    23  C    6.000000
    24  N    7.000000
    25  C    6.000000
    26  C    6.000000
    27  C    6.000000
    28  C    6.000000
    29  C    6.000000
    30  C    6.000000
    31  C    6.000000
    32  N    7.000000
    33  C    6.000000
    34  C    6.000000
    35  C    6.000000
    36  C    6.000000
    37  C    6.000000
    38  C    6.000000
    39  O    8.000000
    40  C    6.000000
    41  C    6.000000
    42  O    8.000000
    43  O    8.000000
    44  C    6.000000
    45  H    1.000000
    46  H    1.000000
    47  H    1.000000
    48  H    1.000000
    49  H    1.000000
    50  H    1.000000
    51  H    1.000000
    52  H    1.000000
    53  H    1.000000
    54  H    1.000000
    55  H    1.000000
    56  H    1.000000
    57  H    1.000000
    58  H    1.000000
    59  H    1.000000
    60  H    1.000000
    61  H    1.000000
    62  H    1.000000
    63  H    1.000000
    64  H    1.000000
    65  H    1.000000
    66  H    1.000000
    67  H    1.000000
    68  H    1.000000
    69  H    1.000000
    70  H    1.000000
    71  H    1.000000
    72  H    1.000000
    73  H    1.000000
    74  H    1.000000
    75  H    1.000000
    76  H    1.000000
    77  H    1.000000
    78  H    1.000000
    79  H    1.000000
    80  Mg  12.000000
    81  C    6.000000
    82  C    6.000000
    83  C    6.000000
    84  C    6.000000
    85  N    7.000000
    86  C    6.000000
    87  C    6.000000
    88  C    6.000000
    89  C    6.000000
    90  C    6.000000
    91  C    6.000000
    92  C    6.000000
    93  H    1.000000
    94  N    7.000000
    95  C    6.000000
    96  C    6.000000
    97  C    6.000000
    98  C    6.000000
    99  C    6.000000
   100  C    6.000000
   101  O    8.000000
   102  C    6.000000
   103  N    7.000000
   104  C    6.000000
   105  C    6.000000
   106  C    6.000000
   107  C    6.000000
   108  C    6.000000
   109  C    6.000000
   110  C    6.000000
   111  N    7.000000
   112  C    6.000000
   113  C    6.000000
   114  C    6.000000
   115  C    6.000000
   116  C    6.000000
   117  C    6.000000
   118  O    8.000000
   119  C    6.000000
   120  C    6.000000
   121  O    8.000000
   122  O    8.000000
   123  C    6.000000
   124  H    1.000000
   125  H    1.000000
   126  H    1.000000
   127  H    1.000000
   128  H    1.000000
   129  H    1.000000
   130  H    1.000000
   131  H    1.000000
   132  H    1.000000
   133  H    1.000000
   134  H    1.000000
   135  H    1.000000
   136  H    1.000000
   137  H    1.000000
   138  H    1.000000
   139  H    1.000000
   140  H    1.000000
   141  H    1.000000
   142  H    1.000000
   143  H    1.000000
   144  H    1.000000
   145  H    1.000000
   146  H    1.000000
   147  H    1.000000
   148  H    1.000000
   149  H    1.000000
   150  H    1.000000
   151  H    1.000000
   152  H    1.000000
   153  H    1.000000
   154  H    1.000000
   155  H    1.000000
   156  H    1.000000
   157  H    1.000000
   158  H    1.000000
 Sum of Mulliken charges = 624.00000

 Dipole moment (field-independent basis, Debye):
    X=             -0.0000    Y=             -0.0000    Z=             -0.0000  Tot=              0.0000
 Quadrupole moment (field-independent basis, Debye-Ang):
   XX=              0.0000   YY=             -0.0000   ZZ=             -0.0000
   XY=             -0.0000   XZ=             -0.0000   YZ=              0.0000

 Normal termination of Gaussian 16 at Fri Oct 15 04:39:17 2021.
