 Gaussian 16, Revision A.03,
 Gaussian 16:  ES64L-G16RevA.03 25-Dec-2016

 --------------------------------------------------------
 #p PBE1PBE/Def2SVP td=(nstates=5) density=(transition=1)
 --------------------------------------------------------

 --------------------------------
 TDDFT excited states in gaussian
 --------------------------------
 Symbolic Z-matrix:
 Charge =  0 Multiplicity = 1

                         Standard orientation:
 ---------------------------------------------------------------------
 Center     Atomic      Atomic             Coordinates (Angstroms)
 Number     Number       Type             X           Y           Z
 ---------------------------------------------------------------------
      1         12           0      -24.164228   -0.674560    0.198835
      2          6           0      -23.110920    2.418815   -1.156145
      3          6           0      -23.736774    0.642946    3.174511
      4          6           0      -24.120798   -3.792043    1.299490
      5          6           0      -23.838263   -1.949178   -3.102296
      6          7           0      -23.644560    1.434502    0.841700
      7          6           0      -23.353396    2.501837    0.191844
      8          6           0      -23.353111    3.730795    1.124128
      9          6           0      -23.077875    3.083338    2.575532
     10          6           0      -23.435182    1.587905    2.189281
     11          6           0      -21.616293    3.241004    3.154416
     12          6           0      -24.800096    4.452677    1.121499
     13          6           0      -24.914270    6.000467    1.307077
     14          1           0      -23.778923    6.684198    2.154634
     15          7           0      -24.166945   -1.463062    2.012999
     16          6           0      -24.034562   -0.694323    3.159587
     17          6           0      -24.099650   -1.611252    4.351751
     18          6           0      -24.252477   -2.938726    3.770094
     19          6           0      -24.186699   -2.858469    2.308357
     20          6           0      -23.957393   -1.076561    5.764296
     21          6           0      -24.451009   -4.240629    4.514662
     22          8           0      -24.533759   -5.353647    3.976940
     23          6           0      -24.595306   -4.201966    5.982029
     24          7           0      -24.103673   -2.667844   -0.808786
     25          6           0      -24.049992   -3.764290   -0.074406
     26          6           0      -24.330952   -5.043457   -0.981736
     27          6           0      -24.201855   -4.376056   -2.456522
     28          6           0      -24.076323   -2.896020   -2.105232
     29          6           0      -23.373897   -6.247170   -0.694142
     30          6           0      -25.356087   -4.629190   -3.481081
     31          6           0      -25.034832   -5.491618   -4.674583
     32          7           0      -23.802903    0.078080   -1.819708
     33          6           0      -23.712501   -0.599665   -3.019240
     34          6           0      -23.304362    0.275883   -4.037086
     35          6           0      -23.017809    1.463030   -3.336829
     36          6           0      -23.289671    1.324865   -1.996266
     37          6           0      -23.129532   -0.004461   -5.444226
     38          6           0      -22.624786    2.796744   -3.579546
     39          8           0      -22.388205    3.499042   -4.599835
     40          6           0      -22.405841    3.401017   -2.120114
     41          6           0      -22.922849    4.791280   -2.055175
     42          8           0      -24.082503    5.173213   -2.198185
     43          8           0      -21.827849    5.629014   -1.673384
     44          6           0      -22.096298    7.067621   -1.552044
     45          1           0      -23.716208    1.161964    4.135502
     46          1           0      -24.168544   -4.813767    1.680233
     47          1           0      -23.817749   -2.333617   -4.124828
     48          1           0      -22.433268    4.280087    0.925151
     49          1           0      -23.687262    3.615183    3.305404
     50          1           0      -20.911801    3.580018    2.395207
     51          1           0      -21.214329    2.287193    3.495684
     52          1           0      -21.694096    3.976838    3.954711
     53          1           0      -25.469971    3.982224    1.841420
     54          1           0      -25.297911    4.200084    0.185085
     55          1           0      -25.845741    6.318666    1.776380
     56          1           0      -24.709919    6.444948    0.332232
     57          1           0      -24.696960   -1.504266    6.442163
     58          1           0      -24.028430    0.009653    5.821242
     59          1           0      -22.925972   -1.200940    6.093224
     60          1           0      -23.723444   -3.745233    6.451229
     61          1           0      -24.730653   -5.212944    6.366468
     62          1           0      -25.469778   -3.669514    6.356062
     63          1           0      -25.359625   -5.395418   -0.904765
     64          1           0      -23.225803   -4.561886   -2.907147
     65          1           0      -22.604111   -5.957401    0.021321
     66          1           0      -23.071163   -6.509116   -1.708166
     67          1           0      -24.002777   -7.076691   -0.373468
     68          1           0      -25.661024   -3.657434   -3.870046
     69          1           0      -26.218375   -5.044909   -2.959413
     70          1           0      -24.047816   -5.886370   -4.437278
     71          1           0      -24.937139   -4.835631   -5.540367
     72          1           0      -25.717689   -6.331067   -4.799484
     73          1           0      -24.052445   -0.471595   -5.786873
     74          1           0      -22.439577   -0.812180   -5.688636
     75          1           0      -22.965503    0.927344   -5.985780
     76          1           0      -21.336539    3.389430   -1.906615
     77          1           0      -21.176750    7.615689   -1.345071
     78          1           0      -22.674359    7.234752   -0.643001
     79          1           0      -22.494565    7.437806   -2.496148
     80         12           0       24.101758   -0.558263    0.190711
     81          6           0       22.008058    2.064010    1.091027
     82          6           0       26.467393    1.775305   -0.664496
     83          6           0       26.095486   -3.133322   -0.953414
     84          6           0       21.481884   -2.831197    0.538000
     85          7           0       24.233820    1.653771    0.311877
     86          6           0       23.326552    2.513793    0.805290
     87          6           0       23.819123    3.973961    0.935344
     88          6           0       25.188894    3.902217    0.133816
     89          6           0       25.325188    2.330189   -0.151553
     90          6           0       25.082563    4.808594   -1.144128
     91          6           0       23.978003    4.280678    2.512345
     92          6           0       23.235140    5.536945    3.055069
     93          1           0       22.872969    6.593814    1.949808
     94          7           0       25.974123   -0.709970   -0.751565
     95          6           0       26.832464    0.393916   -0.934282
     96          6           0       28.134578   -0.092654   -1.337610
     97          6           0       28.040438   -1.483186   -1.476456
     98          6           0       26.668970   -1.866417   -0.974676
     99          6           0       29.224076    0.868066   -1.834792
    100          6           0       29.123617   -2.468280   -1.990466
    101          8           0       28.983005   -3.701814   -2.086534
    102          6           0       30.510381   -1.902780   -2.342216
    103          7           0       23.752946   -2.662603   -0.215570
    104          6           0       24.818134   -3.512453   -0.643069
    105          6           0       24.284609   -4.926836   -0.952403
    106          6           0       22.875171   -4.877702   -0.197387
    107          6           0       22.703277   -3.365823    0.104410
    108          6           0       24.278549   -5.148932   -2.455856
    109          6           0       22.907758   -5.714741    1.150335
    110          6           0       23.969265   -5.551893    2.291069
    111          7           0       22.144356   -0.451094    0.622193
    112          6           0       21.166870   -1.446228    0.718936
    113          6           0       19.931183   -0.848571    1.108836
    114          6           0       20.207272    0.492109    1.307878
    115          6           0       21.543840    0.730097    0.902552
    116          6           0       18.578905   -1.521782    1.225018
    117          6           0       19.638397    1.717900    1.707186
    118          8           0       18.495875    1.932345    1.960449
    119          6           0       20.763610    2.807438    1.465827
    120          6           0       20.262361    3.680582    0.348887
    121          8           0       20.688187    3.641210   -0.786550
    122          8           0       19.275497    4.437012    0.843794
    123          6           0       18.417683    4.981667   -0.179988
    124          1           0       27.256250    2.503395   -0.863403
    125          1           0       26.640097   -3.881336   -1.532204
    126          1           0       20.647475   -3.528872    0.640528
    127          1           0       23.143115    4.728463    0.533507
    128          1           0       26.070135    4.194558    0.705289
    129          1           0       25.487950    4.370891   -2.056675
    130          1           0       25.674695    5.653668   -0.794089
    131          1           0       24.046925    5.142054   -1.205726
    132          1           0       25.044822    4.267997    2.734598
    133          1           0       23.585968    3.409783    3.038227
    134          1           0       23.971665    5.921569    3.759711
    135          1           0       22.316049    5.328236    3.601821
    136          1           0       29.499495    0.544561   -2.838898
    137          1           0       30.118701    0.746114   -1.222680
    138          1           0       28.855539    1.893023   -1.806788
    139          1           0       30.397376   -1.353633   -3.277888
    140          1           0       31.125275   -2.769231   -2.585092
    141          1           0       30.955059   -1.450680   -1.456007
    142          1           0       24.933438   -5.594478   -0.384754
    143          1           0       22.114993   -5.370858   -0.802137
    144          1           0       25.046560   -4.576651   -2.976454
    145          1           0       23.311774   -4.877882   -2.879481
    146          1           0       24.512291   -6.186382   -2.694059
    147          1           0       22.863993   -6.770483    0.882579
    148          1           0       21.989719   -5.396896    1.644647
    149          1           0       24.814128   -6.202728    2.065409
    150          1           0       23.465401   -5.879755    3.201069
    151          1           0       24.268529   -4.530216    2.527163
    152          1           0       18.582177   -2.331521    1.954908
    153          1           0       18.409239   -1.933146    0.230192
    154          1           0       17.777547   -0.905670    1.635263
    155          1           0       21.000246    3.484389    2.286903
    156          1           0       17.385074    5.123867    0.137894
    157          1           0       18.423973    4.593803   -1.198527
    158          1           0       18.686933    5.995641   -0.476519
 ---------------------------------------------------------------------

 SCF Done:  E(RPBE1PBE) =  -4067.34769196     A.U. after   16 cycles

 Excitation energies and oscillator strengths:

 Excited State   1:      Singlet-A      1.8555 eV  668.19 nm  f=0.3762  <S**2>=0.000
     310 -> 316       -0.16984
     312 -> 314        0.69319
     312 <- 314       -0.10777
 This state for optimization and/or second-order correction.
 Total Energy, E(TD-HF/TD-DFT) =  -4067.27950239
 Copying the excited state density for this state as the 1-particle RhoCI density.

 Excited State   2:      Singlet-A      1.9458 eV  637.17 nm  f=0.0000  <S**2>=0.000
     312 -> 313        0.70711

 Excited State   3:      Singlet-A      1.9488 eV  636.20 nm  f=0.3516  <S**2>=0.000
     309 -> 315       -0.20436
     311 -> 313        0.68087

 Excited State   4:      Singlet-A      2.1873 eV  566.84 nm  f=0.0000  <S**2>=0.000
     311 -> 314        0.70711

 Excited State   5:      Singlet-A      2.2125 eV  560.38 nm  f=0.0827  <S**2>=0.000
     309 -> 313        0.64647
     311 -> 315        0.26573

 The electronic state is 1-A.
 Alpha  occ. eigenvalues --  -46.92790 -46.91469 -19.26689 -19.24620 -19.20407
 Alpha  occ. eigenvalues --  -19.20174 -19.19344 -19.19179 -19.18993 -19.18764
 Alpha  occ. eigenvalues --  -14.41706 -14.41656 -14.41150 -14.40932 -14.39663
 Alpha  occ. eigenvalues --  -14.39313 -14.38643 -14.38300 -10.36297 -10.36206
 Alpha  occ. eigenvalues --  -10.32436 -10.32203 -10.31738 -10.31666 -10.29245
 Alpha  occ. eigenvalues --  -10.29184 -10.28664 -10.28496 -10.28402 -10.28398
 Alpha  occ. eigenvalues --  -10.28345 -10.28308 -10.28230 -10.28205 -10.28071
 Alpha  occ. eigenvalues --  -10.27928 -10.27733 -10.27669 -10.27619 -10.27561
 Alpha  occ. eigenvalues --  -10.27370 -10.26841 -10.26514 -10.26489 -10.26372
 Alpha  occ. eigenvalues --  -10.26331 -10.26294 -10.26264 -10.26158 -10.26074
 Alpha  occ. eigenvalues --  -10.26071 -10.25661 -10.25612 -10.25580 -10.25530
 Alpha  occ. eigenvalues --  -10.25488 -10.25487 -10.25425 -10.25410 -10.25329
 Alpha  occ. eigenvalues --  -10.25251 -10.25127 -10.25104 -10.24916 -10.24721
 Alpha  occ. eigenvalues --  -10.24710 -10.24625 -10.24280 -10.24256 -10.24149
 Alpha  occ. eigenvalues --  -10.23967 -10.23890 -10.23861 -10.23628 -10.23507
 Alpha  occ. eigenvalues --  -10.23354 -10.23332 -10.23300 -10.23191 -10.23066
 Alpha  occ. eigenvalues --  -10.23005 -10.22916 -10.22849 -10.22778 -10.22391
 Alpha  occ. eigenvalues --  -10.22134  -3.14826  -3.13650  -1.87669  -1.87209
 Alpha  occ. eigenvalues --   -1.87036  -1.86492  -1.86001  -1.85896  -1.12835
 Alpha  occ. eigenvalues --   -1.08682  -1.06577  -1.04097  -1.03776  -1.03199
 Alpha  occ. eigenvalues --   -1.02038  -1.01541  -1.00437  -0.99859  -0.98678
 Alpha  occ. eigenvalues --   -0.98229  -0.97886  -0.97284  -0.96086  -0.95984
 Alpha  occ. eigenvalues --   -0.87370  -0.87009  -0.83834  -0.82939  -0.82931
 Alpha  occ. eigenvalues --   -0.82339  -0.82194  -0.82025  -0.81907  -0.81643
 Alpha  occ. eigenvalues --   -0.81318  -0.81117  -0.80806  -0.80364  -0.78593
 Alpha  occ. eigenvalues --   -0.78268  -0.78181  -0.77621  -0.77001  -0.76530
 Alpha  occ. eigenvalues --   -0.76229  -0.75788  -0.75478  -0.75183  -0.75020
 Alpha  occ. eigenvalues --   -0.74191  -0.73277  -0.72052  -0.72051  -0.71374
 Alpha  occ. eigenvalues --   -0.71275  -0.71005  -0.70224  -0.70092  -0.69581
 Alpha  occ. eigenvalues --   -0.69341  -0.67706  -0.67342  -0.66746  -0.65635
 Alpha  occ. eigenvalues --   -0.63409  -0.63227  -0.63061  -0.62950  -0.62314
 Alpha  occ. eigenvalues --   -0.62309  -0.61623  -0.60860  -0.60433  -0.60255
 Alpha  occ. eigenvalues --   -0.60093  -0.60028  -0.59161  -0.59063  -0.59014
 Alpha  occ. eigenvalues --   -0.58383  -0.56906  -0.55830  -0.55078  -0.54730
 Alpha  occ. eigenvalues --   -0.54438  -0.53917  -0.53909  -0.53534  -0.53035
 Alpha  occ. eigenvalues --   -0.52744  -0.52586  -0.52318  -0.51878  -0.51820
 Alpha  occ. eigenvalues --   -0.51492  -0.50683  -0.50343  -0.50295  -0.50004
 Alpha  occ. eigenvalues --   -0.49501  -0.49023  -0.48835  -0.48552  -0.48491
 Alpha  occ. eigenvalues --   -0.48096  -0.47795  -0.47752  -0.47739  -0.47540
 Alpha  occ. eigenvalues --   -0.47077  -0.47024  -0.47005  -0.46799  -0.46658
 Alpha  occ. eigenvalues --   -0.46511  -0.46369  -0.46201  -0.46095  -0.45729
 Alpha  occ. eigenvalues --   -0.45557  -0.45502  -0.45080  -0.45065  -0.44985
 Alpha  occ. eigenvalues --   -0.44481  -0.44426  -0.44398  -0.44238  -0.44048
 Alpha  occ. eigenvalues --   -0.43813  -0.43773  -0.43521  -0.43427  -0.43271
 Alpha  occ. eigenvalues --   -0.43263  -0.43041  -0.42960  -0.42652  -0.42592
 Alpha  occ. eigenvalues --   -0.42471  -0.42439  -0.42306  -0.42167  -0.42017
 Alpha  occ. eigenvalues --   -0.41682  -0.41663  -0.41532  -0.41339  -0.41070
 Alpha  occ. eigenvalues --   -0.41021  -0.40925  -0.40894  -0.40411  -0.40307
 Alpha  occ. eigenvalues --   -0.40254  -0.40149  -0.39739  -0.39735  -0.39657
 Alpha  occ. eigenvalues --   -0.39495  -0.39230  -0.38993  -0.38939  -0.38789
 Alpha  occ. eigenvalues --   -0.38736  -0.38460  -0.38404  -0.38374  -0.38144
 Alpha  occ. eigenvalues --   -0.38140  -0.37873  -0.37788  -0.37748  -0.37491
 Alpha  occ. eigenvalues --   -0.37477  -0.37242  -0.36864  -0.36771  -0.36621
 Alpha  occ. eigenvalues --   -0.36475  -0.36374  -0.36207  -0.35970  -0.35867
 Alpha  occ. eigenvalues --   -0.35693  -0.35649  -0.35637  -0.35519  -0.35272
 Alpha  occ. eigenvalues --   -0.35168  -0.35012  -0.34486  -0.34082  -0.33972
 Alpha  occ. eigenvalues --   -0.33496  -0.32878  -0.32667  -0.32461  -0.32440
 Alpha  occ. eigenvalues --   -0.32074  -0.31927  -0.31560  -0.31532  -0.31195
 Alpha  occ. eigenvalues --   -0.31041  -0.30677  -0.29791  -0.29599  -0.29177
 Alpha  occ. eigenvalues --   -0.28954  -0.28792  -0.28251  -0.27420  -0.27125
 Alpha  occ. eigenvalues --   -0.26132  -0.26046  -0.25946  -0.25575  -0.25459
 Alpha  occ. eigenvalues --   -0.25293  -0.25156  -0.25015  -0.21111  -0.20672
 Alpha  occ. eigenvalues --   -0.19312  -0.18599
 Alpha virt. eigenvalues --   -0.11173  -0.10995  -0.06068  -0.04911  -0.04424
 Alpha virt. eigenvalues --   -0.03621  -0.02145  -0.01903  -0.00544  -0.00321
 Alpha virt. eigenvalues --   -0.00032   0.00557   0.01154   0.01412   0.01624

 Mulliken charges:
               1
     1  Mg  11.999986
     2  C    6.000032
     3  C    6.000027
     4  C    5.999976
     5  C    5.999976
     6  N    7.000024
     7  C    5.999975
     8  C    6.000008
     9  C    5.999979
    10  C    5.999996
    11  C    5.999997
    12  C    6.000001
    13  C    5.999996
    14  H    1.000035
    15  N    6.999991
    16  C    5.999989
    17  C    6.000017
    18  C    5.999983
    19  C    6.000032
    20  C    5.999993
    21  C    6.000012
    22  O    7.999996
    23  C    6.000005
    24  N    6.999982
    25  C    6.000045
    26  C    5.999979
    27  C    6.000010
    28  C    6.000010
    29  C    6.000014
    30  C    6.000007
    31  C    5.999999
    32  N    7.000006
    33  C    6.000005
    34  C    5.999978
    35  C    6.000010
    36  C    5.999985
    37  C    6.000007
    38  C    5.999995
    39  O    7.999994
    40  C    6.000003
    41  C    5.999993
    42  O    7.999967
    43  O    8.000022
    44  C    5.999995
    45  H    1.000010
    46  H    0.999992
    47  H    0.999981
    48  H    1.000030
    49  H    0.999992
    50  H    1.000047
    51  H    1.000030
    52  H    1.000011
    53  H    0.999973
    54  H    0.999981
    55  H    0.999965
    56  H    0.999995
    57  H    0.999985
    58  H    1.000008
    59  H    1.000048
    60  H    1.000033
    61  H    0.999992
    62  H    0.999971
    63  H    0.999967
    64  H    1.000023
    65  H    1.000031
    66  H    1.000000
    67  H    0.999971
    68  H    0.999985
    69  H    0.999963
    70  H    1.000023
    71  H    0.999995
    72  H    0.999963
    73  H    0.999955
    74  H    1.000006
    75  H    0.999989
    76  H    1.000043
    77  H    1.000037
    78  H    0.999989
    79  H    0.999982
    80  Mg  11.997284
    81  C    6.017413
    82  C    5.988857
    83  C    5.979065
    84  C    5.996167
    85  N    7.006238
    86  C    5.972366
    87  C    6.009185
    88  C    5.991565
    89  C    6.028454
    90  C    5.996890
    91  C    6.003589
    92  C    6.002237
    93  H    0.996328
    94  N    6.995420
    95  C    6.043499
    96  C    6.015947
    97  C    6.015566
    98  C    6.037893
    99  C    5.998292
   100  C    6.012892
   101  O    8.029616
   102  C    5.994637
   103  N    6.990468
   104  C    6.032569
   105  C    5.991998
   106  C    6.010449
   107  C    5.976890
   108  C    5.996315
   109  C    6.006351
   110  C    5.996037
   111  N    7.003800
   112  C    5.971334
   113  C    5.969200
   114  C    6.000932
   115  C    5.970052
   116  C    5.999447
   117  C    5.981772
   118  O    7.972780
   119  C    5.998823
   120  C    5.997915
   121  O    7.989628
   122  O    8.000797
   123  C    6.004883
   124  H    1.010773
   125  H    1.004275
   126  H    0.988340
   127  H    1.000422
   128  H    1.000237
   129  H    0.996521
   130  H    1.004709
   131  H    1.012414
   132  H    0.988971
   133  H    1.004082
   134  H    0.996029
   135  H    1.003646
   136  H    1.015066
   137  H    1.016747
   138  H    1.016034
   139  H    1.008025
   140  H    1.014052
   141  H    1.007154
   142  H    0.998765
   143  H    0.996876
   144  H    0.991860
   145  H    1.011080
   146  H    1.004474
   147  H    0.991181
   148  H    1.005890
   149  H    0.992095
   150  H    1.001121
   151  H    0.998341
   152  H    0.981608
   153  H    0.984140
   154  H    0.987290
   155  H    0.988980
   156  H    0.997304
   157  H    0.996996
   158  H    0.992662
 Sum of Mulliken charges = 624.00000

 Dipole moment (field-independent basis, Debye):
    X=              9.7755    Y=             -0.4400    Z=             -3.3446  Tot=             10.3412
 Quadrupole moment (field-independent basis, Debye-Ang):
   XX=            470.9422   YY=             -2.0210   ZZ=              0.8862
   XY=            -15.3175   XZ=            -83.3773   YZ=              2.0996

 Normal termination of Gaussian 16 at Thu Oct 14 07:42:06 2021.
