 Gaussian 16, Revision A.03,
 Gaussian 16:  ES64L-G16RevA.03 25-Dec-2016

 --------------------------------------------------------
 #p PBE1PBE/Def2SVP td=(nstates=5) density=(transition=1)
 --------------------------------------------------------

 --------------------------------
 TDDFT excited states in gaussian
 --------------------------------
 Symbolic Z-matrix:
 Charge =  0 Multiplicity = 1

                         Standard orientation:
 ---------------------------------------------------------------------
 Center     Atomic      Atomic             Coordinates (Angstroms)
 Number     Number       Type             X           Y           Z
 ---------------------------------------------------------------------
      1         12           0       -9.554759   -0.936382    0.527155
      2          6           0       -9.779243    2.469542   -0.213307
      3          6           0       -7.397109   -0.042600    3.142519
      4          6           0       -8.793449   -4.157490    1.020968
      5          6           0      -10.790620   -1.636457   -2.607465
      6          7           0       -8.736430    1.043609    1.475520
      7          6           0       -8.969315    2.251982    0.897568
      8          6           0       -8.218898    3.397305    1.686187
      9          6           0       -7.244559    2.517037    2.620483
     10          6           0       -7.764192    1.087874    2.390934
     11          6           0       -5.801815    2.609999    2.008232
     12          6           0       -9.294665    4.155150    2.547838
     13          6           0       -8.786310    5.251418    3.523330
     14          1           0       -9.188443    5.508520    4.945140
     15          7           0       -8.447301   -1.924312    2.001246
     16          6           0       -7.645007   -1.414875    3.035891
     17          6           0       -7.089196   -2.503407    3.723709
     18          6           0       -7.625026   -3.693620    3.250293
     19          6           0       -8.334824   -3.288843    2.048081
     20          6           0       -6.221823   -2.273133    4.917707
     21          6           0       -7.406110   -5.171664    3.713594
     22          8           0       -7.954543   -6.150170    3.217927
     23          6           0       -6.635067   -5.517347    4.990440
     24          7           0       -9.665905   -2.611158   -0.691740
     25          6           0       -9.422200   -3.843086   -0.191539
     26          6           0       -9.900239   -4.987422   -1.106604
     27          6           0      -10.412476   -4.180582   -2.331916
     28          6           0      -10.412611   -2.741873   -1.847237
     29          6           0       -8.845558   -6.120355   -1.336230
     30          6           0      -11.760095   -4.625803   -2.963177
     31          6           0      -12.979865   -4.272488   -2.223100
     32          7           0      -10.259774    0.138020   -1.072718
     33          6           0      -10.717525   -0.250056   -2.240388
     34          6           0      -11.225186    0.875014   -3.032304
     35          6           0      -10.852216    1.983464   -2.206764
     36          6           0      -10.244837    1.499551   -1.064591
     37          6           0      -12.213723    0.874090   -4.102757
     38          6           0      -10.921930    3.432344   -2.132558
     39          8           0      -11.469588    4.234303   -2.854634
     40          6           0      -10.150400    3.776670   -0.852792
     41          6           0       -8.984615    4.731217   -1.131540
     42          8           0       -7.927782    4.394020   -1.598391
     43          8           0       -9.369840    6.017279   -0.837112
     44          6           0       -8.288493    7.001344   -1.073519
     45          1           0       -6.834396    0.254102    4.029122
     46          1           0       -8.753716   -5.224658    1.250201
     47          1           0      -11.262834   -2.126679   -3.460583
     48          1           0       -7.616360    4.029167    1.033158
     49          1           0       -7.229625    2.814872    3.669638
     50          1           0       -5.439754    1.729482    1.478445
     51          1           0       -5.037143    2.597305    2.785291
     52          1           0       -5.657021    3.461988    1.344274
     53          1           0       -9.859146    3.400073    3.094270
     54          1           0      -10.020883    4.572894    1.850034
     55          1           0       -8.878416    6.172172    2.946537
     56          1           0       -7.741486    4.958146    3.617706
     57          1           0       -6.011583   -1.229967    5.155237
     58          1           0       -5.349264   -2.921263    4.825263
     59          1           0       -6.825052   -2.645776    5.746023
     60          1           0       -5.570247   -5.290632    4.935852
     61          1           0       -6.797817   -6.529845    5.360192
     62          1           0       -7.087223   -4.926273    5.787081
     63          1           0      -10.704455   -5.347634   -0.465662
     64          1           0       -9.603679   -4.264531   -3.057799
     65          1           0       -8.183849   -6.217699   -0.476189
     66          1           0       -8.237964   -5.873048   -2.207125
     67          1           0       -9.301896   -7.101547   -1.468700
     68          1           0      -11.634611   -5.707768   -2.990016
     69          1           0      -11.801652   -4.304674   -4.004149
     70          1           0      -13.268490   -3.250174   -2.466860
     71          1           0      -12.848497   -4.428184   -1.152483
     72          1           0      -13.836897   -4.864901   -2.544857
     73          1           0      -12.800232   -0.029700   -3.935930
     74          1           0      -11.892650    0.757727   -5.137997
     75          1           0      -12.781176    1.798351   -3.999215
     76          1           0      -10.852565    4.239422   -0.158521
     77          1           0       -8.740025    7.928379   -1.426324
     78          1           0       -7.622601    6.791335   -1.910796
     79          1           0       -7.763250    7.234126   -0.147787
     80         12           0        9.440732   -0.475513   -0.498538
     81          6           0        7.444378    2.324409   -0.745456
     82          6           0       11.975630    1.701084    0.791662
     83          6           0       11.549275   -2.966792   -0.525706
     84          6           0        7.026010   -2.393958   -2.065026
     85          7           0        9.710647    1.852894   -0.233690
     86          6           0        8.683803    2.685385   -0.195625
     87          6           0        9.039214    3.972297    0.601329
     88          6           0       10.604974    3.902665    0.534297
     89          6           0       10.841777    2.394476    0.355666
     90          6           0       11.191430    4.744931   -0.653933
     91          6           0        8.455784    3.773331    2.017956
     92          6           0        8.543446    4.973954    2.969926
     93          1           0        9.390332    6.176451    2.604427
     94          7           0       11.408977   -0.725375    0.122352
     95          6           0       12.258024    0.302817    0.658896
     96          6           0       13.455461   -0.376182    1.134878
     97          6           0       13.285479   -1.766989    0.849376
     98          6           0       12.048609   -1.887138    0.078826
     99          6           0       14.654115    0.328406    1.873096
    100          6           0       14.217862   -2.941842    1.294271
    101          8           0       13.987658   -4.038586    0.863713
    102          6           0       15.381403   -2.689114    2.197075
    103          7           0        9.268953   -2.454821   -1.122770
    104          6           0       10.292401   -3.334025   -1.034410
    105          6           0        9.967840   -4.700455   -1.636923
    106          6           0        8.472762   -4.541773   -1.998312
    107          6           0        8.232764   -3.004779   -1.706628
    108          6           0       10.854751   -5.132678   -2.861883
    109          6           0        7.502294   -5.513997   -1.377562
    110          6           0        7.546775   -5.840080    0.134808
    111          7           0        7.606347   -0.188272   -1.288844
    112          6           0        6.722069   -1.041256   -1.884799
    113          6           0        5.499988   -0.298770   -2.110815
    114          6           0        5.684126    1.052436   -1.656658
    115          6           0        7.020991    1.047471   -1.172641
    116          6           0        4.269170   -0.881127   -2.732571
    117          6           0        5.124949    2.358224   -1.552052
    118          8           0        4.022893    2.842103   -1.890670
    119          6           0        6.411800    3.281041   -1.188034
    120          6           0        5.914151    4.355000   -0.219245
    121          8           0        5.330248    4.157332    0.776873
    122          8           0        6.231749    5.574804   -0.745392
    123          6           0        6.195147    6.725192    0.133984
    124          1           0       12.763642    2.380881    1.120992
    125          1           0       12.227531   -3.818917   -0.605329
    126          1           0        6.231069   -2.938424   -2.577451
    127          1           0        8.714386    4.877935    0.089282
    128          1           0       10.914646    4.250920    1.519946
    129          1           0       11.625953    5.664714   -0.264352
    130          1           0       10.378036    4.947667   -1.350897
    131          1           0       12.012698    4.251189   -1.173469
    132          1           0        9.042027    2.992357    2.501514
    133          1           0        7.454678    3.344034    1.992379
    134          1           0        8.634962    4.685168    4.017222
    135          1           0        7.518007    5.338987    3.030591
    136          1           0       15.618746    0.078137    1.430565
    137          1           0       14.567641    0.030822    2.917992
    138          1           0       14.491826    1.406901    1.881433
    139          1           0       15.479211   -3.648290    2.706006
    140          1           0       15.153423   -1.974558    2.987156
    141          1           0       16.277864   -2.195527    1.821900
    142          1           0       10.112530   -5.407589   -0.820450
    143          1           0        8.289289   -4.570853   -3.072343
    144          1           0       10.189367   -5.691701   -3.519264
    145          1           0       11.594253   -5.781691   -2.392358
    146          1           0       11.368971   -4.269237   -3.283843
    147          1           0        7.884063   -6.446965   -1.790839
    148          1           0        6.443806   -5.388467   -1.607933
    149          1           0        7.753782   -6.866349    0.435250
    150          1           0        6.566843   -5.718026    0.596201
    151          1           0        8.309158   -5.223325    0.610937
    152          1           0        3.564623   -0.053879   -2.813584
    153          1           0        3.821341   -1.612680   -2.058641
    154          1           0        4.431664   -1.441260   -3.652941
    155          1           0        6.760443    3.660896   -2.148600
    156          1           0        5.538901    7.260110   -0.552681
    157          1           0        7.179886    7.124775    0.377243
    158          1           0        5.655946    6.562259    1.067523
 ---------------------------------------------------------------------

 SCF Done:  E(RPBE1PBE) =  -4067.38629940     A.U. after   16 cycles

 Excitation energies and oscillator strengths:

 Excited State   1:      Singlet-A      1.8501 eV  670.15 nm  f=0.0000  <S**2>=0.000
     312 -> 313        0.70706
 This state for optimization and/or second-order correction.
 Total Energy, E(TD-HF/TD-DFT) =  -4067.31830964
 Copying the excited state density for this state as the 1-particle RhoCI density.

 Excited State   2:      Singlet-A      1.8839 eV  658.13 nm  f=0.5822  <S**2>=0.000
     310 -> 316       -0.16387
     311 -> 313        0.27872
     312 -> 314        0.63209

 Excited State   3:      Singlet-A      1.8862 eV  657.31 nm  f=0.1662  <S**2>=0.000
     309 -> 315       -0.17404
     311 -> 313        0.62906
     312 -> 314       -0.27993

 Excited State   4:      Singlet-A      1.9937 eV  621.87 nm  f=0.0000  <S**2>=0.000
     311 -> 314        0.70709

 Excited State   5:      Singlet-A      2.2140 eV  560.00 nm  f=0.0799  <S**2>=0.000
     309 -> 313        0.64918
     311 -> 315        0.26379

 The electronic state is 1-A.
 Alpha  occ. eigenvalues --  -46.91946 -46.91680 -19.26235 -19.25056 -19.20434
 Alpha  occ. eigenvalues --  -19.20406 -19.19376 -19.19369 -19.19208 -19.18932
 Alpha  occ. eigenvalues --  -14.41374 -14.41267 -14.41192 -14.40576 -14.39031
 Alpha  occ. eigenvalues --  -14.38939 -14.38662 -14.38601 -10.36580 -10.35901
 Alpha  occ. eigenvalues --  -10.33056 -10.32479 -10.32168 -10.31523 -10.28828
 Alpha  occ. eigenvalues --  -10.28704 -10.28486 -10.28398 -10.28386 -10.28304
 Alpha  occ. eigenvalues --  -10.28302 -10.28268 -10.28174 -10.28061 -10.27669
 Alpha  occ. eigenvalues --  -10.27641 -10.27323 -10.27238 -10.26967 -10.26952
 Alpha  occ. eigenvalues --  -10.26712 -10.26326 -10.26277 -10.26216 -10.26199
 Alpha  occ. eigenvalues --  -10.26180 -10.26003 -10.25901 -10.25648 -10.25645
 Alpha  occ. eigenvalues --  -10.25561 -10.25437 -10.25417 -10.25406 -10.25339
 Alpha  occ. eigenvalues --  -10.25335 -10.25298 -10.25271 -10.25246 -10.25132
 Alpha  occ. eigenvalues --  -10.25075 -10.24911 -10.24800 -10.24477 -10.24369
 Alpha  occ. eigenvalues --  -10.24362 -10.24335 -10.24202 -10.24100 -10.24095
 Alpha  occ. eigenvalues --  -10.23825 -10.23776 -10.23720 -10.23682 -10.23561
 Alpha  occ. eigenvalues --  -10.23396 -10.23393 -10.23368 -10.23147 -10.22976
 Alpha  occ. eigenvalues --  -10.22910 -10.22725 -10.22709 -10.22654 -10.22464
 Alpha  occ. eigenvalues --  -10.21974  -3.14086  -3.13895  -1.86913  -1.86737
 Alpha  occ. eigenvalues --   -1.86475  -1.86296  -1.86286  -1.86109  -1.12379
 Alpha  occ. eigenvalues --   -1.11376  -1.06347  -1.04933  -1.04867  -1.04646
 Alpha  occ. eigenvalues --   -1.03386  -1.02685  -0.99891  -0.99597  -0.98676
 Alpha  occ. eigenvalues --   -0.98163  -0.97813  -0.97701  -0.96845  -0.96835
 Alpha  occ. eigenvalues --   -0.88068  -0.87354  -0.83674  -0.83591  -0.83068
 Alpha  occ. eigenvalues --   -0.82797  -0.82628  -0.82225  -0.81669  -0.81543
 Alpha  occ. eigenvalues --   -0.81383  -0.80717  -0.80460  -0.79964  -0.78380
 Alpha  occ. eigenvalues --   -0.78116  -0.78018  -0.77830  -0.76740  -0.76486
 Alpha  occ. eigenvalues --   -0.75981  -0.75754  -0.75539  -0.74991  -0.74627
 Alpha  occ. eigenvalues --   -0.74523  -0.72568  -0.72348  -0.71756  -0.71685
 Alpha  occ. eigenvalues --   -0.71099  -0.70762  -0.70273  -0.70202  -0.69912
 Alpha  occ. eigenvalues --   -0.68965  -0.67109  -0.66812  -0.66469  -0.66023
 Alpha  occ. eigenvalues --   -0.64650  -0.64236  -0.63433  -0.63315  -0.62599
 Alpha  occ. eigenvalues --   -0.62528  -0.61185  -0.60705  -0.59682  -0.59653
 Alpha  occ. eigenvalues --   -0.59436  -0.59018  -0.58842  -0.58785  -0.58652
 Alpha  occ. eigenvalues --   -0.58421  -0.56915  -0.56908  -0.55096  -0.54371
 Alpha  occ. eigenvalues --   -0.54213  -0.53860  -0.53739  -0.53739  -0.53395
 Alpha  occ. eigenvalues --   -0.52849  -0.52743  -0.52698  -0.52397  -0.51773
 Alpha  occ. eigenvalues --   -0.50897  -0.50776  -0.50616  -0.50259  -0.50006
 Alpha  occ. eigenvalues --   -0.49948  -0.49870  -0.49628  -0.48999  -0.48812
 Alpha  occ. eigenvalues --   -0.48345  -0.48301  -0.48097  -0.47684  -0.47624
 Alpha  occ. eigenvalues --   -0.47408  -0.47145  -0.47019  -0.46757  -0.46663
 Alpha  occ. eigenvalues --   -0.46616  -0.46572  -0.46288  -0.45525  -0.45406
 Alpha  occ. eigenvalues --   -0.45383  -0.45280  -0.45198  -0.44784  -0.44647
 Alpha  occ. eigenvalues --   -0.44563  -0.44357  -0.44285  -0.44133  -0.44023
 Alpha  occ. eigenvalues --   -0.43954  -0.43925  -0.43894  -0.43636  -0.43369
 Alpha  occ. eigenvalues --   -0.43342  -0.43252  -0.42933  -0.42809  -0.42790
 Alpha  occ. eigenvalues --   -0.42653  -0.42360  -0.42325  -0.41966  -0.41615
 Alpha  occ. eigenvalues --   -0.41553  -0.41438  -0.41277  -0.41151  -0.40693
 Alpha  occ. eigenvalues --   -0.40660  -0.40658  -0.40552  -0.40390  -0.40243
 Alpha  occ. eigenvalues --   -0.39956  -0.39938  -0.39714  -0.39682  -0.39539
 Alpha  occ. eigenvalues --   -0.39536  -0.39282  -0.39015  -0.38869  -0.38722
 Alpha  occ. eigenvalues --   -0.38658  -0.38488  -0.38261  -0.38211  -0.38181
 Alpha  occ. eigenvalues --   -0.37996  -0.37808  -0.37802  -0.37730  -0.37612
 Alpha  occ. eigenvalues --   -0.37512  -0.37241  -0.37203  -0.37052  -0.36998
 Alpha  occ. eigenvalues --   -0.36969  -0.36839  -0.36691  -0.36627  -0.36482
 Alpha  occ. eigenvalues --   -0.36423  -0.36331  -0.35847  -0.35428  -0.35123
 Alpha  occ. eigenvalues --   -0.34910  -0.34486  -0.34433  -0.34411  -0.33716
 Alpha  occ. eigenvalues --   -0.33347  -0.33184  -0.32837  -0.32641  -0.32556
 Alpha  occ. eigenvalues --   -0.32491  -0.32186  -0.32040  -0.31619  -0.31325
 Alpha  occ. eigenvalues --   -0.31230  -0.30899  -0.30161  -0.29594  -0.29323
 Alpha  occ. eigenvalues --   -0.29147  -0.28850  -0.28547  -0.26977  -0.26771
 Alpha  occ. eigenvalues --   -0.26053  -0.25733  -0.25638  -0.25571  -0.25367
 Alpha  occ. eigenvalues --   -0.25253  -0.25006  -0.24811  -0.20770  -0.20543
 Alpha  occ. eigenvalues --   -0.18749  -0.18480
 Alpha virt. eigenvalues --   -0.10959  -0.10719  -0.05365  -0.04673  -0.04026
 Alpha virt. eigenvalues --   -0.03611  -0.01939  -0.01825  -0.00411   0.00248
 Alpha virt. eigenvalues --    0.00762   0.01253   0.01442   0.01530   0.01809

 Mulliken charges:
               1
     1  Mg  12.000000
     2  C    6.000000
     3  C    6.000000
     4  C    6.000000
     5  C    6.000000
     6  N    7.000000
     7  C    6.000000
     8  C    6.000000
     9  C    6.000000
    10  C    6.000000
    11  C    6.000000
    12  C    6.000000
    13  C    6.000000
    14  H    1.000000
    15  N    7.000000
    16  C    6.000000
    17  C    6.000000
    18  C    6.000000
    19  C    6.000000
    20  C    6.000000
    21  C    6.000000
    22  O    8.000000
    23  C    6.000000
    24  N    7.000000
    25  C    6.000000
    26  C    6.000000
    27  C    6.000000
    28  C    6.000000
    29  C    6.000000
    30  C    6.000000
    31  C    6.000000
    32  N    7.000000
    33  C    6.000000
    34  C    6.000000
    35  C    6.000000
    36  C    6.000000
    37  C    6.000000
    38  C    6.000000
    39  O    8.000000
    40  C    6.000000
    41  C    6.000000
    42  O    8.000000
    43  O    8.000000
    44  C    6.000000
    45  H    1.000000
    46  H    1.000000
    47  H    1.000000
    48  H    1.000000
    49  H    1.000000
    50  H    1.000000
    51  H    1.000000
    52  H    1.000000
    53  H    1.000000
    54  H    1.000000
    55  H    1.000000
    56  H    1.000000
    57  H    1.000000
    58  H    1.000000
    59  H    1.000000
    60  H    1.000000
    61  H    1.000000
    62  H    1.000000
    63  H    1.000000
    64  H    1.000000
    65  H    1.000000
    66  H    1.000000
    67  H    1.000000
    68  H    1.000000
    69  H    1.000000
    70  H    1.000000
    71  H    1.000000
    72  H    1.000000
    73  H    1.000000
    74  H    1.000000
    75  H    1.000000
    76  H    1.000000
    77  H    1.000000
    78  H    1.000000
    79  H    1.000000
    80  Mg  12.000000
    81  C    6.000000
    82  C    6.000000
    83  C    6.000000
    84  C    6.000000
    85  N    7.000000
    86  C    6.000000
    87  C    6.000000
    88  C    6.000000
    89  C    6.000000
    90  C    6.000000
    91  C    6.000000
    92  C    6.000000
    93  H    1.000000
    94  N    7.000000
    95  C    6.000000
    96  C    6.000000
    97  C    6.000000
    98  C    6.000000
    99  C    6.000000
   100  C    6.000000
   101  O    8.000000
   102  C    6.000000
   103  N    7.000000
   104  C    6.000000
   105  C    6.000000
   106  C    6.000000
   107  C    6.000000
   108  C    6.000000
   109  C    6.000000
   110  C    6.000000
   111  N    7.000000
   112  C    6.000000
   113  C    6.000000
   114  C    6.000000
   115  C    6.000000
   116  C    6.000000
   117  C    6.000000
   118  O    8.000000
   119  C    6.000000
   120  C    6.000000
   121  O    8.000000
   122  O    8.000000
   123  C    6.000000
   124  H    1.000000
   125  H    1.000000
   126  H    1.000000
   127  H    1.000000
   128  H    1.000000
   129  H    1.000000
   130  H    1.000000
   131  H    1.000000
   132  H    1.000000
   133  H    1.000000
   134  H    1.000000
   135  H    1.000000
   136  H    1.000000
   137  H    1.000000
   138  H    1.000000
   139  H    1.000000
   140  H    1.000000
   141  H    1.000000
   142  H    1.000000
   143  H    1.000000
   144  H    1.000000
   145  H    1.000000
   146  H    1.000000
   147  H    1.000000
   148  H    1.000000
   149  H    1.000000
   150  H    1.000000
   151  H    1.000000
   152  H    1.000000
   153  H    1.000000
   154  H    1.000000
   155  H    1.000000
   156  H    1.000000
   157  H    1.000000
   158  H    1.000000
 Sum of Mulliken charges = 624.00000

 Dipole moment (field-independent basis, Debye):
    X=             -0.0000    Y=              0.0000    Z=             -0.0000  Tot=              0.0000
 Quadrupole moment (field-independent basis, Debye-Ang):
   XX=              0.0000   YY=             -0.0000   ZZ=             -0.0000
   XY=             -0.0000   XZ=              0.0000   YZ=              0.0000

 Normal termination of Gaussian 16 at Thu Oct 14 01:03:55 2021.
