 Gaussian 16, Revision A.03,
 Gaussian 16:  ES64L-G16RevA.03 25-Dec-2016

 --------------------------------------------------------
 #p PBE1PBE/Def2SVP td=(nstates=5) density=(transition=1)
 --------------------------------------------------------

 --------------------------------
 TDDFT excited states in gaussian
 --------------------------------
 Symbolic Z-matrix:
 Charge =  0 Multiplicity = 1

                         Standard orientation:
 ---------------------------------------------------------------------
 Center     Atomic      Atomic             Coordinates (Angstroms)
 Number     Number       Type             X           Y           Z
 ---------------------------------------------------------------------
      1         12           0      -30.001293    0.133884    0.277817
      2          6           0      -28.017948   -1.969149   -1.682436
      3          6           0      -29.297273    2.665475   -2.043784
      4          6           0      -31.392246    2.402927    2.306529
      5          6           0      -29.706123   -2.107815    2.872226
      6          7           0      -28.855460    0.325610   -1.756816
      7          6           0      -28.105581   -0.698536   -2.243883
      8          6           0      -27.365720   -0.261787   -3.570029
      9          6           0      -27.598656    1.332117   -3.521752
     10          6           0      -28.597501    1.488125   -2.362792
     11          6           0      -26.242224    1.988723   -3.081344
     12          6           0      -28.142075   -0.909826   -4.774755
     13          6           0      -27.688248   -0.522953   -6.208695
     14          1           0      -28.527518   -0.163953   -7.398694
     15          7           0      -30.460114    2.160706    0.039304
     16          6           0      -30.136039    3.054947   -0.994620
     17          6           0      -30.650755    4.313416   -0.650751
     18          6           0      -31.417336    4.218711    0.503038
     19          6           0      -31.117314    2.885416    0.998300
     20          6           0      -30.504604    5.466130   -1.589305
     21          6           0      -32.262111    5.293913    1.262960
     22          8           0      -32.916038    5.082189    2.278584
     23          6           0      -32.524718    6.683967    0.677191
     24          7           0      -30.360952    0.161962    2.320558
     25          6           0      -31.077717    1.162838    2.878891
     26          6           0      -31.564865    0.851751    4.307625
     27          6           0      -30.905198   -0.535852    4.540351
     28          6           0      -30.389359   -0.929433    3.167835
     29          6           0      -31.306983    1.993798    5.345818
     30          6           0      -31.773769   -1.631227    5.217499
     31          6           0      -32.803140   -2.263248    4.380045
     32          7           0      -29.154374   -1.713154    0.564450
     33          6           0      -29.109115   -2.488545    1.622898
     34          6           0      -28.490924   -3.785118    1.327309
     35          6           0      -28.052486   -3.580503   -0.019981
     36          6           0      -28.436321   -2.316355   -0.422770
     37          6           0      -28.662163   -5.062001    2.007989
     38          6           0      -27.380200   -4.248206   -1.120810
     39          8           0      -26.992866   -5.389115   -1.233773
     40          6           0      -27.283280   -3.169531   -2.206484
     41          6           0      -25.832774   -2.922525   -2.634198
     42          8           0      -25.042036   -2.267374   -2.006459
     43          8           0      -25.573619   -3.622858   -3.788067
     44          6           0      -24.187400   -3.426665   -4.271272
     45          1           0      -29.179990    3.406438   -2.836226
     46          1           0      -32.033751    3.038594    2.920835
     47          1           0      -29.877502   -2.678550    3.786558
     48          1           0      -26.295865   -0.469765   -3.539973
     49          1           0      -27.943312    1.769774   -4.459475
     50          1           0      -26.191069    2.362304   -2.059143
     51          1           0      -26.091954    2.955209   -3.563038
     52          1           0      -25.372385    1.349126   -3.229618
     53          1           0      -29.197793   -0.675942   -4.640124
     54          1           0      -28.092329   -1.990376   -4.637748
     55          1           0      -26.990713   -1.315684   -6.480700
     56          1           0      -27.156180    0.404476   -6.000481
     57          1           0      -29.927919    5.269434   -2.493497
     58          1           0      -30.187611    6.331943   -1.006329
     59          1           0      -31.524807    5.649859   -1.927368
     60          1           0      -31.634383    7.309702    0.614107
     61          1           0      -33.347780    7.225993    1.143165
     62          1           0      -32.920111    6.520688   -0.325534
     63          1           0      -32.628024    0.786360    4.077974
     64          1           0      -30.029606   -0.311055    5.149377
     65          1           0      -31.313415    2.969902    4.861891
     66          1           0      -30.328499    1.847265    5.803952
     67          1           0      -32.074672    2.043489    6.118291
     68          1           0      -32.238326   -1.065038    6.024178
     69          1           0      -31.128252   -2.364485    5.701353
     70          1           0      -32.352205   -3.063493    3.793431
     71          1           0      -33.313772   -1.525290    3.761665
     72          1           0      -33.555946   -2.776729    4.978880
     73          1           0      -29.626215   -4.979710    2.510476
     74          1           0      -27.994268   -5.335431    2.824998
     75          1           0      -28.626703   -5.830068    1.236111
     76          1           0      -27.870881   -3.507363   -3.060756
     77          1           0      -23.847193   -4.358045   -4.723531
     78          1           0      -23.423478   -3.306047   -3.502882
     79          1           0      -24.148798   -2.662383   -5.046790
     80         12           0       29.562339    0.605399   -0.366826
     81          6           0       27.783282   -2.344008   -0.111124
     82          6           0       26.586930    2.312860   -0.080745
     83          6           0       31.354408    3.514990   -0.017580
     84          6           0       32.505384   -1.172765   -0.533590
     85          7           0       27.477221    0.062965    0.073256
     86          6           0       26.995786   -1.231307    0.060429
     87          6           0       25.480567   -1.276434    0.238992
     88          6           0       25.092180    0.211569   -0.097355
     89          6           0       26.444366    0.900170    0.016703
     90          6           0       24.296274    0.472590   -1.455526
     91          6           0       24.958243   -1.809883    1.611054
     92          6           0       23.813441   -2.798259    1.539604
     93          1           0       22.513644   -2.209064    2.065133
     94          7           0       29.014989    2.588879   -0.076620
     95          6           0       27.773760    3.084080   -0.014855
     96          6           0       27.800663    4.533618    0.076446
     97          6           0       29.108371    4.988473    0.107566
     98          6           0       29.913929    3.693589    0.055709
     99          6           0       26.469371    5.413367    0.224006
    100          6           0       29.591240    6.478197    0.114598
    101          8           0       28.724468    7.395117    0.182218
    102          6           0       31.027676    6.837256    0.095877
    103          7           0       31.713963    1.115309   -0.036521
    104          6           0       32.181322    2.340895   -0.098894
    105          6           0       33.671220    2.389078   -0.365947
    106          6           0       34.156467    0.902521   -0.456838
    107          6           0       32.718743    0.193623   -0.418382
    108          6           0       34.246853    3.405267   -1.403354
    109          6           0       35.118642    0.317455    0.617305
    110          6           0       35.805585   -0.954896    0.166062
    111          7           0       30.068362   -1.397532   -0.318530
    112          6           0       31.335289   -2.003348   -0.484497
    113          6           0       31.137299   -3.425330   -0.556763
    114          6           0       29.741198   -3.637607   -0.449261
    115          6           0       29.190811   -2.371838   -0.267935
    116          6           0       32.176724   -4.466447   -0.944708
    117          6           0       28.789889   -4.634502   -0.467299
    118          8           0       28.806565   -5.835180   -0.479990
    119          6           0       27.428392   -3.847913   -0.092616
    120          6           0       27.220817   -4.160150    1.388590
    121          8           0       27.785537   -3.611829    2.315421
    122          8           0       26.293156   -5.187305    1.453112
    123          6           0       26.025433   -5.721630    2.784451
    124          1           0       25.676599    2.904809   -0.194866
    125          1           0       31.859873    4.477280    0.084092
    126          1           0       33.334701   -1.858128   -0.720510
    127          1           0       25.076554   -1.890148   -0.565613
    128          1           0       24.578966    0.603652    0.781455
    129          1           0       24.542006    1.515668   -1.654490
    130          1           0       23.212093    0.494570   -1.342446
    131          1           0       24.531726   -0.178752   -2.297090
    132          1           0       24.637836   -0.901945    2.122427
    133          1           0       25.707141   -2.141972    2.329764
    134          1           0       24.105367   -3.673070    2.121073
    135          1           0       23.605024   -3.123025    0.520007
    136          1           0       25.540588    4.844513    0.284394
    137          1           0       26.380278    6.114302   -0.606638
    138          1           0       26.415743    5.952410    1.168854
    139          1           0       31.490370    6.438621   -0.806402
    140          1           0       31.513814    6.599271    1.042084
    141          1           0       31.026771    7.902299   -0.132689
    142          1           0       34.292105    2.671313    0.484564
    143          1           0       34.437639    0.616492   -1.470637
    144          1           0       33.435296    4.101362   -1.619756
    145          1           0       34.702068    2.935078   -2.275781
    146          1           0       35.054029    4.028738   -1.018571
    147          1           0       34.522183    0.200305    1.521976
    148          1           0       35.811737    1.132286    0.826268
    149          1           0       36.784786   -0.985196    0.644571
    150          1           0       35.969671   -1.041073   -0.908720
    151          1           0       35.275053   -1.810839    0.583271
    152          1           0       31.761195   -5.456521   -1.132517
    153          1           0       32.923344   -4.496620   -0.152198
    154          1           0       32.709640   -4.174975   -1.849844
    155          1           0       26.619728   -4.104041   -0.777825
    156          1           0       26.923820   -6.204667    3.169092
    157          1           0       25.169615   -6.395800    2.786284
    158          1           0       25.822546   -4.899626    3.470346
 ---------------------------------------------------------------------

 SCF Done:  E(RPBE1PBE) =  -4067.38839659     A.U. after   17 cycles

 Excitation energies and oscillator strengths:

 Excited State   1:      Singlet-A      1.8847 eV  657.86 nm  f=0.2998  <S**2>=0.000
     310 -> 316       -0.17861
     312 -> 314        0.68716
     312 <- 314       -0.10293
 This state for optimization and/or second-order correction.
 Total Energy, E(TD-HF/TD-DFT) =  -4067.31913684
 Copying the excited state density for this state as the 1-particle RhoCI density.

 Excited State   2:      Singlet-A      1.8858 eV  657.46 nm  f=0.4389  <S**2>=0.000
     309 -> 315        0.14415
     311 -> 313        0.68825

 Excited State   3:      Singlet-A      1.9988 eV  620.28 nm  f=0.0000  <S**2>=0.000
     312 -> 313        0.70711

 Excited State   4:      Singlet-A      2.1288 eV  582.43 nm  f=0.0000  <S**2>=0.000
     311 -> 314        0.70711

 Excited State   5:      Singlet-A      2.2484 eV  551.44 nm  f=0.1085  <S**2>=0.000
     310 -> 314        0.65567
     312 -> 316        0.25366

 The electronic state is 1-A.
 Alpha  occ. eigenvalues --  -46.92791 -46.92125 -19.26459 -19.25317 -19.20636
 Alpha  occ. eigenvalues --  -19.20269 -19.20073 -19.19524 -19.19115 -19.18470
 Alpha  occ. eigenvalues --  -14.41717 -14.41583 -14.41565 -14.40749 -14.39974
 Alpha  occ. eigenvalues --  -14.38843 -14.38778 -14.38415 -10.36805 -10.36297
 Alpha  occ. eigenvalues --  -10.33828 -10.33203 -10.31708 -10.30939 -10.30220
 Alpha  occ. eigenvalues --  -10.29681 -10.29063 -10.29008 -10.28682 -10.28537
 Alpha  occ. eigenvalues --  -10.28495 -10.28470 -10.28229 -10.28117 -10.27844
 Alpha  occ. eigenvalues --  -10.27838 -10.27814 -10.27500 -10.27150 -10.26863
 Alpha  occ. eigenvalues --  -10.26837 -10.26454 -10.26419 -10.26361 -10.26201
 Alpha  occ. eigenvalues --  -10.26121 -10.26048 -10.26014 -10.25828 -10.25734
 Alpha  occ. eigenvalues --  -10.25621 -10.25602 -10.25526 -10.25481 -10.25402
 Alpha  occ. eigenvalues --  -10.25394 -10.25322 -10.25263 -10.25261 -10.25133
 Alpha  occ. eigenvalues --  -10.25090 -10.24970 -10.24666 -10.24561 -10.24558
 Alpha  occ. eigenvalues --  -10.24552 -10.24532 -10.24524 -10.24502 -10.24452
 Alpha  occ. eigenvalues --  -10.24285 -10.24276 -10.23854 -10.23851 -10.23834
 Alpha  occ. eigenvalues --  -10.23625 -10.23526 -10.23501 -10.23338 -10.23283
 Alpha  occ. eigenvalues --  -10.23115 -10.23082 -10.22886 -10.22589 -10.22155
 Alpha  occ. eigenvalues --  -10.21438  -3.14813  -3.14266  -1.87636  -1.87190
 Alpha  occ. eigenvalues --   -1.87093  -1.87040  -1.86654  -1.86475  -1.11602
 Alpha  occ. eigenvalues --   -1.10363  -1.05116  -1.05033  -1.05013  -1.03614
 Alpha  occ. eigenvalues --   -1.03481  -1.02887  -0.99778  -0.99162  -0.98375
 Alpha  occ. eigenvalues --   -0.98356  -0.97984  -0.97896  -0.97208  -0.97022
 Alpha  occ. eigenvalues --   -0.88257  -0.86231  -0.83739  -0.83472  -0.82799
 Alpha  occ. eigenvalues --   -0.82758  -0.82442  -0.82174  -0.81731  -0.81552
 Alpha  occ. eigenvalues --   -0.81376  -0.80637  -0.80573  -0.80358  -0.78647
 Alpha  occ. eigenvalues --   -0.78307  -0.77997  -0.77931  -0.77230  -0.76681
 Alpha  occ. eigenvalues --   -0.76350  -0.75722  -0.75188  -0.75164  -0.74696
 Alpha  occ. eigenvalues --   -0.74597  -0.72741  -0.71980  -0.71930  -0.71346
 Alpha  occ. eigenvalues --   -0.70948  -0.70927  -0.70464  -0.69748  -0.69479
 Alpha  occ. eigenvalues --   -0.69175  -0.66992  -0.66939  -0.66209  -0.66112
 Alpha  occ. eigenvalues --   -0.64395  -0.64084  -0.63625  -0.63480  -0.62796
 Alpha  occ. eigenvalues --   -0.62479  -0.61609  -0.61358  -0.60022  -0.59909
 Alpha  occ. eigenvalues --   -0.59846  -0.59217  -0.59215  -0.58957  -0.58707
 Alpha  occ. eigenvalues --   -0.58595  -0.57109  -0.56394  -0.54542  -0.54355
 Alpha  occ. eigenvalues --   -0.54146  -0.54043  -0.53924  -0.53566  -0.53055
 Alpha  occ. eigenvalues --   -0.52988  -0.52897  -0.52525  -0.52064  -0.51939
 Alpha  occ. eigenvalues --   -0.51066  -0.50832  -0.50195  -0.50138  -0.50127
 Alpha  occ. eigenvalues --   -0.49791  -0.49691  -0.49220  -0.48717  -0.48557
 Alpha  occ. eigenvalues --   -0.48339  -0.48091  -0.48026  -0.47815  -0.47761
 Alpha  occ. eigenvalues --   -0.47576  -0.47302  -0.47212  -0.46833  -0.46739
 Alpha  occ. eigenvalues --   -0.46604  -0.46200  -0.45717  -0.45705  -0.45617
 Alpha  occ. eigenvalues --   -0.45472  -0.45376  -0.45223  -0.44746  -0.44723
 Alpha  occ. eigenvalues --   -0.44539  -0.44539  -0.44265  -0.44173  -0.44050
 Alpha  occ. eigenvalues --   -0.43976  -0.43820  -0.43743  -0.43536  -0.43449
 Alpha  occ. eigenvalues --   -0.43376  -0.43252  -0.42953  -0.42866  -0.42545
 Alpha  occ. eigenvalues --   -0.42256  -0.42169  -0.42016  -0.41785  -0.41602
 Alpha  occ. eigenvalues --   -0.41339  -0.41259  -0.41036  -0.40840  -0.40817
 Alpha  occ. eigenvalues --   -0.40735  -0.40597  -0.40570  -0.40114  -0.40082
 Alpha  occ. eigenvalues --   -0.40021  -0.39926  -0.39846  -0.39745  -0.39573
 Alpha  occ. eigenvalues --   -0.39459  -0.39439  -0.39195  -0.39060  -0.38876
 Alpha  occ. eigenvalues --   -0.38850  -0.38802  -0.38650  -0.38508  -0.38445
 Alpha  occ. eigenvalues --   -0.38246  -0.38180  -0.37976  -0.37854  -0.37731
 Alpha  occ. eigenvalues --   -0.37500  -0.37388  -0.37379  -0.37264  -0.37179
 Alpha  occ. eigenvalues --   -0.37161  -0.37068  -0.36858  -0.36788  -0.36642
 Alpha  occ. eigenvalues --   -0.36454  -0.35845  -0.35599  -0.35362  -0.35142
 Alpha  occ. eigenvalues --   -0.35094  -0.34894  -0.34560  -0.34187  -0.33949
 Alpha  occ. eigenvalues --   -0.33858  -0.33405  -0.33030  -0.32820  -0.32693
 Alpha  occ. eigenvalues --   -0.32436  -0.32261  -0.31809  -0.31544  -0.31415
 Alpha  occ. eigenvalues --   -0.31415  -0.30478  -0.29812  -0.29643  -0.29505
 Alpha  occ. eigenvalues --   -0.29257  -0.28734  -0.28697  -0.27216  -0.26949
 Alpha  occ. eigenvalues --   -0.26767  -0.26390  -0.25891  -0.25749  -0.25538
 Alpha  occ. eigenvalues --   -0.25303  -0.24989  -0.24930  -0.20864  -0.20723
 Alpha  occ. eigenvalues --   -0.18943  -0.18660
 Alpha virt. eigenvalues --   -0.11090  -0.10898  -0.05470  -0.04850  -0.03911
 Alpha virt. eigenvalues --   -0.03787  -0.02513  -0.02110  -0.00928  -0.00573
 Alpha virt. eigenvalues --    0.00547   0.00892   0.01266   0.01338   0.02065

 Mulliken charges:
               1
     1  Mg  11.998503
     2  C    6.007050
     3  C    5.986574
     4  C    5.990607
     5  C    6.020567
     6  N    6.998195
     7  C    5.979740
     8  C    6.009142
     9  C    5.989337
    10  C    6.033748
    11  C    5.998176
    12  C    6.003693
    13  C    6.000055
    14  H    0.993077
    15  N    6.996446
    16  C    6.037919
    17  C    6.013232
    18  C    6.021923
    19  C    6.021748
    20  C    5.997462
    21  C    6.012003
    22  O    8.027208
    23  C    5.995744
    24  N    7.004605
    25  C    6.029222
    26  C    5.993991
    27  C    6.009694
    28  C    5.964420
    29  C    5.997399
    30  C    6.002743
    31  C    6.004615
    32  N    6.999004
    33  C    5.967253
    34  C    5.960444
    35  C    6.002840
    36  C    5.971688
    37  C    6.004861
    38  C    5.983157
    39  O    7.975909
    40  C    6.000951
    41  C    5.996330
    42  O    7.993703
    43  O    7.999201
    44  C    6.001771
    45  H    1.008619
    46  H    1.007462
    47  H    0.992673
    48  H    0.999267
    49  H    1.001411
    50  H    0.998957
    51  H    0.999880
    52  H    1.012881
    53  H    0.993168
    54  H    1.007381
    55  H    1.002337
    56  H    0.994440
    57  H    1.017145
    58  H    1.015940
    59  H    1.016199
    60  H    1.008703
    61  H    1.013516
    62  H    1.006237
    63  H    0.998301
    64  H    0.994846
    65  H    0.992250
    66  H    1.007536
    67  H    1.005879
    68  H    0.991652
    69  H    1.003256
    70  H    1.008455
    71  H    0.990699
    72  H    0.995798
    73  H    0.979408
    74  H    0.975012
    75  H    0.985304
    76  H    0.991259
    77  H    0.996986
    78  H    0.997731
    79  H    0.993460
    80  Mg  12.000136
    81  C    5.998984
    82  C    6.001440
    83  C    6.001222
    84  C    5.998899
    85  N    6.999683
    86  C    6.002626
    87  C    5.999110
    88  C    6.000913
    89  C    5.996413
    90  C    6.000080
    91  C    5.999458
    92  C    5.999723
    93  H    1.001000
    94  N    7.000559
    95  C    5.996583
    96  C    5.997445
    97  C    5.999068
    98  C    5.996196
    99  C    6.000174
   100  C    5.998749
   101  O    7.997864
   102  C    6.000413
   103  N    6.999542
   104  C    5.996630
   105  C    6.001670
   106  C    5.999543
   107  C    6.003441
   108  C    6.000053
   109  C    5.999491
   110  C    5.999757
   111  N    7.000110
   112  C    6.004117
   113  C    6.002832
   114  C    6.000562
   115  C    6.002246
   116  C    6.000106
   117  C    6.001767
   118  O    8.003314
   119  C    6.000161
   120  C    6.000239
   121  O    8.000691
   122  O    8.000180
   123  C    5.999757
   124  H    0.999199
   125  H    0.999228
   126  H    1.000577
   127  H    0.999844
   128  H    1.000031
   129  H    1.000649
   130  H    0.999308
   131  H    0.998880
   132  H    1.001107
   133  H    0.999699
   134  H    0.999647
   135  H    1.000014
   136  H    0.998165
   137  H    0.998397
   138  H    0.998266
   139  H    0.999073
   140  H    0.999014
   141  H    0.998759
   142  H    0.999172
   143  H    0.999765
   144  H    1.000675
   145  H    0.999069
   146  H    0.999659
   147  H    1.000275
   148  H    1.001087
   149  H    1.000470
   150  H    1.000091
   151  H    0.999321
   152  H    1.001299
   153  H    1.001828
   154  H    1.001980
   155  H    1.001213
   156  H    1.000064
   157  H    1.000587
   158  H    1.000641
 Sum of Mulliken charges = 624.00000

 Dipole moment (field-independent basis, Debye):
    X=             -3.0796    Y=              8.6042    Z=             -0.6254  Tot=              9.1601
 Quadrupole moment (field-independent basis, Debye-Ang):
   XX=            210.1826   YY=              4.8021   ZZ=             -2.9768
   XY=           -319.8391   XZ=             15.5462   YZ=              3.1299

 Normal termination of Gaussian 16 at Thu Oct 14 01:39:37 2021.
