 Gaussian 16, Revision A.03,
 Gaussian 16:  ES64L-G16RevA.03 25-Dec-2016

 --------------------------------------------------------
 #p PBE1PBE/Def2SVP td=(nstates=5) density=(transition=1)
 --------------------------------------------------------

 --------------------------------
 TDDFT excited states in gaussian
 --------------------------------
 Symbolic Z-matrix:
 Charge =  0 Multiplicity = 1

                         Standard orientation:
 ---------------------------------------------------------------------
 Center     Atomic      Atomic             Coordinates (Angstroms)
 Number     Number       Type             X           Y           Z
 ---------------------------------------------------------------------
      1         12           0      -24.946406    0.624358    0.406065
      2          6           0      -25.586931   -2.275974   -1.515848
      3          6           0      -24.492926   -1.386932    3.173869
      4          6           0      -24.626764    3.429163    2.280237
      5          6           0      -25.625720    2.635874   -2.383513
      6          7           0      -25.153642   -1.559915    0.702744
      7          6           0      -25.201939   -2.575532   -0.249217
      8          6           0      -25.046576   -4.002566    0.419250
      9          6           0      -24.981468   -3.641424    1.927180
     10          6           0      -24.922318   -2.098227    1.976623
     11          6           0      -26.119462   -4.184306    2.870251
     12          6           0      -23.915800   -4.943251   -0.167400
     13          6           0      -24.396667   -6.249385   -0.723410
     14          1           0      -23.452011   -7.493831   -0.487889
     15          7           0      -24.623935    0.913060    2.401474
     16          6           0      -24.391165   -0.017213    3.394025
     17          6           0      -24.203475    0.667002    4.663797
     18          6           0      -24.230831    2.075602    4.459120
     19          6           0      -24.482577    2.206847    2.976854
     20          6           0      -23.849618   -0.046207    5.984322
     21          6           0      -24.017767    3.217397    5.447759
     22          8           0      -23.979478    4.388306    5.130139
     23          6           0      -23.713595    3.016145    6.988850
     24          7           0      -25.202523    2.757835    0.010826
     25          6           0      -25.013507    3.686876    0.938746
     26          6           0      -25.187473    5.137860    0.363859
     27          6           0      -25.317454    4.873736   -1.188421
     28          6           0      -25.362752    3.316074   -1.218789
     29          6           0      -26.339809    5.910212    1.068871
     30          6           0      -24.196764    5.524027   -1.975255
     31          6           0      -24.651238    6.190754   -3.272427
     32          7           0      -25.630110    0.360271   -1.543839
     33          6           0      -25.768247    1.245635   -2.595600
     34          6           0      -26.258186    0.502790   -3.715712
     35          6           0      -26.171153   -0.872708   -3.386838
     36          6           0      -25.781245   -0.939260   -2.020121
     37          6           0      -26.682270    1.068148   -5.017981
     38          6           0      -26.287765   -2.240465   -3.921944
     39          8           0      -26.704976   -2.686384   -4.986833
     40          6           0      -25.833923   -3.244507   -2.608330
     41          6           0      -26.891785   -4.160368   -2.315037
     42          8           0      -27.643773   -4.065744   -1.369347
     43          8           0      -26.858311   -5.236822   -3.172415
     44          6           0      -27.974366   -6.187470   -2.941351
     45          1           0      -24.220450   -1.987244    4.044625
     46          1           0      -24.581889    4.363178    2.843279
     47          1           0      -25.733916    3.330424   -3.219965
     48          1           0      -26.037896   -4.445377    0.328999
     49          1           0      -24.050038   -3.997194    2.367698
     50          1           0      -25.634098   -4.489162    3.797914
     51          1           0      -26.612839   -5.017309    2.370066
     52          1           0      -26.886499   -3.450335    3.118107
     53          1           0      -23.197740   -5.082372    0.640887
     54          1           0      -23.457891   -4.402179   -0.995623
     55          1           0      -24.517290   -6.166141   -1.804312
     56          1           0      -25.367965   -6.383360   -0.248084
     57          1           0      -22.832424    0.271439    6.210723
     58          1           0      -23.760975   -1.116369    5.795743
     59          1           0      -24.480073    0.196931    6.840508
     60          1           0      -22.823062    2.392654    7.075309
     61          1           0      -24.603493    2.763920    7.566294
     62          1           0      -23.596594    4.028504    7.374392
     63          1           0      -24.298812    5.758809    0.475225
     64          1           0      -26.308812    5.231427   -1.467270
     65          1           0      -26.994552    6.323268    0.301013
     66          1           0      -25.988044    6.661791    1.776071
     67          1           0      -26.929361    5.218502    1.668358
     68          1           0      -23.396890    4.822002   -2.208474
     69          1           0      -23.636460    6.276415   -1.418043
     70          1           0      -25.684812    5.938436   -3.509634
     71          1           0      -24.016312    5.785232   -4.060659
     72          1           0      -24.456351    7.263275   -3.280565
     73          1           0      -26.636812    2.151030   -5.133331
     74          1           0      -27.608916    0.556535   -5.280918
     75          1           0      -25.841365    0.824704   -5.667817
     76          1           0      -24.934234   -3.797159   -2.880451
     77          1           0      -28.928369   -5.678131   -3.079338
     78          1           0      -27.809942   -6.607624   -1.949147
     79          1           0      -27.987996   -7.008241   -3.657404
     80         12           0       24.808249    0.713409   -0.292953
     81          6           0       26.065300   -2.002261    1.676763
     82          6           0       23.600033   -1.750763   -2.509175
     83          6           0       24.231788    3.018987   -2.541546
     84          6           0       26.369109    2.893195    1.798629
     85          7           0       24.804813   -1.599793   -0.343001
     86          6           0       25.289347   -2.400746    0.636284
     87          6           0       24.884307   -3.834341    0.335308
     88          6           0       24.062059   -3.834177   -0.984188
     89          6           0       24.117492   -2.326577   -1.297636
     90          6           0       24.676331   -4.809399   -2.139028
     91          6           0       24.026318   -4.488617    1.501328
     92          6           0       24.449210   -5.884025    1.961702
     93          1           0       25.064947   -6.926229    0.944097
     94          7           0       24.064409    0.634644   -2.295508
     95          6           0       23.626352   -0.417646   -2.953653
     96          6           0       23.201338    0.033235   -4.248844
     97          6           0       23.212405    1.450408   -4.294851
     98          6           0       23.875837    1.749337   -3.052823
     99          6           0       22.528788   -0.889034   -5.264352
    100          6           0       22.642908    2.487674   -5.249911
    101          8           0       22.836668    3.682770   -5.122557
    102          6           0       21.759672    1.961246   -6.347503
    103          7           0       25.561537    2.607370   -0.498758
    104          6           0       24.985508    3.451400   -1.450021
    105          6           0       25.211638    4.957118   -1.144767
    106          6           0       25.750989    4.835074    0.330211
    107          6           0       25.908613    3.335409    0.580981
    108          6           0       26.175222    5.583301   -2.163276
    109          6           0       24.734482    5.398071    1.432493
    110          6           0       25.042531    6.705123    2.082667
    111          7           0       25.860869    0.537800    1.420080
    112          6           0       26.469528    1.535131    2.150975
    113          6           0       27.276228    1.017839    3.253199
    114          6           0       27.145898   -0.410157    3.115285
    115          6           0       26.396104   -0.638712    1.937384
    116          6           0       27.854666    1.859558    4.332484
    117          6           0       27.437314   -1.696803    3.728600
    118          8           0       28.056711   -1.900164    4.788703
    119          6           0       26.753742   -2.834685    2.777098
    120          6           0       27.867311   -3.642146    2.304748
    121          8           0       28.821751   -3.190769    1.710401
    122          8           0       27.694770   -4.936185    2.599130
    123          6           0       28.723704   -5.973478    2.274981
    124          1           0       23.141245   -2.468403   -3.192393
    125          1           0       23.722319    3.867401   -3.004576
    126          1           0       26.780989    3.633806    2.486936
    127          1           0       25.803252   -4.396328    0.168463
    128          1           0       23.065577   -4.253422   -0.844022
    129          1           0       25.300542   -5.586958   -1.698624
    130          1           0       25.238315   -4.143138   -2.794042
    131          1           0       23.863912   -5.257061   -2.711223
    132          1           0       22.951472   -4.512262    1.327047
    133          1           0       24.121234   -3.878647    2.399595
    134          1           0       23.632276   -6.407708    2.458612
    135          1           0       25.158945   -5.665638    2.759636
    136          1           0       21.439482   -0.848795   -5.251308
    137          1           0       22.916484   -1.906310   -5.202283
    138          1           0       22.869518   -0.554630   -6.243977
    139          1           0       21.069978    1.170662   -6.050334
    140          1           0       22.291058    1.567726   -7.212906
    141          1           0       21.029303    2.727072   -6.608734
    142          1           0       24.241644    5.449130   -1.211045
    143          1           0       26.689293    5.386867    0.388369
    144          1           0       26.397707    4.951171   -3.022823
    145          1           0       27.145389    5.800665   -1.717858
    146          1           0       25.757802    6.526140   -2.518228
    147          1           0       24.575403    4.740038    2.286750
    148          1           0       23.713120    5.472491    1.060975
    149          1           0       24.275029    7.437928    1.836889
    150          1           0       26.003777    6.974253    1.644466
    151          1           0       25.077850    6.593601    3.166330
    152          1           0       27.847475    1.338535    5.289266
    153          1           0       27.319410    2.808276    4.297909
    154          1           0       28.892518    2.049251    4.055263
    155          1           0       26.065627   -3.468045    3.335347
    156          1           0       29.696871   -5.642563    2.638142
    157          1           0       28.812757   -6.155723    1.203738
    158          1           0       28.462483   -6.973088    2.621220
 ---------------------------------------------------------------------

 SCF Done:  E(RPBE1PBE) =  -4067.37028982     A.U. after   16 cycles

 Excitation energies and oscillator strengths:

 Excited State   1:      Singlet-A      1.8475 eV  671.09 nm  f=0.3844  <S**2>=0.000
     310 -> 316       -0.16134
     312 -> 313        0.69524
     312 <- 313       -0.11632
 This state for optimization and/or second-order correction.
 Total Energy, E(TD-HF/TD-DFT) =  -4067.30239484
 Copying the excited state density for this state as the 1-particle RhoCI density.

 Excited State   2:      Singlet-A      1.8744 eV  661.48 nm  f=0.3655  <S**2>=0.000
     309 -> 315       -0.17483
     311 -> 314        0.69058

 Excited State   3:      Singlet-A      1.9721 eV  628.70 nm  f=0.0000  <S**2>=0.000
     312 -> 314        0.70711

 Excited State   4:      Singlet-A      2.0368 eV  608.73 nm  f=0.0000  <S**2>=0.000
     311 -> 313        0.70711

 Excited State   5:      Singlet-A      2.2073 eV  561.70 nm  f=0.1232  <S**2>=0.000
     310 -> 313        0.66029
     312 -> 316        0.23222

 The electronic state is 1-A.
 Alpha  occ. eigenvalues --  -46.92048 -46.91690 -19.25852 -19.25042 -19.20005
 Alpha  occ. eigenvalues --  -19.19784 -19.19737 -19.19537 -19.19284 -19.18694
 Alpha  occ. eigenvalues --  -14.41833 -14.41387 -14.41287 -14.41265 -14.39909
 Alpha  occ. eigenvalues --  -14.39105 -14.38731 -14.38687 -10.35439 -10.35365
 Alpha  occ. eigenvalues --  -10.33488 -10.33275 -10.32903 -10.32667 -10.29983
 Alpha  occ. eigenvalues --  -10.29728 -10.29347 -10.29096 -10.28740 -10.28555
 Alpha  occ. eigenvalues --  -10.28544 -10.28353 -10.28267 -10.28218 -10.27983
 Alpha  occ. eigenvalues --  -10.27872 -10.27394 -10.27337 -10.27335 -10.26937
 Alpha  occ. eigenvalues --  -10.26812 -10.26770 -10.26698 -10.26247 -10.26228
 Alpha  occ. eigenvalues --  -10.26191 -10.26187 -10.26047 -10.25915 -10.25832
 Alpha  occ. eigenvalues --  -10.25764 -10.25707 -10.25702 -10.25655 -10.25528
 Alpha  occ. eigenvalues --  -10.25489 -10.25442 -10.25402 -10.25372 -10.25309
 Alpha  occ. eigenvalues --  -10.25149 -10.25126 -10.25099 -10.24715 -10.24630
 Alpha  occ. eigenvalues --  -10.24415 -10.24300 -10.24132 -10.24096 -10.24054
 Alpha  occ. eigenvalues --  -10.23952 -10.23925 -10.23782 -10.23700 -10.23661
 Alpha  occ. eigenvalues --  -10.23536 -10.23498 -10.23344 -10.23343 -10.23304
 Alpha  occ. eigenvalues --  -10.23255 -10.23131 -10.22982 -10.22928 -10.22818
 Alpha  occ. eigenvalues --  -10.22464  -3.14252  -3.13799  -1.87058  -1.86648
 Alpha  occ. eigenvalues --   -1.86633  -1.86486  -1.86166  -1.86030  -1.11290
 Alpha  occ. eigenvalues --   -1.10693  -1.05968  -1.05578  -1.04366  -1.03190
 Alpha  occ. eigenvalues --   -1.02332  -1.02148  -0.99363  -0.98729  -0.98171
 Alpha  occ. eigenvalues --   -0.97758  -0.97030  -0.96669  -0.96587  -0.95675
 Alpha  occ. eigenvalues --   -0.86512  -0.86401  -0.83477  -0.82952  -0.82694
 Alpha  occ. eigenvalues --   -0.82605  -0.82363  -0.82239  -0.81461  -0.81292
 Alpha  occ. eigenvalues --   -0.81282  -0.81218  -0.80773  -0.80282  -0.78640
 Alpha  occ. eigenvalues --   -0.78534  -0.78432  -0.78010  -0.76936  -0.76822
 Alpha  occ. eigenvalues --   -0.76010  -0.75618  -0.75372  -0.75048  -0.75036
 Alpha  occ. eigenvalues --   -0.74195  -0.72591  -0.72514  -0.71993  -0.71331
 Alpha  occ. eigenvalues --   -0.71190  -0.70832  -0.70578  -0.70129  -0.69240
 Alpha  occ. eigenvalues --   -0.69109  -0.66966  -0.66828  -0.65901  -0.65771
 Alpha  occ. eigenvalues --   -0.63352  -0.63280  -0.63187  -0.62252  -0.62074
 Alpha  occ. eigenvalues --   -0.62014  -0.61554  -0.61339  -0.60084  -0.59973
 Alpha  occ. eigenvalues --   -0.59603  -0.59373  -0.59234  -0.59083  -0.59036
 Alpha  occ. eigenvalues --   -0.58993  -0.57022  -0.55822  -0.55059  -0.54437
 Alpha  occ. eigenvalues --   -0.53834  -0.53754  -0.53448  -0.53329  -0.53116
 Alpha  occ. eigenvalues --   -0.52639  -0.52609  -0.52427  -0.52010  -0.51816
 Alpha  occ. eigenvalues --   -0.50696  -0.50522  -0.50308  -0.50199  -0.49770
 Alpha  occ. eigenvalues --   -0.49406  -0.48903  -0.48875  -0.48338  -0.48136
 Alpha  occ. eigenvalues --   -0.47987  -0.47766  -0.47670  -0.47583  -0.47423
 Alpha  occ. eigenvalues --   -0.47248  -0.47191  -0.47040  -0.46897  -0.46802
 Alpha  occ. eigenvalues --   -0.46708  -0.46327  -0.46079  -0.45918  -0.45807
 Alpha  occ. eigenvalues --   -0.45668  -0.45397  -0.45246  -0.45156  -0.45026
 Alpha  occ. eigenvalues --   -0.44885  -0.44762  -0.44539  -0.44274  -0.44138
 Alpha  occ. eigenvalues --   -0.44013  -0.43798  -0.43717  -0.43388  -0.43286
 Alpha  occ. eigenvalues --   -0.43220  -0.43090  -0.42943  -0.42814  -0.42761
 Alpha  occ. eigenvalues --   -0.42708  -0.42440  -0.42423  -0.42040  -0.41971
 Alpha  occ. eigenvalues --   -0.41488  -0.41459  -0.41299  -0.41189  -0.40934
 Alpha  occ. eigenvalues --   -0.40934  -0.40871  -0.40861  -0.40687  -0.40313
 Alpha  occ. eigenvalues --   -0.40050  -0.39971  -0.39899  -0.39693  -0.39406
 Alpha  occ. eigenvalues --   -0.39285  -0.39217  -0.39091  -0.38921  -0.38714
 Alpha  occ. eigenvalues --   -0.38677  -0.38492  -0.38446  -0.38202  -0.38173
 Alpha  occ. eigenvalues --   -0.37974  -0.37781  -0.37667  -0.37564  -0.37424
 Alpha  occ. eigenvalues --   -0.37389  -0.37259  -0.37230  -0.36934  -0.36583
 Alpha  occ. eigenvalues --   -0.36429  -0.36355  -0.36312  -0.36210  -0.36108
 Alpha  occ. eigenvalues --   -0.35929  -0.35464  -0.35463  -0.35223  -0.35210
 Alpha  occ. eigenvalues --   -0.34942  -0.34678  -0.34630  -0.34389  -0.34210
 Alpha  occ. eigenvalues --   -0.33671  -0.33363  -0.32935  -0.32672  -0.32271
 Alpha  occ. eigenvalues --   -0.32017  -0.31960  -0.31498  -0.31283  -0.31272
 Alpha  occ. eigenvalues --   -0.31215  -0.31022  -0.29670  -0.29338  -0.29005
 Alpha  occ. eigenvalues --   -0.28756  -0.28738  -0.28344  -0.27159  -0.26904
 Alpha  occ. eigenvalues --   -0.26479  -0.26222  -0.25949  -0.25855  -0.25608
 Alpha  occ. eigenvalues --   -0.25585  -0.25070  -0.24699  -0.20963  -0.20784
 Alpha  occ. eigenvalues --   -0.18906  -0.18622
 Alpha virt. eigenvalues --   -0.11160  -0.11112  -0.05352  -0.04730  -0.04151
 Alpha virt. eigenvalues --   -0.04068  -0.02377  -0.02348  -0.01020   0.00095
 Alpha virt. eigenvalues --    0.00204   0.00679   0.01088   0.01098   0.01404

 Mulliken charges:
               1
     1  Mg  12.000035
     2  C    5.999786
     3  C    6.000066
     4  C    6.000178
     5  C    5.999928
     6  N    6.999957
     7  C    6.000258
     8  C    5.999912
     9  C    6.000044
    10  C    5.999784
    11  C    6.000032
    12  C    6.000003
    13  C    5.999968
    14  H    1.000054
    15  N    7.000072
    16  C    5.999802
    17  C    5.999848
    18  C    5.999967
    19  C    5.999755
    20  C    6.000004
    21  C    5.999927
    22  O    7.999820
    23  C    6.000006
    24  N    7.000011
    25  C    5.999770
    26  C    6.000071
    27  C    5.999915
    28  C    6.000200
    29  C    6.000010
    30  C    5.999968
    31  C    5.999987
    32  N    6.999990
    33  C    6.000211
    34  C    6.000160
    35  C    5.999963
    36  C    6.000211
    37  C    5.999992
    38  C    6.000137
    39  O    8.000164
    40  C    6.000120
    41  C    5.999984
    42  O    8.000051
    43  O    8.000014
    44  C    5.999993
    45  H    0.999914
    46  H    0.999946
    47  H    1.000089
    48  H    1.000009
    49  H    0.999992
    50  H    0.999983
    51  H    0.999899
    52  H    0.999978
    53  H    1.000052
    54  H    0.999993
    55  H    0.999984
    56  H    0.999996
    57  H    0.999891
    58  H    0.999894
    59  H    0.999861
    60  H    0.999969
    61  H    0.999918
    62  H    0.999903
    63  H    1.000003
    64  H    1.000004
    65  H    0.999936
    66  H    1.000005
    67  H    1.000004
    68  H    1.000030
    69  H    1.000073
    70  H    0.999971
    71  H    1.000021
    72  H    1.000040
    73  H    1.000131
    74  H    1.000103
    75  H    1.000166
    76  H    1.000064
    77  H    0.999992
    78  H    1.000030
    79  H    1.000028
    80  Mg  12.002065
    81  C    5.981076
    82  C    6.007460
    83  C    6.024759
    84  C    5.994388
    85  N    6.991796
    86  C    6.024099
    87  C    5.990631
    88  C    6.013067
    89  C    5.969255
    90  C    6.000648
    91  C    5.998971
    92  C    5.999263
    93  H    1.006702
    94  N    7.004072
    95  C    5.967169
    96  C    5.974161
    97  C    5.988930
    98  C    5.967698
    99  C    6.002914
   100  C    5.986139
   101  O    7.973640
   102  C    6.007284
   103  N    7.008666
   104  C    5.958397
   105  C    6.009979
   106  C    5.991955
   107  C    6.026054
   108  C    6.003071
   109  C    5.992083
   110  C    5.999762
   111  N    7.002816
   112  C    6.028946
   113  C    6.037797
   114  C    5.998674
   115  C    6.031511
   116  C    5.997450
   117  C    6.015361
   118  O    8.026850
   119  C    6.006321
   120  C    6.004936
   121  O    8.002504
   122  O    8.002003
   123  C    5.998042
   124  H    0.989498
   125  H    0.994619
   126  H    1.011311
   127  H    0.999587
   128  H    0.994717
   129  H    0.987415
   130  H    1.001556
   131  H    0.999752
   132  H    1.007934
   133  H    0.992408
   134  H    1.002037
   135  H    0.994010
   136  H    0.979506
   137  H    0.983556
   138  H    0.984020
   139  H    0.995213
   140  H    0.990742
   141  H    0.986237
   142  H    1.000392
   143  H    1.002796
   144  H    1.004637
   145  H    0.988796
   146  H    0.997538
   147  H    0.994944
   148  H    1.012757
   149  H    1.006738
   150  H    1.002503
   151  H    0.998136
   152  H    1.017089
   153  H    1.017347
   154  H    1.022498
   155  H    1.008709
   156  H    1.000580
   157  H    1.006399
   158  H    1.004661
 Sum of Mulliken charges = 624.00000

 Dipole moment (field-independent basis, Debye):
    X=              5.0498    Y=             -0.0344    Z=              9.1783  Tot=             10.4758
 Quadrupole moment (field-independent basis, Debye-Ang):
   XX=            255.8537   YY=              2.0936   ZZ=             -9.9404
   XY=              0.8705   XZ=            231.9103   YZ=              5.3970

 Normal termination of Gaussian 16 at Fri Oct 15 13:13:14 2021.
