 Gaussian 16, Revision A.03,
 Gaussian 16:  ES64L-G16RevA.03 25-Dec-2016

 --------------------------------------------------------
 #p PBE1PBE/Def2SVP td=(nstates=5) density=(transition=1)
 --------------------------------------------------------

 --------------------------------
 TDDFT excited states in gaussian
 --------------------------------
 Symbolic Z-matrix:
 Charge =  0 Multiplicity = 1

                         Standard orientation:
 ---------------------------------------------------------------------
 Center     Atomic      Atomic             Coordinates (Angstroms)
 Number     Number       Type             X           Y           Z
 ---------------------------------------------------------------------
      1         12           0       24.149880    0.576870   -0.077025
      2          6           0       22.961676   -2.435176   -1.386506
      3          6           0       23.805799   -0.873975    3.096472
      4          6           0       24.734032    3.542384    1.359456
      5          6           0       23.433845    2.094486   -3.081594
      6          7           0       23.549057   -1.511586    0.798636
      7          6           0       23.058451   -2.496949    0.000641
      8          6           0       22.641393   -3.753013    0.863876
      9          6           0       22.688556   -3.117451    2.344064
     10          6           0       23.336178   -1.744595    2.096934
     11          6           0       21.204362   -2.876473    2.795837
     12          6           0       23.762590   -4.840787    0.680275
     13          6           0       23.653187   -6.131801    1.536503
     14          1           0       24.727229   -6.855482    2.292858
     15          7           0       24.442865    1.159239    1.910541
     16          6           0       24.303550    0.432980    3.105041
     17          6           0       24.580566    1.301888    4.170490
     18          6           0       25.032111    2.523038    3.688053
     19          6           0       24.754574    2.445786    2.263280
     20          6           0       24.561227    0.796325    5.575846
     21          6           0       25.538885    3.797696    4.440126
     22          8           0       25.929549    4.824361    3.894893
     23          6           0       25.797751    3.801753    5.949202
     24          7           0       23.970268    2.528731   -0.755931
     25          6           0       24.413219    3.561573   -0.004750
     26          6           0       24.548166    4.882169   -0.787811
     27          6           0       23.997674    4.450883   -2.175513
     28          6           0       23.893450    2.939775   -2.073114
     29          6           0       23.916976    6.126150   -0.078775
     30          6           0       24.772362    4.938658   -3.430393
     31          6           0       26.041185    4.257364   -3.724187
     32          7           0       23.452996   -0.009515   -1.915906
     33          6           0       23.218768    0.676428   -3.010534
     34          6           0       22.833871   -0.190049   -4.129331
     35          6           0       22.735898   -1.458977   -3.473962
     36          6           0       23.077479   -1.298069   -2.145403
     37          6           0       22.956084    0.048601   -5.561527
     38          6           0       22.440081   -2.858799   -3.724182
     39          8           0       22.214329   -3.445293   -4.758359
     40          6           0       22.513325   -3.508076   -2.336848
     41          6           0       21.202974   -4.212076   -1.969046
     42          8           0       20.214780   -3.646602   -1.578843
     43          8           0       21.321200   -5.556696   -2.228015
     44          6           0       20.092075   -6.309880   -1.888092
     45          1           0       23.819308   -1.376070    4.065215
     46          1           0       25.127992    4.484062    1.748058
     47          1           0       23.423605    2.777857   -3.932484
     48          1           0       21.626783   -4.089647    0.649410
     49          1           0       23.214530   -3.723758    3.082575
     50          1           0       20.855233   -1.844405    2.791383
     51          1           0       21.083429   -3.032554    3.868087
     52          1           0       20.472139   -3.461828    2.240051
     53          1           0       24.718819   -4.350852    0.861820
     54          1           0       23.791181   -5.088662   -0.381127
     55          1           0       23.134026   -6.832028    0.881434
     56          1           0       22.992845   -5.783460    2.329713
     57          1           0       24.258436   -0.243731    5.700022
     58          1           0       24.018130    1.521741    6.183130
     59          1           0       25.609382    0.833290    5.873943
     60          1           0       24.893534    3.706617    6.550501
     61          1           0       26.413823    4.628609    6.302927
     62          1           0       26.451099    2.951784    6.147039
     63          1           0       25.635578    4.946316   -0.760600
     64          1           0       22.977090    4.833578   -2.183176
     65          1           0       23.946248    6.014430    1.004584
     66          1           0       22.874378    6.221356   -0.383267
     67          1           0       24.452214    7.051308   -0.293560
     68          1           0       24.954203    5.982158   -3.175141
     69          1           0       24.103757    4.954570   -4.291316
     70          1           0       25.840297    3.338709   -4.275155
     71          1           0       26.614055    4.084430   -2.813345
     72          1           0       26.664609    4.835242   -4.407110
     73          1           0       23.745757    0.795035   -5.650478
     74          1           0       22.133338    0.511257   -6.106862
     75          1           0       23.198624   -0.912068   -6.014594
     76          1           0       23.331466   -4.228898   -2.352588
     77          1           0       19.976786   -7.120192   -2.607709
     78          1           0       19.148818   -5.787085   -2.047786
     79          1           0       20.174480   -6.767292   -0.902684
     80         12           0      -23.975386    0.643159    0.155506
     81          6           0      -21.646085   -1.846552    0.943124
     82          6           0      -26.310052   -1.761994   -0.511712
     83          6           0      -26.005604    3.032459   -0.898368
     84          6           0      -21.382557    3.042188    0.701697
     85          7           0      -23.931295   -1.572575    0.174370
     86          6           0      -22.920479   -2.411809    0.587447
     87          6           0      -23.439354   -3.828394    0.751806
     88          6           0      -24.832725   -3.784383    0.008531
     89          6           0      -25.057889   -2.234212   -0.023397
     90          6           0      -24.800053   -4.393849   -1.387250
     91          6           0      -23.375826   -4.251472    2.264699
     92          6           0      -24.083049   -5.603669    2.558165
     93          1           0      -24.095144   -6.622025    1.437117
     94          7           0      -25.833923    0.635229   -0.558828
     95          6           0      -26.626263   -0.461507   -0.873777
     96          6           0      -27.909988   -0.053592   -1.471138
     97          6           0      -27.812754    1.370387   -1.538330
     98          6           0      -26.505551    1.726392   -0.992771
     99          6           0      -28.986136   -1.012750   -1.818484
    100          6           0      -28.859183    2.306750   -2.085300
    101          8           0      -28.710424    3.560051   -2.064981
    102          6           0      -30.171415    1.790842   -2.610621
    103          7           0      -23.734357    2.768606   -0.011786
    104          6           0      -24.756497    3.485875   -0.478996
    105          6           0      -24.326582    5.007496   -0.663294
    106          6           0      -22.773519    5.007561   -0.170405
    107          6           0      -22.605463    3.528631    0.180660
    108          6           0      -24.538154    5.409342   -2.180415
    109          6           0      -22.491599    5.897370    1.114863
    110          6           0      -22.199716    7.401716    0.846549
    111          7           0      -21.952081    0.665211    0.631201
    112          6           0      -21.032090    1.701812    0.939921
    113          6           0      -19.710741    1.090277    1.403950
    114          6           0      -19.873910   -0.290401    1.352869
    115          6           0      -21.289617   -0.491907    0.951570
    116          6           0      -18.483974    1.806533    1.875044
    117          6           0      -19.274021   -1.578965    1.608644
    118          8           0      -18.147230   -1.906862    1.993635
    119          6           0      -20.464804   -2.657755    1.528716
    120          6           0      -20.101161   -3.870443    0.702898
    121          8           0      -20.236654   -3.938120   -0.488882
    122          8           0      -19.812259   -4.980888    1.527913
    123          6           0      -19.884400   -6.314435    0.912145
    124          1           0      -26.920963   -2.641126   -0.728728
    125          1           0      -26.674921    3.815052   -1.262140
    126          1           0      -20.520125    3.707023    0.784495
    127          1           0      -22.753580   -4.490056    0.224169
    128          1           0      -25.672276   -4.213999    0.556006
    129          1           0      -25.561718   -5.173420   -1.384173
    130          1           0      -23.780507   -4.715159   -1.599050
    131          1           0      -25.205551   -3.727650   -2.148355
    132          1           0      -23.660239   -3.321877    2.756729
    133          1           0      -22.314401   -4.354878    2.487537
    134          1           0      -25.094122   -5.297331    2.826623
    135          1           0      -23.586591   -6.063973    3.412301
    136          1           0      -29.045033   -0.913163   -2.902190
    137          1           0      -29.924925   -0.811830   -1.303028
    138          1           0      -28.828466   -2.079249   -1.652767
    139          1           0      -30.718211    1.321151   -1.794151
    140          1           0      -29.781546    1.122749   -3.379587
    141          1           0      -30.807124    2.512983   -3.122208
    142          1           0      -24.994002    5.478574    0.059377
    143          1           0      -22.001785    5.092975   -0.936590
    144          1           0      -24.901414    4.601931   -2.815974
    145          1           0      -23.593450    5.744886   -2.609095
    146          1           0      -25.333385    6.154187   -2.173843
    147          1           0      -21.791213    5.422765    1.801518
    148          1           0      -23.421041    5.890975    1.683322
    149          1           0      -22.917727    7.968585    1.438131
    150          1           0      -22.244700    7.575717   -0.228611
    151          1           0      -21.203567    7.691457    1.181818
    152          1           0      -18.444008    1.658757    2.954460
    153          1           0      -18.538595    2.863174    1.610298
    154          1           0      -17.518066    1.451422    1.516456
    155          1           0      -20.690481   -2.930663    2.559178
    156          1           0      -18.953573   -6.412276    0.354130
    157          1           0      -20.815714   -6.435056    0.358416
    158          1           0      -19.946662   -7.024338    1.736491
 ---------------------------------------------------------------------

 SCF Done:  E(RPBE1PBE) =  -4067.40395165     A.U. after   16 cycles

 Excitation energies and oscillator strengths:

 Excited State   1:      Singlet-A      1.8621 eV  665.84 nm  f=0.3755  <S**2>=0.000
     309 -> 315        0.19127
     312 -> 314        0.68816
     312 <- 314       -0.10016
 This state for optimization and/or second-order correction.
 Total Energy, E(TD-HF/TD-DFT) =  -4067.33552166
 Copying the excited state density for this state as the 1-particle RhoCI density.

 Excited State   2:      Singlet-A      1.8847 eV  657.86 nm  f=0.3788  <S**2>=0.000
     310 -> 316       -0.17969
     311 -> 313        0.69128
     311 <- 313       -0.10355

 Excited State   3:      Singlet-A      1.9051 eV  650.82 nm  f=0.0000  <S**2>=0.000
     312 -> 313        0.70711

 Excited State   4:      Singlet-A      2.1458 eV  577.79 nm  f=0.0000  <S**2>=0.000
     311 -> 314        0.70711

 Excited State   5:      Singlet-A      2.2484 eV  551.44 nm  f=0.1078  <S**2>=0.000
     310 -> 313        0.65566
     311 -> 316        0.25368

 The electronic state is 1-A.
 Alpha  occ. eigenvalues --  -46.92106 -46.91494 -19.26437 -19.24630 -19.20614
 Alpha  occ. eigenvalues --  -19.20462 -19.19505 -19.19410 -19.19095 -19.18587
 Alpha  occ. eigenvalues --  -14.41597 -14.41545 -14.41134 -14.40730 -14.39645
 Alpha  occ. eigenvalues --  -14.39516 -14.38823 -14.38759 -10.36783 -10.36407
 Alpha  occ. eigenvalues --  -10.33185 -10.32682 -10.32331 -10.31688 -10.29040
 Alpha  occ. eigenvalues --  -10.28964 -10.28766 -10.28662 -10.28583 -10.28475
 Alpha  occ. eigenvalues --  -10.28450 -10.28210 -10.28078 -10.28069 -10.27909
 Alpha  occ. eigenvalues --  -10.27819 -10.27794 -10.27750 -10.27480 -10.27283
 Alpha  occ. eigenvalues --  -10.27138 -10.27130 -10.26850 -10.26762 -10.26433
 Alpha  occ. eigenvalues --  -10.26399 -10.26181 -10.26172 -10.26168 -10.26107
 Alpha  occ. eigenvalues --  -10.25943 -10.25714 -10.25601 -10.25589 -10.25581
 Alpha  occ. eigenvalues --  -10.25508 -10.25462 -10.25375 -10.25243 -10.25229
 Alpha  occ. eigenvalues --  -10.25070 -10.24955 -10.24951 -10.24777 -10.24646
 Alpha  occ. eigenvalues --  -10.24541 -10.24468 -10.24347 -10.24257 -10.24130
 Alpha  occ. eigenvalues --  -10.23835 -10.23832 -10.23762 -10.23672 -10.23643
 Alpha  occ. eigenvalues --  -10.23508 -10.23482 -10.23261 -10.23233 -10.23073
 Alpha  occ. eigenvalues --  -10.23063 -10.22884 -10.22867 -10.22842 -10.22571
 Alpha  occ. eigenvalues --  -10.22135  -3.14246  -3.13751  -1.87073  -1.86635
 Alpha  occ. eigenvalues --   -1.86599  -1.86456  -1.86112  -1.86006  -1.11580
 Alpha  occ. eigenvalues --   -1.10187  -1.05096  -1.04994  -1.03848  -1.03592
 Alpha  occ. eigenvalues --   -1.02595  -1.02449  -0.99759  -0.98923  -0.98336
 Alpha  occ. eigenvalues --   -0.98097  -0.97965  -0.97446  -0.97002  -0.96073
 Alpha  occ. eigenvalues --   -0.88237  -0.85951  -0.83721  -0.83158  -0.82830
 Alpha  occ. eigenvalues --   -0.82779  -0.82422  -0.82099  -0.81865  -0.81711
 Alpha  occ. eigenvalues --   -0.81533  -0.81045  -0.80659  -0.80617  -0.78505
 Alpha  occ. eigenvalues --   -0.78287  -0.77978  -0.77235  -0.76661  -0.76323
 Alpha  occ. eigenvalues --   -0.76173  -0.75702  -0.75144  -0.75046  -0.74677
 Alpha  occ. eigenvalues --   -0.74332  -0.73209  -0.72722  -0.71910  -0.71762
 Alpha  occ. eigenvalues --   -0.71274  -0.70928  -0.70444  -0.70078  -0.69155
 Alpha  occ. eigenvalues --   -0.68905  -0.66972  -0.66526  -0.66190  -0.65909
 Alpha  occ. eigenvalues --   -0.64376  -0.63713  -0.63605  -0.62979  -0.62776
 Alpha  occ. eigenvalues --   -0.62774  -0.61485  -0.61339  -0.59932  -0.59826
 Alpha  occ. eigenvalues --   -0.59649  -0.59197  -0.58938  -0.58576  -0.58465
 Alpha  occ. eigenvalues --   -0.58287  -0.57089  -0.55848  -0.55189  -0.54523
 Alpha  occ. eigenvalues --   -0.54064  -0.54023  -0.53904  -0.53260  -0.53034
 Alpha  occ. eigenvalues --   -0.52877  -0.52200  -0.52178  -0.51919  -0.51355
 Alpha  occ. eigenvalues --   -0.51046  -0.50749  -0.50310  -0.50174  -0.50117
 Alpha  occ. eigenvalues --   -0.49772  -0.49198  -0.49158  -0.48739  -0.48536
 Alpha  occ. eigenvalues --   -0.48468  -0.47967  -0.47848  -0.47795  -0.47556
 Alpha  occ. eigenvalues --   -0.47283  -0.47141  -0.46814  -0.46780  -0.46720
 Alpha  occ. eigenvalues --   -0.46504  -0.46346  -0.45975  -0.45737  -0.45696
 Alpha  occ. eigenvalues --   -0.45596  -0.45356  -0.45345  -0.45038  -0.44704
 Alpha  occ. eigenvalues --   -0.44589  -0.44519  -0.44155  -0.44093  -0.44037
 Alpha  occ. eigenvalues --   -0.44031  -0.43884  -0.43800  -0.43639  -0.43517
 Alpha  occ. eigenvalues --   -0.43516  -0.43429  -0.43162  -0.42934  -0.42784
 Alpha  occ. eigenvalues --   -0.42697  -0.42525  -0.42149  -0.42019  -0.41765
 Alpha  occ. eigenvalues --   -0.41527  -0.41319  -0.40924  -0.40820  -0.40768
 Alpha  occ. eigenvalues --   -0.40715  -0.40550  -0.40462  -0.40324  -0.40094
 Alpha  occ. eigenvalues --   -0.39977  -0.39860  -0.39827  -0.39724  -0.39656
 Alpha  occ. eigenvalues --   -0.39440  -0.39430  -0.39176  -0.39040  -0.38975
 Alpha  occ. eigenvalues --   -0.38830  -0.38811  -0.38631  -0.38425  -0.38304
 Alpha  occ. eigenvalues --   -0.38161  -0.37978  -0.37957  -0.37829  -0.37726
 Alpha  occ. eigenvalues --   -0.37710  -0.37476  -0.37367  -0.37243  -0.37171
 Alpha  occ. eigenvalues --   -0.37142  -0.37029  -0.36769  -0.36623  -0.36268
 Alpha  occ. eigenvalues --   -0.36069  -0.35755  -0.35580  -0.35278  -0.35122
 Alpha  occ. eigenvalues --   -0.35071  -0.34541  -0.34131  -0.34052  -0.33839
 Alpha  occ. eigenvalues --   -0.33465  -0.33385  -0.33243  -0.32998  -0.32800
 Alpha  occ. eigenvalues --   -0.32673  -0.32240  -0.31789  -0.31753  -0.31395
 Alpha  occ. eigenvalues --   -0.31193  -0.30928  -0.29790  -0.29485  -0.29388
 Alpha  occ. eigenvalues --   -0.29360  -0.28714  -0.28689  -0.26929  -0.26835
 Alpha  occ. eigenvalues --   -0.26387  -0.25871  -0.25760  -0.25729  -0.25592
 Alpha  occ. eigenvalues --   -0.25519  -0.25192  -0.24969  -0.20885  -0.20703
 Alpha  occ. eigenvalues --   -0.18641  -0.18158
 Alpha virt. eigenvalues --   -0.10878  -0.10476  -0.05537  -0.04831  -0.04403
 Alpha virt. eigenvalues --   -0.03767  -0.02190  -0.02090  -0.00554  -0.00190
 Alpha virt. eigenvalues --    0.00568   0.00609   0.01095   0.01358   0.01725

 Mulliken charges:
               1
     1  Mg  11.999987
     2  C    6.000051
     3  C    6.000038
     4  C    5.999962
     5  C    6.000000
     6  N    7.000003
     7  C    6.000023
     8  C    5.999988
     9  C    5.999983
    10  C    5.999963
    11  C    5.999978
    12  C    5.999989
    13  C    5.999999
    14  H    0.999964
    15  N    7.000028
    16  C    5.999899
    17  C    6.000066
    18  C    5.999945
    19  C    5.999966
    20  C    6.000009
    21  C    6.000002
    22  O    7.999964
    23  C    6.000015
    24  N    7.000026
    25  C    5.999996
    26  C    5.999992
    27  C    6.000008
    28  C    5.999971
    29  C    6.000008
    30  C    5.999999
    31  C    6.000002
    32  N    6.999964
    33  C    6.000078
    34  C    6.000034
    35  C    6.000049
    36  C    6.000029
    37  C    5.999992
    38  C    5.999977
    39  O    8.000032
    40  C    5.999989
    41  C    6.000005
    42  O    8.000047
    43  O    7.999985
    44  C    5.999980
    45  H    0.999997
    46  H    0.999980
    47  H    0.999998
    48  H    1.000039
    49  H    0.999990
    50  H    1.000040
    51  H    1.000030
    52  H    1.000035
    53  H    0.999982
    54  H    0.999985
    55  H    1.000010
    56  H    1.000037
    57  H    0.999979
    58  H    0.999999
    59  H    0.999941
    60  H    1.000008
    61  H    0.999941
    62  H    0.999956
    63  H    0.999970
    64  H    1.000037
    65  H    1.000019
    66  H    1.000027
    67  H    0.999962
    68  H    0.999998
    69  H    1.000000
    70  H    0.999981
    71  H    0.999998
    72  H    0.999966
    73  H    0.999997
    74  H    1.000054
    75  H    1.000002
    76  H    0.999985
    77  H    0.999999
    78  H    1.000059
    79  H    1.000014
    80  Mg  12.001665
    81  C    6.021835
    82  C    5.992647
    83  C    5.979060
    84  C    6.008498
    85  N    7.010497
    86  C    5.966034
    87  C    6.006510
    88  C    5.992168
    89  C    6.028689
    90  C    5.998189
    91  C    6.003152
    92  C    5.999627
    93  H    0.995352
    94  N    6.995177
    95  C    6.034382
    96  C    6.024093
    97  C    6.014439
    98  C    6.025456
    99  C    5.995244
   100  C    6.011783
   101  O    8.031067
   102  C    5.997389
   103  N    6.996419
   104  C    6.028894
   105  C    5.995029
   106  C    6.008711
   107  C    5.967312
   108  C    5.997505
   109  C    6.006648
   110  C    5.998290
   111  N    7.001667
   112  C    5.965655
   113  C    5.969366
   114  C    5.996588
   115  C    5.975343
   116  C    6.004159
   117  C    5.982028
   118  O    7.969912
   119  C    5.997512
   120  C    5.998773
   121  O    7.992216
   122  O    7.999276
   123  C    6.001853
   124  H    1.012334
   125  H    1.004587
   126  H    0.991214
   127  H    1.000501
   128  H    1.000258
   129  H    1.003393
   130  H    1.014041
   131  H    0.994876
   132  H    0.997918
   133  H    1.006597
   134  H    0.993721
   135  H    1.001406
   136  H    1.016754
   137  H    1.018134
   138  H    1.017215
   139  H    1.006891
   140  H    1.004149
   141  H    1.014027
   142  H    0.997117
   143  H    1.000505
   144  H    0.993728
   145  H    1.009021
   146  H    0.998753
   147  H    1.004507
   148  H    0.990939
   149  H    0.994985
   150  H    0.995519
   151  H    1.000396
   152  H    0.981486
   153  H    0.983773
   154  H    0.982434
   155  H    0.994020
   156  H    0.998671
   157  H    0.993750
   158  H    0.996272
 Sum of Mulliken charges = 624.00000

 Dipole moment (field-independent basis, Debye):
    X=             -9.6931    Y=             -0.2056    Z=             -3.5153  Tot=             10.3129
 Quadrupole moment (field-independent basis, Debye-Ang):
   XX=            461.9536   YY=             -4.1431   ZZ=              0.5566
   XY=             -0.0117   XZ=             84.4425   YZ=             -1.9506

 Normal termination of Gaussian 16 at Thu Oct 14 01:47:24 2021.
