 Gaussian 16, Revision A.03,
 Gaussian 16:  ES64L-G16RevA.03 25-Dec-2016

 --------------------------------------------------------
 #p PBE1PBE/Def2SVP td=(nstates=5) density=(transition=1)
 --------------------------------------------------------

 --------------------------------
 TDDFT excited states in gaussian
 --------------------------------
 Symbolic Z-matrix:
 Charge =  0 Multiplicity = 1

                         Standard orientation:
 ---------------------------------------------------------------------
 Center     Atomic      Atomic             Coordinates (Angstroms)
 Number     Number       Type             X           Y           Z
 ---------------------------------------------------------------------
      1         12           0       -4.399126   -0.500555    0.969639
      2          6           0       -5.302815    2.753369    0.035416
      3          6           0       -1.397922    0.827518    2.298169
      4          6           0       -3.338184   -3.668717    1.575142
      5          6           0       -6.971937   -1.705204   -0.992626
      6          7           0       -3.595229    1.543355    1.266453
      7          6           0       -4.270575    2.722879    0.939915
      8          6           0       -3.616133    3.922180    1.715833
      9          6           0       -2.361736    3.281892    2.321517
     10          6           0       -2.418351    1.772764    1.897515
     11          6           0       -1.084029    3.983630    1.787414
     12          6           0       -4.635683    4.476902    2.703153
     13          6           0       -4.534376    5.944283    3.086194
     14          1           0       -3.243020    6.709009    2.717430
     15          7           0       -2.639810   -1.354038    1.823933
     16          6           0       -1.514769   -0.639744    2.277954
     17          6           0       -0.488960   -1.551137    2.753854
     18          6           0       -1.017919   -2.896524    2.636521
     19          6           0       -2.374884   -2.678358    1.973899
     20          6           0        0.810140   -1.109124    3.439568
     21          6           0       -0.429161   -4.234178    3.041839
     22          8           0       -1.062871   -5.266402    2.866830
     23          6           0        0.818285   -4.247808    3.838992
     24          7           0       -5.135155   -2.421053    0.407420
     25          6           0       -4.565418   -3.570424    0.865410
     26          6           0       -5.456698   -4.782611    0.488249
     27          6           0       -6.677681   -4.156860   -0.291231
     28          6           0       -6.335496   -2.646165   -0.219393
     29          6           0       -4.650775   -5.804930   -0.333011
     30          6           0       -8.065708   -4.413262    0.353558
     31          6           0       -8.773756   -5.529226   -0.408418
     32          7           0       -5.826517    0.269201   -0.352358
     33          6           0       -6.766089   -0.303491   -1.143061
     34          6           0       -7.325011    0.762870   -2.009230
     35          6           0       -6.880054    1.959638   -1.528904
     36          6           0       -5.928633    1.593015   -0.543011
     37          6           0       -8.371662    0.458274   -3.067755
     38          6           0       -6.965552    3.423526   -1.616461
     39          8           0       -7.627666    4.115856   -2.380088
     40          6           0       -6.018991    3.945037   -0.552589
     41          6           0       -5.168228    4.933491   -1.233974
     42          8           0       -4.196296    4.771495   -1.984201
     43          8           0       -5.685322    6.182814   -0.958548
     44          6           0       -5.035783    7.309843   -1.591820
     45          1           0       -0.523994    1.281802    2.769210
     46          1           0       -2.972904   -4.644748    1.901417
     47          1           0       -7.703648   -2.169402   -1.657250
     48          1           0       -3.393892    4.593234    0.885255
     49          1           0       -2.377536    3.542681    3.379697
     50          1           0       -0.469988    3.376132    1.122366
     51          1           0       -0.402485    4.051415    2.634881
     52          1           0       -1.312566    4.907451    1.256331
     53          1           0       -4.568823    3.805092    3.559439
     54          1           0       -5.636753    4.278138    2.322280
     55          1           0       -4.723852    6.037562    4.154685
     56          1           0       -5.399308    6.356262    2.565136
     57          1           0        0.985288   -0.033698    3.404311
     58          1           0        1.663644   -1.594016    2.963862
     59          1           0        0.815802   -1.501171    4.455921
     60          1           0        0.615956   -3.788317    4.806801
     61          1           0        1.660916   -3.876583    3.255718
     62          1           0        1.113451   -5.261144    4.111432
     63          1           0       -5.737338   -5.283164    1.414675
     64          1           0       -6.565874   -4.506698   -1.318326
     65          1           0       -5.044138   -6.059838   -1.316651
     66          1           0       -4.773271   -6.675077    0.311569
     67          1           0       -3.631229   -5.498452   -0.565198
     68          1           0       -8.740152   -3.584414    0.137793
     69          1           0       -8.018841   -4.662184    1.413889
     70          1           0       -9.141295   -6.184436    0.381191
     71          1           0       -8.105330   -6.186250   -0.964331
     72          1           0       -9.591923   -5.209915   -1.054577
     73          1           0       -8.505790   -0.598417   -3.300535
     74          1           0       -8.181365    0.976516   -4.006805
     75          1           0       -9.351811    0.697568   -2.653762
     76          1           0       -6.622987    4.396153    0.234004
     77          1           0       -4.964510    7.091699   -2.657696
     78          1           0       -4.033636    7.506149   -1.210052
     79          1           0       -5.803117    8.082440   -1.627047
     80         12           0        3.889754   -0.828312   -0.976647
     81          6           0        6.303863    1.772062   -0.366454
     82          6           0        1.488904    1.594047   -0.828525
     83          6           0        1.630239   -3.293352   -1.240526
     84          6           0        6.388175   -3.101586   -0.600783
     85          7           0        3.933807    1.530056   -0.670355
     86          6           0        5.053569    2.289886   -0.493649
     87          6           0        4.632609    3.709165   -0.555110
     88          6           0        3.079153    3.676286   -0.563000
     89          6           0        2.726306    2.166047   -0.647571
     90          6           0        2.476759    4.314038    0.729227
     91          6           0        5.212768    4.519958   -1.686828
     92          6           0        5.025819    6.028593   -1.690501
     93          1           0        6.228385    6.846245   -1.912335
     94          7           0        1.879669   -0.833673   -1.137451
     95          6           0        1.027493    0.289556   -0.950534
     96          6           0       -0.343199   -0.172528   -1.239146
     97          6           0       -0.280219   -1.563371   -1.261278
     98          6           0        1.133956   -1.963428   -1.146298
     99          6           0       -1.507850    0.795039   -1.269110
    100          6           0       -1.408850   -2.597195   -1.464561
    101          8           0       -1.286401   -3.816739   -1.244473
    102          6           0       -2.693057   -2.088240   -1.979460
    103          7           0        3.960348   -2.943051   -0.866152
    104          6           0        2.947099   -3.772250   -1.010599
    105          6           0        3.351204   -5.267664   -0.894398
    106          6           0        4.876321   -5.152946   -0.944983
    107          6           0        5.091500   -3.660249   -0.843622
    108          6           0        2.831205   -5.902835    0.439217
    109          6           0        5.567492   -5.751517   -2.149297
    110          6           0        6.855818   -6.549219   -1.880036
    111          7           0        5.919045   -0.687529   -0.663872
    112          6           0        6.809393   -1.732244   -0.545052
    113          6           0        8.209625   -1.237163   -0.382250
    114          6           0        7.964102    0.118383   -0.295707
    115          6           0        6.600901    0.415432   -0.412921
    116          6           0        9.487781   -2.008531   -0.461665
    117          6           0        8.653237    1.387638   -0.115265
    118          8           0        9.860523    1.575627   -0.016153
    119          6           0        7.614355    2.531805   -0.153428
    120          6           0        7.854176    3.341437    1.013838
    121          8           0        7.536044    3.071923    2.197171
    122          8           0        8.340449    4.560346    0.650157
    123          6           0        8.389936    5.612438    1.641799
    124          1           0        0.718341    2.366376   -0.869540
    125          1           0        0.894781   -4.096326   -1.160021
    126          1           0        7.057409   -3.896729   -0.266195
    127          1           0        4.984292    4.103704    0.397278
    128          1           0        2.656061    4.214532   -1.411343
    129          1           0        1.704424    5.083738    0.716619
    130          1           0        3.337503    4.757078    1.229912
    131          1           0        2.152623    3.601597    1.488296
    132          1           0        4.760492    4.246220   -2.640190
    133          1           0        6.227190    4.207758   -1.933429
    134          1           0        4.618928    6.368088   -0.739164
    135          1           0        4.483739    6.245234   -2.610632
    136          1           0       -2.383396    0.459467   -0.713703
    137          1           0       -1.844421    1.053247   -2.272974
    138          1           0       -1.318150    1.756346   -0.790977
    139          1           0       -2.494294   -1.491588   -2.869854
    140          1           0       -3.033982   -1.455013   -1.161118
    141          1           0       -3.258809   -2.960218   -2.305535
    142          1           0        2.940417   -5.760107   -1.776455
    143          1           0        5.416494   -5.562508   -0.091896
    144          1           0        3.651254   -6.146598    1.113995
    145          1           0        2.320540   -6.847996    0.254771
    146          1           0        2.195324   -5.141086    0.890578
    147          1           0        5.790266   -4.998110   -2.904174
    148          1           0        4.763565   -6.250114   -2.689810
    149          1           0        6.937861   -7.287313   -2.677306
    150          1           0        6.912660   -6.939988   -0.863610
    151          1           0        7.605604   -5.761747   -1.953302
    152          1           0       10.000366   -1.929318   -1.420535
    153          1           0        9.237400   -3.011166   -0.116235
    154          1           0       10.132355   -1.716692    0.368394
    155          1           0        7.940698    3.162792   -0.980093
    156          1           0        7.918409    5.363629    2.592886
    157          1           0        8.013211    6.547768    1.228775
    158          1           0        9.414217    5.876550    1.906148
 ---------------------------------------------------------------------

 SCF Done:  E(RPBE1PBE) =  -4067.38505032     A.U. after   17 cycles

 Excitation energies and oscillator strengths:

 Excited State   1:      Singlet-A      1.5147 eV  818.56 nm  f=0.0008  <S**2>=0.000
     312 -> 313        0.70074
 This state for optimization and/or second-order correction.
 Total Energy, E(TD-HF/TD-DFT) =  -4067.32938734
 Copying the excited state density for this state as the 1-particle RhoCI density.

 Excited State   2:      Singlet-A      1.7812 eV  696.06 nm  f=0.0019  <S**2>=0.000
     311 -> 313       -0.10796
     311 -> 314        0.68089
     312 -> 314        0.14841

 Excited State   3:      Singlet-A      1.8069 eV  686.16 nm  f=0.5099  <S**2>=0.000
     310 -> 315       -0.11195
     311 -> 313        0.66979
     312 -> 314        0.15048
     311 <- 313       -0.10265

 Excited State   4:      Singlet-A      1.9070 eV  650.17 nm  f=0.2988  <S**2>=0.000
     309 -> 315       -0.10537
     309 -> 316       -0.10574
     310 -> 316       -0.10230
     311 -> 313       -0.12382
     311 -> 314       -0.16519
     312 -> 314        0.65557

 Excited State   5:      Singlet-A      2.1762 eV  569.72 nm  f=0.0365  <S**2>=0.000
     309 -> 313        0.21130
     310 -> 313        0.65352
     311 -> 315        0.12121

 The electronic state is 1-A.
 Alpha  occ. eigenvalues --  -46.92846 -46.91831 -19.25846 -19.25542 -19.20521
 Alpha  occ. eigenvalues --  -19.19879 -19.19172 -19.19122 -19.19073 -19.18784
 Alpha  occ. eigenvalues --  -14.42039 -14.41434 -14.41348 -14.40571 -14.39981
 Alpha  occ. eigenvalues --  -14.39296 -14.39222 -14.39200 -10.36831 -10.36148
 Alpha  occ. eigenvalues --  -10.32914 -10.32339 -10.32052 -10.31580 -10.29839
 Alpha  occ. eigenvalues --  -10.28904 -10.28861 -10.28822 -10.28651 -10.28584
 Alpha  occ. eigenvalues --  -10.28504 -10.28389 -10.28307 -10.28215 -10.28115
 Alpha  occ. eigenvalues --  -10.28099 -10.27993 -10.27909 -10.27723 -10.27532
 Alpha  occ. eigenvalues --  -10.27027 -10.26820 -10.26743 -10.26380 -10.26297
 Alpha  occ. eigenvalues --  -10.26025 -10.26021 -10.25999 -10.25896 -10.25884
 Alpha  occ. eigenvalues --  -10.25870 -10.25808 -10.25793 -10.25654 -10.25648
 Alpha  occ. eigenvalues --  -10.25576 -10.25545 -10.25480 -10.25314 -10.25216
 Alpha  occ. eigenvalues --  -10.24986 -10.24914 -10.24738 -10.24667 -10.24656
 Alpha  occ. eigenvalues --  -10.24602 -10.24392 -10.24376 -10.23976 -10.23945
 Alpha  occ. eigenvalues --  -10.23824 -10.23807 -10.23620 -10.23570 -10.23562
 Alpha  occ. eigenvalues --  -10.23543 -10.23499 -10.23380 -10.23377 -10.23318
 Alpha  occ. eigenvalues --  -10.23262 -10.22965 -10.22903 -10.22468 -10.22253
 Alpha  occ. eigenvalues --  -10.22164  -3.14876  -3.14020  -1.87749  -1.87200
 Alpha  occ. eigenvalues --   -1.87119  -1.86873  -1.86385  -1.86254  -1.10993
 Alpha  occ. eigenvalues --   -1.10918  -1.05108  -1.04910  -1.04166  -1.03474
 Alpha  occ. eigenvalues --   -1.02142  -1.00775  -1.00380  -0.99406  -0.99236
 Alpha  occ. eigenvalues --   -0.97607  -0.97542  -0.97522  -0.96662  -0.96379
 Alpha  occ. eigenvalues --   -0.88097  -0.87492  -0.84383  -0.83864  -0.83534
 Alpha  occ. eigenvalues --   -0.83085  -0.82649  -0.82233  -0.81688  -0.81671
 Alpha  occ. eigenvalues --   -0.81175  -0.81115  -0.80831  -0.80177  -0.78913
 Alpha  occ. eigenvalues --   -0.78780  -0.78304  -0.78211  -0.77217  -0.77184
 Alpha  occ. eigenvalues --   -0.76443  -0.76400  -0.75496  -0.75450  -0.75164
 Alpha  occ. eigenvalues --   -0.74552  -0.72606  -0.72294  -0.71836  -0.71746
 Alpha  occ. eigenvalues --   -0.71659  -0.71387  -0.70878  -0.70446  -0.69527
 Alpha  occ. eigenvalues --   -0.68956  -0.67339  -0.67190  -0.66370  -0.65590
 Alpha  occ. eigenvalues --   -0.63893  -0.63744  -0.63563  -0.62958  -0.62484
 Alpha  occ. eigenvalues --   -0.62438  -0.61551  -0.60816  -0.60734  -0.59806
 Alpha  occ. eigenvalues --   -0.59724  -0.59639  -0.59594  -0.59345  -0.59015
 Alpha  occ. eigenvalues --   -0.58665  -0.57132  -0.57048  -0.54743  -0.54641
 Alpha  occ. eigenvalues --   -0.54535  -0.54356  -0.53961  -0.53819  -0.53615
 Alpha  occ. eigenvalues --   -0.53288  -0.53177  -0.52823  -0.52375  -0.52129
 Alpha  occ. eigenvalues --   -0.50876  -0.50725  -0.50458  -0.50231  -0.49925
 Alpha  occ. eigenvalues --   -0.49890  -0.49487  -0.48972  -0.48594  -0.48444
 Alpha  occ. eigenvalues --   -0.48255  -0.48182  -0.48115  -0.47985  -0.47826
 Alpha  occ. eigenvalues --   -0.47672  -0.47592  -0.47443  -0.47338  -0.46874
 Alpha  occ. eigenvalues --   -0.46614  -0.46491  -0.46406  -0.46187  -0.46170
 Alpha  occ. eigenvalues --   -0.45687  -0.45585  -0.45341  -0.44943  -0.44860
 Alpha  occ. eigenvalues --   -0.44669  -0.44556  -0.44518  -0.44218  -0.44055
 Alpha  occ. eigenvalues --   -0.43960  -0.43853  -0.43815  -0.43576  -0.43448
 Alpha  occ. eigenvalues --   -0.43166  -0.42991  -0.42922  -0.42770  -0.42712
 Alpha  occ. eigenvalues --   -0.42433  -0.42231  -0.42156  -0.41984  -0.41953
 Alpha  occ. eigenvalues --   -0.41659  -0.41569  -0.41359  -0.41287  -0.41174
 Alpha  occ. eigenvalues --   -0.41011  -0.40933  -0.40792  -0.40487  -0.40225
 Alpha  occ. eigenvalues --   -0.40119  -0.39950  -0.39815  -0.39803  -0.39516
 Alpha  occ. eigenvalues --   -0.39373  -0.39298  -0.39164  -0.39073  -0.38704
 Alpha  occ. eigenvalues --   -0.38542  -0.38491  -0.38400  -0.38371  -0.38147
 Alpha  occ. eigenvalues --   -0.37941  -0.37897  -0.37833  -0.37674  -0.37501
 Alpha  occ. eigenvalues --   -0.37319  -0.37244  -0.37177  -0.36916  -0.36741
 Alpha  occ. eigenvalues --   -0.36637  -0.36548  -0.36492  -0.36413  -0.36228
 Alpha  occ. eigenvalues --   -0.36212  -0.35930  -0.35855  -0.35563  -0.35298
 Alpha  occ. eigenvalues --   -0.35077  -0.34972  -0.34860  -0.34177  -0.33686
 Alpha  occ. eigenvalues --   -0.33453  -0.33198  -0.33054  -0.32817  -0.32752
 Alpha  occ. eigenvalues --   -0.32050  -0.31714  -0.31665  -0.31079  -0.30992
 Alpha  occ. eigenvalues --   -0.30940  -0.30617  -0.29639  -0.29480  -0.29006
 Alpha  occ. eigenvalues --   -0.28595  -0.28393  -0.28190  -0.27194  -0.26892
 Alpha  occ. eigenvalues --   -0.26686  -0.26177  -0.26061  -0.26030  -0.25668
 Alpha  occ. eigenvalues --   -0.25612  -0.25477  -0.25343  -0.20982  -0.20861
 Alpha  occ. eigenvalues --   -0.18746  -0.18470
 Alpha virt. eigenvalues --   -0.11256  -0.10551  -0.05210  -0.05161  -0.04282
 Alpha virt. eigenvalues --   -0.03349  -0.02580  -0.01804  -0.00655  -0.00135
 Alpha virt. eigenvalues --    0.00212   0.00385   0.00784   0.01189   0.01339

 Mulliken charges:
               1
     1  Mg  12.000143
     2  C    5.996865
     3  C    5.996834
     4  C    6.003436
     5  C    6.004044
     6  N    6.995161
     7  C    6.001538
     8  C    5.999765
     9  C    5.999975
    10  C    6.001868
    11  C    6.000409
    12  C    6.000110
    13  C    6.000152
    14  H    0.999641
    15  N    7.000318
    16  C    6.001737
    17  C    6.001557
    18  C    6.000708
    19  C    6.000558
    20  C    6.000064
    21  C    6.001629
    22  O    8.001880
    23  C    5.999520
    24  N    7.003179
    25  C    6.000116
    26  C    5.999766
    27  C    6.000603
    28  C    5.996981
    29  C    5.999485
    30  C    5.999833
    31  C    5.999928
    32  N    6.999649
    33  C    5.997559
    34  C    6.000473
    35  C    5.998845
    36  C    6.000350
    37  C    6.000007
    38  C    5.999164
    39  O    7.998745
    40  C    6.000728
    41  C    5.999810
    42  O    7.999530
    43  O    7.999925
    44  C    6.000153
    45  H    0.998758
    46  H    1.001644
    47  H    1.000905
    48  H    0.999858
    49  H    0.999693
    50  H    0.999023
    51  H    0.999632
    52  H    0.999776
    53  H    0.999593
    54  H    1.000054
    55  H    0.999633
    56  H    0.999941
    57  H    1.001452
    58  H    1.000651
    59  H    1.000295
    60  H    1.000780
    61  H    1.001294
    62  H    1.001101
    63  H    1.000392
    64  H    1.000252
    65  H    1.001067
    66  H    1.000468
    67  H    1.000122
    68  H    1.000429
    69  H    0.999994
    70  H    1.000182
    71  H    0.999993
    72  H    1.000375
    73  H    0.999232
    74  H    0.999910
    75  H    0.999761
    76  H    0.999536
    77  H    0.999780
    78  H    0.999752
    79  H    0.999722
    80  Mg  11.999532
    81  C    5.999882
    82  C    5.998545
    83  C    6.000240
    84  C    6.000914
    85  N    6.999707
    86  C    5.999992
    87  C    5.999974
    88  C    5.999520
    89  C    6.002399
    90  C    6.000232
    91  C    6.000047
    92  C    5.999968
    93  H    1.000057
    94  N    7.000541
    95  C    5.998872
    96  C    5.999767
    97  C    6.000665
    98  C    6.000044
    99  C    5.999131
   100  C    5.999194
   101  O    7.999497
   102  C    5.999645
   103  N    7.000561
   104  C    5.998427
   105  C    6.000254
   106  C    6.000308
   107  C    5.998398
   108  C    6.000051
   109  C    6.000222
   110  C    5.999991
   111  N    7.000056
   112  C    5.998688
   113  C    5.999884
   114  C    5.999626
   115  C    5.999626
   116  C    6.000049
   117  C    5.999610
   118  O    7.999231
   119  C    6.000051
   120  C    5.999929
   121  O    7.999795
   122  O    7.999969
   123  C    6.000039
   124  H    1.000503
   125  H    0.999286
   126  H    0.999693
   127  H    1.000163
   128  H    1.000317
   129  H    1.000190
   130  H    1.000218
   131  H    0.999953
   132  H    0.999924
   133  H    1.000203
   134  H    0.999978
   135  H    0.999983
   136  H    1.001983
   137  H    1.000876
   138  H    1.000788
   139  H    1.000455
   140  H    0.999412
   141  H    0.999862
   142  H    0.999576
   143  H    0.999534
   144  H    0.999853
   145  H    0.999559
   146  H    0.999034
   147  H    0.999874
   148  H    0.999604
   149  H    0.999795
   150  H    0.999792
   151  H    1.000065
   152  H    0.999669
   153  H    0.999692
   154  H    0.999661
   155  H    0.999844
   156  H    0.999905
   157  H    0.999901
   158  H    0.999935
 Sum of Mulliken charges = 624.00000

 Dipole moment (field-independent basis, Debye):
    X=             -0.2080    Y=             -0.4392    Z=              0.1977  Tot=              0.5247
 Quadrupole moment (field-independent basis, Debye-Ang):
   XX=             -2.4242   YY=              0.2021   ZZ=              0.3734
   XY=              2.6008   XZ=             -0.2106   YZ=             -0.9886

 Normal termination of Gaussian 16 at Fri Oct 15 03:24:53 2021.
