 Gaussian 16, Revision A.03,
 Gaussian 16:  ES64L-G16RevA.03 25-Dec-2016

 --------------------------------------------------------
 #p PBE1PBE/Def2SVP td=(nstates=5) density=(transition=1)
 --------------------------------------------------------

 --------------------------------
 TDDFT excited states in gaussian
 --------------------------------
 Symbolic Z-matrix:
 Charge =  0 Multiplicity = 1

                         Standard orientation:
 ---------------------------------------------------------------------
 Center     Atomic      Atomic             Coordinates (Angstroms)
 Number     Number       Type             X           Y           Z
 ---------------------------------------------------------------------
      1         12           0       23.573480   -0.617338    0.094755
      2          6           0       21.548788    1.975351    1.068594
      3          6           0       25.951558    1.671831   -0.833619
      4          6           0       25.588666   -3.219179   -0.999596
      5          6           0       20.977251   -2.851212    0.633054
      6          7           0       23.740165    1.620029    0.057726
      7          6           0       22.785527    2.428393    0.606032
      8          6           0       23.191674    3.821435    0.558568
      9          6           0       24.495027    3.837834   -0.224390
     10          6           0       24.775960    2.281426   -0.398857
     11          6           0       24.546862    4.611352   -1.587079
     12          6           0       23.306770    4.440922    1.992974
     13          6           0       22.953730    5.961038    2.143240
     14          1           0       23.180343    6.861646    0.913123
     15          7           0       25.560969   -0.727168   -0.690609
     16          6           0       26.368366    0.360051   -0.977810
     17          6           0       27.650230   -0.128771   -1.524948
     18          6           0       27.561831   -1.586656   -1.575470
     19          6           0       26.220591   -1.911915   -1.059909
     20          6           0       28.794403    0.764157   -1.976463
     21          6           0       28.654276   -2.563866   -1.942124
     22          8           0       28.427929   -3.783433   -1.853435
     23          6           0       29.996392   -2.182196   -2.444231
     24          7           0       23.309022   -2.729255   -0.228330
     25          6           0       24.292380   -3.544580   -0.619997
     26          6           0       23.849555   -5.014575   -0.532015
     27          6           0       22.422540   -4.963584    0.243716
     28          6           0       22.259081   -3.403541    0.291836
     29          6           0       23.804424   -5.680041   -1.942011
     30          6           0       22.418766   -5.562411    1.676965
     31          6           0       21.608874   -6.855199    1.856292
     32          7           0       21.605583   -0.508857    0.660338
     33          6           0       20.641485   -1.505540    0.828174
     34          6           0       19.367439   -0.909657    1.288032
     35          6           0       19.719049    0.458647    1.365079
     36          6           0       21.070209    0.647281    0.969067
     37          6           0       18.128616   -1.579400    1.629012
     38          6           0       19.221084    1.778024    1.806016
     39          8           0       18.180310    2.112819    2.306457
     40          6           0       20.383762    2.810015    1.584990
     41          6           0       19.871914    3.917880    0.762544
     42          8           0       19.633019    3.744494   -0.443440
     43          8           0       19.827281    5.125014    1.390238
     44          6           0       19.528666    6.315380    0.600293
     45          1           0       26.688045    2.426322   -1.117872
     46          1           0       26.223736   -4.020754   -1.383137
     47          1           0       20.234765   -3.602661    0.909261
     48          1           0       22.432834    4.371335    0.000841
     49          1           0       25.333207    4.136000    0.406488
     50          1           0       23.685958    5.159476   -1.971216
     51          1           0       24.840987    3.903102   -2.361271
     52          1           0       25.366303    5.327895   -1.648659
     53          1           0       24.290212    4.220673    2.408398
     54          1           0       22.734095    3.825768    2.686788
     55          1           0       23.509439    6.392181    2.976428
     56          1           0       21.890194    6.135779    2.303183
     57          1           0       28.640525    1.816374   -1.739659
     58          1           0       28.915112    0.729644   -3.059574
     59          1           0       29.686109    0.555895   -1.385474
     60          1           0       30.566455   -3.107129   -2.526190
     61          1           0       30.518299   -1.474379   -1.798924
     62          1           0       29.890588   -1.632538   -3.379686
     63          1           0       24.528247   -5.506024    0.165211
     64          1           0       21.609357   -5.381025   -0.349964
     65          1           0       24.321342   -6.638722   -1.986785
     66          1           0       24.272573   -5.038272   -2.688881
     67          1           0       22.739529   -5.746816   -2.166073
     68          1           0       22.041108   -4.872703    2.430876
     69          1           0       23.427210   -5.783914    2.027049
     70          1           0       21.581735   -7.399744    0.912381
     71          1           0       20.589026   -6.577536    2.120721
     72          1           0       22.042061   -7.376780    2.708763
     73          1           0       17.475369   -0.968150    2.251308
     74          1           0       18.278944   -2.530948    2.138593
     75          1           0       17.530420   -1.646376    0.720172
     76          1           0       20.600770    3.096769    2.614521
     77          1           0       18.518382    6.340270    0.190961
     78          1           0       20.289306    6.478463   -0.163147
     79          1           0       19.564423    7.194827    1.243062
     80         12           0      -23.582059   -0.655462    0.012863
     81          6           0      -22.647605    2.452893   -1.294642
     82          6           0      -23.809460    0.731259    3.128292
     83          6           0      -24.122673   -3.685406    1.224627
     84          6           0      -23.119921   -2.011987   -3.261689
     85          7           0      -23.208209    1.379182    0.807998
     86          6           0      -22.902870    2.531958    0.119108
     87          6           0      -23.071175    3.746272    1.013576
     88          6           0      -23.160788    3.113158    2.458226
     89          6           0      -23.505528    1.634960    2.069849
     90          6           0      -21.864570    3.216304    3.251888
     91          6           0      -24.246095    4.645876    0.482396
     92          6           0      -24.630047    5.797050    1.453014
     93          1           0      -23.520825    6.351832    2.322376
     94          7           0      -23.924495   -1.347966    1.847985
     95          6           0      -23.880443   -0.651134    3.048947
     96          6           0      -24.097723   -1.540107    4.203808
     97          6           0      -24.227510   -2.834478    3.612671
     98          6           0      -24.081167   -2.652254    2.170959
     99          6           0      -24.193719   -1.050122    5.600027
    100          6           0      -24.454040   -4.128708    4.350654
    101          8           0      -24.603172   -5.225968    3.744780
    102          6           0      -24.593524   -4.159928    5.848534
    103          7           0      -23.670350   -2.585574   -0.920131
    104          6           0      -23.915532   -3.647969   -0.152842
    105          6           0      -23.793128   -4.986714   -1.005428
    106          6           0      -23.418045   -4.436338   -2.492488
    107          6           0      -23.383677   -2.932113   -2.218902
    108          6           0      -22.686546   -5.905366   -0.342517
    109          6           0      -24.507143   -4.752552   -3.604704
    110          6           0      -24.381263   -6.137739   -4.301595
    111          7           0      -22.956520   -0.013285   -1.862462
    112          6           0      -22.920308   -0.625523   -3.143121
    113          6           0      -22.537523    0.414308   -4.195493
    114          6           0      -22.348644    1.613809   -3.516502
    115          6           0      -22.697686    1.311341   -2.104924
    116          6           0      -22.429008    0.223892   -5.675991
    117          6           0      -22.045360    3.021196   -3.630352
    118          8           0      -21.741986    3.728125   -4.596587
    119          6           0      -22.405727    3.679583   -2.207396
    120          6           0      -21.322135    4.602461   -1.698526
    121          8           0      -20.373661    4.237519   -1.057830
    122          8           0      -21.687467    5.957549   -1.864271
    123          6           0      -20.983225    6.950807   -1.039525
    124          1           0      -23.791735    1.307562    4.056054
    125          1           0      -24.286263   -4.685043    1.632952
    126          1           0      -22.860645   -2.374561   -4.258668
    127          1           0      -22.166579    4.346182    0.922479
    128          1           0      -23.979575    3.474967    3.080983
    129          1           0      -22.125993    3.736817    4.173082
    130          1           0      -21.113022    3.693788    2.623590
    131          1           0      -21.538961    2.257627    3.654939
    132          1           0      -24.960553    3.890558    0.156548
    133          1           0      -23.876323    5.078643   -0.446558
    134          1           0      -25.422635    5.353984    2.056071
    135          1           0      -25.021996    6.621641    0.857764
    136          1           0      -23.325201   -1.512608    6.068628
    137          1           0      -25.140559   -1.297756    6.079152
    138          1           0      -24.076513    0.014918    5.804222
    139          1           0      -25.483641   -3.599851    6.131776
    140          1           0      -23.634856   -3.707614    6.105478
    141          1           0      -24.605162   -5.144835    6.314536
    142          1           0      -24.821457   -5.344245   -0.939639
    143          1           0      -22.392080   -4.573765   -2.836607
    144          1           0      -22.201135   -5.470407    0.530978
    145          1           0      -21.898895   -6.116106   -1.066407
    146          1           0      -23.220733   -6.780059    0.027328
    147          1           0      -24.651409   -3.919178   -4.291698
    148          1           0      -25.459606   -4.791628   -3.077127
    149          1           0      -25.340561   -6.638324   -4.175057
    150          1           0      -23.525207   -6.661686   -3.876251
    151          1           0      -24.204855   -6.042191   -5.373237
    152          1           0      -23.295561    0.724111   -6.108936
    153          1           0      -22.408462   -0.839058   -5.919467
    154          1           0      -21.575245    0.670382   -6.185305
    155          1           0      -23.345544    4.211234   -2.353522
    156          1           0      -20.021595    7.088575   -1.533166
    157          1           0      -20.970178    6.645489    0.006954
    158          1           0      -21.593304    7.853248   -1.067580
 ---------------------------------------------------------------------

 SCF Done:  E(RPBE1PBE) =  -4067.42793404     A.U. after   16 cycles

 Excitation energies and oscillator strengths:

 Excited State   1:      Singlet-A      1.8621 eV  665.84 nm  f=0.3743  <S**2>=0.000
     309 -> 315        0.19129
     312 -> 314        0.68816
     312 <- 314       -0.10016
 This state for optimization and/or second-order correction.
 Total Energy, E(TD-HF/TD-DFT) =  -4067.35950429
 Copying the excited state density for this state as the 1-particle RhoCI density.

 Excited State   2:      Singlet-A      1.8897 eV  656.09 nm  f=0.3732  <S**2>=0.000
     310 -> 316        0.18004
     311 -> 313        0.68960
     311 <- 313       -0.10437

 Excited State   3:      Singlet-A      1.9306 eV  642.22 nm  f=0.0000  <S**2>=0.000
     312 -> 313        0.70711

 Excited State   4:      Singlet-A      2.1058 eV  588.77 nm  f=0.0000  <S**2>=0.000
     311 -> 314        0.70711

 Excited State   5:      Singlet-A      2.2567 eV  549.41 nm  f=0.0898  <S**2>=0.000
     310 -> 313        0.64131
     311 -> 316       -0.28256

 The electronic state is 1-A.
 Alpha  occ. eigenvalues --  -46.92268 -46.91482 -19.26566 -19.24617 -19.20449
 Alpha  occ. eigenvalues --  -19.19513 -19.19399 -19.19249 -19.18576 -19.18552
 Alpha  occ. eigenvalues --  -14.41585 -14.41304 -14.41210 -14.41123 -14.39634
 Alpha  occ. eigenvalues --  -14.39504 -14.39172 -14.38886 -10.36539 -10.36395
 Alpha  occ. eigenvalues --  -10.32670 -10.32320 -10.32040 -10.32010 -10.29517
 Alpha  occ. eigenvalues --  -10.28952 -10.28754 -10.28730 -10.28572 -10.28438
 Alpha  occ. eigenvalues --  -10.28315 -10.28314 -10.28111 -10.28066 -10.28058
 Alpha  occ. eigenvalues --  -10.27898 -10.27815 -10.27738 -10.27694 -10.27662
 Alpha  occ. eigenvalues --  -10.27272 -10.27127 -10.26839 -10.26805 -10.26795
 Alpha  occ. eigenvalues --  -10.26751 -10.26364 -10.26160 -10.26157 -10.26095
 Alpha  occ. eigenvalues --  -10.26067 -10.26053 -10.25932 -10.25789 -10.25630
 Alpha  occ. eigenvalues --  -10.25594 -10.25577 -10.25496 -10.25237 -10.25218
 Alpha  occ. eigenvalues --  -10.25210 -10.25073 -10.24982 -10.24943 -10.24765
 Alpha  occ. eigenvalues --  -10.24764 -10.24612 -10.24456 -10.24336 -10.24119
 Alpha  occ. eigenvalues --  -10.24107 -10.23751 -10.23685 -10.23660 -10.23657
 Alpha  occ. eigenvalues --  -10.23632 -10.23524 -10.23484 -10.23329 -10.23221
 Alpha  occ. eigenvalues --  -10.23062 -10.23006 -10.23001 -10.22873 -10.22832
 Alpha  occ. eigenvalues --  -10.22788  -3.14275  -3.13740  -1.87137  -1.86632
 Alpha  occ. eigenvalues --   -1.86587  -1.86504  -1.86100  -1.85994  -1.11176
 Alpha  occ. eigenvalues --   -1.10175  -1.05699  -1.03836  -1.03586  -1.02582
 Alpha  occ. eigenvalues --   -1.02437  -1.01893  -0.99729  -0.98912  -0.98707
 Alpha  occ. eigenvalues --   -0.98085  -0.98047  -0.97435  -0.96061  -0.95586
 Alpha  occ. eigenvalues --   -0.86826  -0.85939  -0.83409  -0.83146  -0.82818
 Alpha  occ. eigenvalues --   -0.82568  -0.82088  -0.82005  -0.81854  -0.81499
 Alpha  occ. eigenvalues --   -0.81064  -0.81033  -0.80648  -0.80449  -0.78493
 Alpha  occ. eigenvalues --   -0.78239  -0.77822  -0.77224  -0.76570  -0.76312
 Alpha  occ. eigenvalues --   -0.76162  -0.75987  -0.75507  -0.75034  -0.74889
 Alpha  occ. eigenvalues --   -0.74320  -0.73198  -0.72745  -0.71844  -0.71751
 Alpha  occ. eigenvalues --   -0.71603  -0.71262  -0.70536  -0.70066  -0.69233
 Alpha  occ. eigenvalues --   -0.68894  -0.67054  -0.66514  -0.65970  -0.65897
 Alpha  occ. eigenvalues --   -0.63701  -0.63540  -0.62968  -0.62762  -0.62733
 Alpha  occ. eigenvalues --   -0.62457  -0.61473  -0.61352  -0.60250  -0.59921
 Alpha  occ. eigenvalues --   -0.59840  -0.59637  -0.59596  -0.58872  -0.58453
 Alpha  occ. eigenvalues --   -0.58276  -0.57303  -0.55836  -0.55178  -0.54383
 Alpha  occ. eigenvalues --   -0.54102  -0.54052  -0.53767  -0.53249  -0.53209
 Alpha  occ. eigenvalues --   -0.52896  -0.52188  -0.52166  -0.51855  -0.51344
 Alpha  occ. eigenvalues --   -0.50737  -0.50677  -0.50307  -0.50298  -0.49905
 Alpha  occ. eigenvalues --   -0.49259  -0.49147  -0.48727  -0.48509  -0.48456
 Alpha  occ. eigenvalues --   -0.48052  -0.47955  -0.47836  -0.47601  -0.47354
 Alpha  occ. eigenvalues --   -0.47130  -0.46925  -0.46769  -0.46596  -0.46492
 Alpha  occ. eigenvalues --   -0.46335  -0.46240  -0.46103  -0.45964  -0.45808
 Alpha  occ. eigenvalues --   -0.45725  -0.45720  -0.45334  -0.45026  -0.44854
 Alpha  occ. eigenvalues --   -0.44578  -0.44509  -0.44406  -0.44082  -0.44025
 Alpha  occ. eigenvalues --   -0.43915  -0.43872  -0.43627  -0.43541  -0.43505
 Alpha  occ. eigenvalues --   -0.43151  -0.43133  -0.43040  -0.42772  -0.42753
 Alpha  occ. eigenvalues --   -0.42686  -0.42580  -0.42108  -0.42008  -0.41848
 Alpha  occ. eigenvalues --   -0.41761  -0.41516  -0.41346  -0.40944  -0.40913
 Alpha  occ. eigenvalues --   -0.40757  -0.40640  -0.40450  -0.40444  -0.40312
 Alpha  occ. eigenvalues --   -0.40260  -0.39966  -0.39904  -0.39848  -0.39732
 Alpha  occ. eigenvalues --   -0.39644  -0.39418  -0.39308  -0.39124  -0.38964
 Alpha  occ. eigenvalues --   -0.38800  -0.38588  -0.38413  -0.38306  -0.38292
 Alpha  occ. eigenvalues --   -0.37972  -0.37967  -0.37819  -0.37817  -0.37714
 Alpha  occ. eigenvalues --   -0.37509  -0.37464  -0.37160  -0.37018  -0.36965
 Alpha  occ. eigenvalues --   -0.36591  -0.36334  -0.36256  -0.36058  -0.35972
 Alpha  occ. eigenvalues --   -0.35748  -0.35744  -0.35532  -0.35267  -0.35257
 Alpha  occ. eigenvalues --   -0.35059  -0.34849  -0.34503  -0.34119  -0.34041
 Alpha  occ. eigenvalues --   -0.33453  -0.33232  -0.33147  -0.32986  -0.32467
 Alpha  occ. eigenvalues --   -0.32180  -0.31741  -0.31713  -0.31648  -0.31181
 Alpha  occ. eigenvalues --   -0.31065  -0.30917  -0.29376  -0.29347  -0.29248
 Alpha  occ. eigenvalues --   -0.28905  -0.28677  -0.28482  -0.26824  -0.26680
 Alpha  occ. eigenvalues --   -0.26376  -0.25786  -0.25748  -0.25661  -0.25581
 Alpha  occ. eigenvalues --   -0.25535  -0.25181  -0.25112  -0.20874  -0.20800
 Alpha  occ. eigenvalues --   -0.18486  -0.18146
 Alpha virt. eigenvalues --   -0.10770  -0.10465  -0.05526  -0.05199  -0.04391
 Alpha virt. eigenvalues --   -0.03635  -0.02179  -0.01809  -0.00220  -0.00177
 Alpha virt. eigenvalues --    0.00360   0.00620   0.01107   0.01331   0.01736

 Mulliken charges:
               1
     1  Mg  11.999993
     2  C    6.000050
     3  C    5.999998
     4  C    5.999963
     5  C    5.999987
     6  N    7.000003
     7  C    5.999965
     8  C    6.000010
     9  C    5.999984
    10  C    6.000026
    11  C    5.999999
    12  C    5.999998
    13  C    5.999994
    14  H    1.000031
    15  N    6.999988
    16  C    5.999981
    17  C    6.000010
    18  C    5.999991
    19  C    6.000011
    20  C    6.000020
    21  C    5.999993
    22  O    8.000003
    23  C    6.000007
    24  N    7.000010
    25  C    6.000044
    26  C    5.999990
    27  C    6.000009
    28  C    5.999987
    29  C    6.000003
    30  C    6.000010
    31  C    5.999997
    32  N    7.000003
    33  C    6.000025
    34  C    5.999993
    35  C    6.000010
    36  C    5.999984
    37  C    5.999978
    38  C    6.000004
    39  O    7.999999
    40  C    5.999985
    41  C    6.000010
    42  O    8.000028
    43  O    7.999985
    44  C    5.999985
    45  H    1.000010
    46  H    1.000000
    47  H    0.999991
    48  H    1.000023
    49  H    0.999993
    50  H    1.000024
    51  H    1.000019
    52  H    1.000001
    53  H    0.999987
    54  H    0.999984
    55  H    0.999981
    56  H    1.000004
    57  H    0.999998
    58  H    1.000014
    59  H    0.999986
    60  H    0.999988
    61  H    0.999988
    62  H    1.000012
    63  H    0.999976
    64  H    1.000007
    65  H    0.999987
    66  H    1.000016
    67  H    1.000012
    68  H    0.999981
    69  H    0.999981
    70  H    1.000012
    71  H    0.999994
    72  H    0.999968
    73  H    0.999991
    74  H    0.999974
    75  H    1.000035
    76  H    0.999980
    77  H    1.000033
    78  H    1.000014
    79  H    0.999996
    80  Mg  12.001676
    81  C    6.021824
    82  C    5.992697
    83  C    5.979104
    84  C    6.008538
    85  N    7.010486
    86  C    5.965955
    87  C    6.006492
    88  C    5.992196
    89  C    6.028701
    90  C    5.998198
    91  C    6.003137
    92  C    5.999616
    93  H    0.995365
    94  N    6.995231
    95  C    6.034310
    96  C    6.024073
    97  C    6.014446
    98  C    6.025454
    99  C    5.995249
   100  C    6.011877
   101  O    8.031011
   102  C    5.997395
   103  N    6.996389
   104  C    6.028878
   105  C    5.995033
   106  C    6.008675
   107  C    5.967291
   108  C    5.997508
   109  C    6.006642
   110  C    5.998306
   111  N    7.001626
   112  C    5.965665
   113  C    5.969277
   114  C    5.996677
   115  C    5.975407
   116  C    6.004133
   117  C    5.982025
   118  O    7.969880
   119  C    5.997527
   120  C    5.998771
   121  O    7.992231
   122  O    7.999250
   123  C    6.001861
   124  H    1.012328
   125  H    1.004573
   126  H    0.991224
   127  H    1.000505
   128  H    1.000246
   129  H    1.003386
   130  H    1.014034
   131  H    0.994867
   132  H    0.997924
   133  H    1.006601
   134  H    0.993722
   135  H    1.001402
   136  H    1.016751
   137  H    1.018130
   138  H    1.017223
   139  H    1.006879
   140  H    1.004138
   141  H    1.014013
   142  H    0.997123
   143  H    1.000526
   144  H    0.993723
   145  H    1.009026
   146  H    0.998760
   147  H    1.004512
   148  H    0.990950
   149  H    0.994987
   150  H    0.995519
   151  H    1.000399
   152  H    0.981507
   153  H    0.983783
   154  H    0.982462
   155  H    0.994007
   156  H    0.998669
   157  H    0.993750
   158  H    0.996269
 Sum of Mulliken charges = 624.00000

 Dipole moment (field-independent basis, Debye):
    X=             -1.9421    Y=             -3.3927    Z=              9.5247  Tot=             10.2958
 Quadrupole moment (field-independent basis, Debye-Ang):
   XX=             90.0440   YY=              0.6846   ZZ=              1.3669
   XY=             79.4869   XZ=           -222.5904   YZ=             -7.1024

 Normal termination of Gaussian 16 at Fri Oct 15 02:01:47 2021.
