 Gaussian 16, Revision A.03,
 Gaussian 16:  ES64L-G16RevA.03 25-Dec-2016

 --------------------------------------------------------
 #p PBE1PBE/Def2SVP td=(nstates=5) density=(transition=1)
 --------------------------------------------------------

 --------------------------------
 TDDFT excited states in gaussian
 --------------------------------
 Symbolic Z-matrix:
 Charge =  0 Multiplicity = 1

                         Standard orientation:
 ---------------------------------------------------------------------
 Center     Atomic      Atomic             Coordinates (Angstroms)
 Number     Number       Type             X           Y           Z
 ---------------------------------------------------------------------
      1         12           0      -18.329927   -0.773538    0.170233
      2          6           0      -17.321900    2.691041   -0.720887
      3          6           0      -17.206441    0.044261    3.251288
      4          6           0      -18.955986   -3.827685    0.742822
      5          6           0      -18.580496   -1.345171   -3.334673
      6          7           0      -17.339927    1.126126    1.095253
      7          6           0      -17.219796    2.411542    0.594808
      8          6           0      -16.875663    3.475389    1.643534
      9          6           0      -16.401915    2.529899    2.790250
     10          6           0      -16.998043    1.125436    2.388845
     11          6           0      -14.920579    2.462702    2.990337
     12          6           0      -17.999188    4.498212    2.020934
     13          6           0      -17.588212    5.869805    2.441114
     14          1           0      -18.433088    6.493712    3.547342
     15          7           0      -18.157265   -1.794530    1.828982
     16          6           0      -17.719430   -1.280611    3.067532
     17          6           0      -17.942944   -2.290675    4.061352
     18          6           0      -18.607033   -3.365058    3.324226
     19          6           0      -18.586302   -3.002415    1.953135
     20          6           0      -17.685020   -2.115361    5.603619
     21          6           0      -19.179338   -4.607085    3.935905
     22          8           0      -19.682030   -5.522117    3.239182
     23          6           0      -19.246713   -4.835651    5.401789
     24          7           0      -18.560065   -2.420220   -1.064878
     25          6           0      -18.842863   -3.631727   -0.581945
     26          6           0      -19.108262   -4.707165   -1.683789
     27          6           0      -19.413402   -3.741899   -2.889242
     28          6           0      -18.770940   -2.403836   -2.431684
     29          6           0      -17.851741   -5.594426   -1.958968
     30          6           0      -20.969813   -3.545254   -3.125089
     31          6           0      -21.871983   -4.784302   -3.304659
     32          7           0      -18.067853    0.406682   -1.665201
     33          6           0      -18.278444    0.019979   -2.983853
     34          6           0      -17.982701    1.124439   -3.866136
     35          6           0      -17.644535    2.191950   -3.024669
     36          6           0      -17.621178    1.700002   -1.690720
     37          6           0      -18.160448    1.160230   -5.346831
     38          6           0      -17.268099    3.599462   -3.014360
     39          8           0      -17.153785    4.454958   -3.882123
     40          6           0      -17.144791    3.947457   -1.441117
     41          6           0      -15.853866    4.595348   -1.284707
     42          8           0      -14.738394    4.096116   -1.500966
     43          8           0      -16.063590    5.944605   -1.291029
     44          6           0      -14.944244    6.827680   -1.215501
     45          1           0      -16.966073    0.420668    4.247959
     46          1           0      -19.181826   -4.885009    0.894956
     47          1           0      -18.689582   -1.577503   -4.396438
     48          1           0      -16.016074    4.029612    1.266047
     49          1           0      -16.920700    2.765561    3.718986
     50          1           0      -14.592043    1.497472    2.604931
     51          1           0      -14.693801    2.465992    4.056383
     52          1           0      -14.315541    3.231499    2.510134
     53          1           0      -18.527383    4.081706    2.878152
     54          1           0      -18.704256    4.524313    1.190524
     55          1           0      -17.703254    6.458270    1.531075
     56          1           0      -16.511726    5.958370    2.588168
     57          1           0      -18.576603   -1.999019    6.219061
     58          1           0      -16.977988   -1.309580    5.799085
     59          1           0      -17.172437   -3.048983    5.838679
     60          1           0      -18.246908   -5.091724    5.753320
     61          1           0      -19.926875   -5.677258    5.535658
     62          1           0      -19.683197   -3.936074    5.834500
     63          1           0      -19.946565   -5.302665   -1.320658
     64          1           0      -18.957990   -4.015619   -3.840483
     65          1           0      -18.103304   -6.597715   -1.614222
     66          1           0      -16.915126   -5.240413   -1.529463
     67          1           0      -17.811754   -5.579626   -3.049059
     68          1           0      -21.109087   -2.990614   -4.052727
     69          1           0      -21.313057   -2.886516   -2.327572
     70          1           0      -22.608907   -4.705204   -2.505559
     71          1           0      -21.207310   -5.625909   -3.107606
     72          1           0      -22.373540   -4.801670   -4.272137
     73          1           0      -18.757772    0.275036   -5.566521
     74          1           0      -17.160538    1.069624   -5.771087
     75          1           0      -18.589562    2.089470   -5.721587
     76          1           0      -17.953957    4.617875   -1.152052
     77          1           0      -14.004340    6.282822   -1.124416
     78          1           0      -15.092673    7.391886   -0.294687
     79          1           0      -14.964818    7.562428   -2.019115
     80         12           0       18.278898   -0.752996    0.022841
     81          6           0       16.350596    2.193607    0.543665
     82          6           0       21.118326    1.179479    0.183393
     83          6           0       19.898051   -3.579547   -0.531986
     84          6           0       15.236999   -2.555293   -0.623611
     85          7           0       18.712656    1.519798    0.270052
     86          6           0       17.731996    2.448970    0.565444
     87          6           0       18.479148    3.802340    0.822776
     88          6           0       20.060402    3.484667    0.662433
     89          6           0       19.957221    1.990285    0.340774
     90          6           0       20.829458    4.357330   -0.351221
     91          6           0       18.084106    4.606747    2.129552
     92          6           0       17.574265    6.000787    1.906027
     93          1           0       17.964358    6.853827    0.727914
     94          7           0       20.334323   -1.183124   -0.029162
     95          6           0       21.317238   -0.247214    0.046645
     96          6           0       22.554089   -0.981036    0.125743
     97          6           0       22.244875   -2.324461   -0.177931
     98          6           0       20.756345   -2.457769   -0.295603
     99          6           0       23.882781   -0.231123    0.319823
    100          6           0       23.211848   -3.429219   -0.479016
    101          8           0       22.820346   -4.559957   -0.853725
    102          6           0       24.669096   -3.165416   -0.388051
    103          7           0       17.588565   -2.779257   -0.573700
    104          6           0       18.445050   -3.737428   -0.651009
    105          6           0       17.860381   -5.226607   -0.911159
    106          6           0       16.367099   -4.868573   -0.956685
    107          6           0       16.367272   -3.379121   -0.713963
    108          6           0       18.456821   -5.800739   -2.248235
    109          6           0       15.426398   -5.623036    0.047379
    110          6           0       15.539943   -5.221245    1.537143
    111          7           0       16.298823   -0.272870   -0.149728
    112          6           0       15.206000   -1.122333   -0.442590
    113          6           0       13.974598   -0.332475   -0.306575
    114          6           0       14.377788    0.966369    0.086238
    115          6           0       15.808025    0.944094    0.211305
    116          6           0       12.527577   -0.870443   -0.517114
    117          6           0       13.871381    2.191508    0.416572
    118          8           0       12.740798    2.634180    0.420438
    119          6           0       15.091821    3.074814    0.798638
    120          6           0       15.047634    4.282700    0.007321
    121          8           0       15.548055    4.409242   -1.115951
    122          8           0       14.162334    5.196674    0.591056
    123          6           0       13.892262    6.398810   -0.235996
    124          1           0       22.056139    1.695220   -0.035093
    125          1           0       20.447119   -4.460118   -0.872190
    126          1           0       14.283832   -3.055606   -0.806691
    127          1           0       18.022503    4.381463    0.021201
    128          1           0       20.558777    3.704531    1.605517
    129          1           0       21.680155    4.844389    0.127137
    130          1           0       20.253693    5.113152   -0.885114
    131          1           0       21.182487    3.641673   -1.093725
    132          1           0       18.931849    4.645945    2.813863
    133          1           0       17.257308    4.048747    2.569099
    134          1           0       18.064670    6.628014    2.651316
    135          1           0       16.488658    5.975499    1.993586
    136          1           0       23.731541    0.784143    0.687234
    137          1           0       24.425628   -0.196848   -0.623892
    138          1           0       24.422119   -0.824317    1.057593
    139          1           0       24.865649   -2.828786    0.629881
    140          1           0       24.969453   -2.356138   -1.054706
    141          1           0       25.238224   -4.043464   -0.690715
    142          1           0       18.075815   -5.889709   -0.072951
    143          1           0       16.011424   -4.923854   -1.985794
    144          1           0       18.662203   -4.957984   -2.908239
    145          1           0       17.689767   -6.411138   -2.726135
    146          1           0       19.364235   -6.402136   -2.187511
    147          1           0       15.486877   -6.696913   -0.126497
    148          1           0       14.400279   -5.438678   -0.269186
    149          1           0       16.522045   -4.905012    1.887076
    150          1           0       15.126404   -6.032081    2.137902
    151          1           0       14.834151   -4.399731    1.658933
    152          1           0       11.853430   -0.619218    0.301798
    153          1           0       12.489053   -1.943490   -0.701277
    154          1           0       12.032281   -0.263162   -1.275155
    155          1           0       14.885157    3.287682    1.846969
    156          1           0       13.308445    6.134294   -1.117267
    157          1           0       14.784046    6.887732   -0.626459
    158          1           0       13.490066    7.151754    0.442024
 ---------------------------------------------------------------------

 SCF Done:  E(RPBE1PBE) =  -4067.37265494     A.U. after   16 cycles

 Excitation energies and oscillator strengths:

 Excited State   1:      Singlet-A      1.7650 eV  702.45 nm  f=0.0000  <S**2>=0.000
     312 -> 313        0.70711
 This state for optimization and/or second-order correction.
 Total Energy, E(TD-HF/TD-DFT) =  -4067.30779170
 Copying the excited state density for this state as the 1-particle RhoCI density.

 Excited State   2:      Singlet-A      1.8204 eV  681.09 nm  f=0.3627  <S**2>=0.000
     309 -> 316       -0.15129
     311 -> 313        0.70061
     311 <- 313       -0.12604

 Excited State   3:      Singlet-A      1.8677 eV  663.85 nm  f=0.3653  <S**2>=0.000
     310 -> 315        0.18707
     312 -> 314        0.68778

 Excited State   4:      Singlet-A      2.1409 eV  579.13 nm  f=0.0000  <S**2>=0.000
     311 -> 314        0.70710

 Excited State   5:      Singlet-A      2.2069 eV  561.81 nm  f=0.1023  <S**2>=0.000
     310 -> 314        0.65388
     312 -> 315       -0.25873

 The electronic state is 1-A.
 Alpha  occ. eigenvalues --  -46.93186 -46.92303 -19.25342 -19.24990 -19.20006
 Alpha  occ. eigenvalues --  -19.19583 -19.19516 -19.18681 -19.18118 -19.17772
 Alpha  occ. eigenvalues --  -14.42045 -14.41641 -14.41416 -14.41060 -14.39517
 Alpha  occ. eigenvalues --  -14.39382 -14.39282 -14.39188 -10.36002 -10.35666
 Alpha  occ. eigenvalues --  -10.33018 -10.31871 -10.31206 -10.30669 -10.29416
 Alpha  occ. eigenvalues --  -10.29154 -10.29093 -10.29003 -10.28788 -10.28543
 Alpha  occ. eigenvalues --  -10.28414 -10.28347 -10.28292 -10.28244 -10.28212
 Alpha  occ. eigenvalues --  -10.28153 -10.28066 -10.28056 -10.27966 -10.27626
 Alpha  occ. eigenvalues --  -10.26831 -10.26741 -10.26686 -10.26603 -10.26558
 Alpha  occ. eigenvalues --  -10.26362 -10.26152 -10.26112 -10.26033 -10.26001
 Alpha  occ. eigenvalues --  -10.25988 -10.25979 -10.25960 -10.25739 -10.25705
 Alpha  occ. eigenvalues --  -10.25491 -10.25476 -10.25462 -10.25430 -10.25295
 Alpha  occ. eigenvalues --  -10.25291 -10.25223 -10.25120 -10.25097 -10.25003
 Alpha  occ. eigenvalues --  -10.24999 -10.24920 -10.24870 -10.24566 -10.24544
 Alpha  occ. eigenvalues --  -10.24543 -10.24207 -10.24028 -10.23744 -10.23657
 Alpha  occ. eigenvalues --  -10.23554 -10.23464 -10.23442 -10.23398 -10.23373
 Alpha  occ. eigenvalues --  -10.23323 -10.23156 -10.23119 -10.23060 -10.22849
 Alpha  occ. eigenvalues --  -10.21999  -3.15110  -3.14541  -1.87964  -1.87518
 Alpha  occ. eigenvalues --   -1.87350  -1.87289  -1.86911  -1.86787  -1.11187
 Alpha  occ. eigenvalues --   -1.09150  -1.04860  -1.04302  -1.02853  -1.02257
 Alpha  occ. eigenvalues --   -1.01678  -1.01186  -1.00726  -0.99643  -0.98575
 Alpha  occ. eigenvalues --   -0.98322  -0.98173  -0.97582  -0.97139  -0.96586
 Alpha  occ. eigenvalues --   -0.87947  -0.86856  -0.84050  -0.83721  -0.83107
 Alpha  occ. eigenvalues --   -0.82370  -0.82352  -0.82033  -0.81778  -0.81387
 Alpha  occ. eigenvalues --   -0.81136  -0.81098  -0.80516  -0.79920  -0.78960
 Alpha  occ. eigenvalues --   -0.78545  -0.78280  -0.77683  -0.77395  -0.76829
 Alpha  occ. eigenvalues --   -0.76344  -0.76204  -0.75446  -0.75082  -0.75022
 Alpha  occ. eigenvalues --   -0.74383  -0.72873  -0.72427  -0.71873  -0.71718
 Alpha  occ. eigenvalues --   -0.71580  -0.70772  -0.70522  -0.70088  -0.69803
 Alpha  occ. eigenvalues --   -0.69308  -0.67742  -0.67063  -0.65980  -0.65340
 Alpha  occ. eigenvalues --   -0.64777  -0.63625  -0.63529  -0.63014  -0.62532
 Alpha  occ. eigenvalues --   -0.62255  -0.61387  -0.61212  -0.60063  -0.59781
 Alpha  occ. eigenvalues --   -0.59568  -0.59476  -0.59417  -0.59108  -0.58952
 Alpha  occ. eigenvalues --   -0.58772  -0.56549  -0.56080  -0.55385  -0.54585
 Alpha  occ. eigenvalues --   -0.54324  -0.54110  -0.53944  -0.53290  -0.53252
 Alpha  occ. eigenvalues --   -0.52871  -0.52700  -0.52443  -0.52336  -0.52117
 Alpha  occ. eigenvalues --   -0.50821  -0.50549  -0.50374  -0.50116  -0.49857
 Alpha  occ. eigenvalues --   -0.49426  -0.49396  -0.49180  -0.48714  -0.48212
 Alpha  occ. eigenvalues --   -0.48157  -0.47816  -0.47636  -0.47545  -0.47298
 Alpha  occ. eigenvalues --   -0.47284  -0.47192  -0.47020  -0.46987  -0.46586
 Alpha  occ. eigenvalues --   -0.46429  -0.46098  -0.45992  -0.45813  -0.45746
 Alpha  occ. eigenvalues --   -0.45504  -0.45495  -0.44871  -0.44819  -0.44521
 Alpha  occ. eigenvalues --   -0.44450  -0.44375  -0.44329  -0.44096  -0.44008
 Alpha  occ. eigenvalues --   -0.43835  -0.43830  -0.43753  -0.43512  -0.43418
 Alpha  occ. eigenvalues --   -0.43337  -0.43203  -0.42962  -0.42778  -0.42643
 Alpha  occ. eigenvalues --   -0.42490  -0.42482  -0.42264  -0.42176  -0.42001
 Alpha  occ. eigenvalues --   -0.41928  -0.41422  -0.41315  -0.41230  -0.41218
 Alpha  occ. eigenvalues --   -0.41025  -0.40882  -0.40862  -0.40698  -0.40593
 Alpha  occ. eigenvalues --   -0.40272  -0.40064  -0.39896  -0.39784  -0.39605
 Alpha  occ. eigenvalues --   -0.39497  -0.39462  -0.39236  -0.39103  -0.38763
 Alpha  occ. eigenvalues --   -0.38644  -0.38467  -0.38464  -0.38117  -0.38052
 Alpha  occ. eigenvalues --   -0.37979  -0.37853  -0.37632  -0.37616  -0.37490
 Alpha  occ. eigenvalues --   -0.37379  -0.37193  -0.37012  -0.36824  -0.36747
 Alpha  occ. eigenvalues --   -0.36673  -0.36498  -0.36349  -0.36181  -0.36105
 Alpha  occ. eigenvalues --   -0.36054  -0.35953  -0.35680  -0.35498  -0.35492
 Alpha  occ. eigenvalues --   -0.35016  -0.34672  -0.34653  -0.34340  -0.34191
 Alpha  occ. eigenvalues --   -0.34049  -0.33532  -0.33082  -0.32741  -0.32218
 Alpha  occ. eigenvalues --   -0.31923  -0.31694  -0.31485  -0.31469  -0.31062
 Alpha  occ. eigenvalues --   -0.30645  -0.30558  -0.29807  -0.29122  -0.29057
 Alpha  occ. eigenvalues --   -0.28660  -0.28635  -0.28445  -0.27187  -0.26846
 Alpha  occ. eigenvalues --   -0.26241  -0.25743  -0.25721  -0.25612  -0.25492
 Alpha  occ. eigenvalues --   -0.25469  -0.25172  -0.24693  -0.21212  -0.20700
 Alpha  occ. eigenvalues --   -0.19278  -0.18828
 Alpha virt. eigenvalues --   -0.11970  -0.11049  -0.05255  -0.04397  -0.04024
 Alpha virt. eigenvalues --   -0.03901  -0.02209  -0.02060  -0.00996  -0.00435
 Alpha virt. eigenvalues --   -0.00165   0.00378   0.00963   0.01489   0.01552

 Mulliken charges:
               1
     1  Mg  12.000000
     2  C    6.000000
     3  C    6.000000
     4  C    6.000000
     5  C    6.000000
     6  N    7.000000
     7  C    6.000000
     8  C    6.000000
     9  C    6.000000
    10  C    6.000000
    11  C    6.000000
    12  C    6.000000
    13  C    6.000000
    14  H    1.000000
    15  N    7.000000
    16  C    6.000000
    17  C    6.000000
    18  C    6.000000
    19  C    6.000000
    20  C    6.000000
    21  C    6.000000
    22  O    8.000000
    23  C    6.000000
    24  N    7.000000
    25  C    6.000000
    26  C    6.000000
    27  C    6.000000
    28  C    6.000000
    29  C    6.000000
    30  C    6.000000
    31  C    6.000000
    32  N    7.000000
    33  C    6.000000
    34  C    6.000000
    35  C    6.000000
    36  C    6.000000
    37  C    6.000000
    38  C    6.000000
    39  O    8.000000
    40  C    6.000000
    41  C    6.000000
    42  O    8.000000
    43  O    8.000000
    44  C    6.000000
    45  H    1.000000
    46  H    1.000000
    47  H    1.000000
    48  H    1.000000
    49  H    1.000000
    50  H    1.000000
    51  H    1.000000
    52  H    1.000000
    53  H    1.000000
    54  H    1.000000
    55  H    1.000000
    56  H    1.000000
    57  H    1.000000
    58  H    1.000000
    59  H    1.000000
    60  H    1.000000
    61  H    1.000000
    62  H    1.000000
    63  H    1.000000
    64  H    1.000000
    65  H    1.000000
    66  H    1.000000
    67  H    1.000000
    68  H    1.000000
    69  H    1.000000
    70  H    1.000000
    71  H    1.000000
    72  H    1.000000
    73  H    1.000000
    74  H    1.000000
    75  H    1.000000
    76  H    1.000000
    77  H    1.000000
    78  H    1.000000
    79  H    1.000000
    80  Mg  12.000000
    81  C    6.000000
    82  C    6.000000
    83  C    6.000000
    84  C    6.000000
    85  N    7.000000
    86  C    6.000000
    87  C    6.000000
    88  C    6.000000
    89  C    6.000000
    90  C    6.000000
    91  C    6.000000
    92  C    6.000000
    93  H    1.000000
    94  N    7.000000
    95  C    6.000000
    96  C    6.000000
    97  C    6.000000
    98  C    6.000000
    99  C    6.000000
   100  C    6.000000
   101  O    8.000000
   102  C    6.000000
   103  N    7.000000
   104  C    6.000000
   105  C    6.000000
   106  C    6.000000
   107  C    6.000000
   108  C    6.000000
   109  C    6.000000
   110  C    6.000000
   111  N    7.000000
   112  C    6.000000
   113  C    6.000000
   114  C    6.000000
   115  C    6.000000
   116  C    6.000000
   117  C    6.000000
   118  O    8.000000
   119  C    6.000000
   120  C    6.000000
   121  O    8.000000
   122  O    8.000000
   123  C    6.000000
   124  H    1.000000
   125  H    1.000000
   126  H    1.000000
   127  H    1.000000
   128  H    1.000000
   129  H    1.000000
   130  H    1.000000
   131  H    1.000000
   132  H    1.000000
   133  H    1.000000
   134  H    1.000000
   135  H    1.000000
   136  H    1.000000
   137  H    1.000000
   138  H    1.000000
   139  H    1.000000
   140  H    1.000000
   141  H    1.000000
   142  H    1.000000
   143  H    1.000000
   144  H    1.000000
   145  H    1.000000
   146  H    1.000000
   147  H    1.000000
   148  H    1.000000
   149  H    1.000000
   150  H    1.000000
   151  H    1.000000
   152  H    1.000000
   153  H    1.000000
   154  H    1.000000
   155  H    1.000000
   156  H    1.000000
   157  H    1.000000
   158  H    1.000000
 Sum of Mulliken charges = 624.00000

 Dipole moment (field-independent basis, Debye):
    X=              0.0000    Y=              0.0000    Z=             -0.0000  Tot=              0.0000
 Quadrupole moment (field-independent basis, Debye-Ang):
   XX=              0.0000   YY=             -0.0000   ZZ=             -0.0000
   XY=             -0.0000   XZ=              0.0000   YZ=              0.0000

 Normal termination of Gaussian 16 at Thu Oct 14 01:24:02 2021.
