 Gaussian 16, Revision A.03,
 Gaussian 16:  ES64L-G16RevA.03 25-Dec-2016

 --------------------------------------------------------
 #p PBE1PBE/Def2SVP td=(nstates=5) density=(transition=1)
 --------------------------------------------------------

 --------------------------------
 TDDFT excited states in gaussian
 --------------------------------
 Symbolic Z-matrix:
 Charge =  0 Multiplicity = 1

                         Standard orientation:
 ---------------------------------------------------------------------
 Center     Atomic      Atomic             Coordinates (Angstroms)
 Number     Number       Type             X           Y           Z
 ---------------------------------------------------------------------
      1         12           0       14.333402   -0.255577   -0.151302
      2          6           0       10.993859   -1.051343   -0.568150
      3          6           0       13.868532    2.492242   -2.348165
      4          6           0       17.445119    0.937416    0.646289
      5          6           0       14.650120   -2.628341    2.338415
      6          7           0       12.640713    0.500834   -1.399889
      7          6           0       11.336818    0.059754   -1.315792
      8          6           0       10.302441    0.977282   -2.069348
      9          6           0       11.290274    1.870657   -2.958295
     10          6           0       12.739320    1.616256   -2.259561
     11          6           0       11.342600    1.643611   -4.517177
     12          6           0        9.428001    1.802475   -1.192239
     13          6           0        7.921185    1.631941   -1.216868
     14          1           0        7.095406    2.878494   -0.860564
     15          7           0       15.539268    1.440156   -0.845185
     16          6           0       15.129390    2.392817   -1.796931
     17          6           0       16.209067    3.284832   -2.077731
     18          6           0       17.246910    2.937123   -1.071897
     19          6           0       16.779055    1.721944   -0.335945
     20          6           0       16.105272    4.491831   -3.015871
     21          6           0       18.543380    3.755993   -0.945021
     22          8           0       18.859866    4.751791   -1.589497
     23          6           0       19.365288    3.533585    0.274940
     24          7           0       15.840959   -0.674140    1.474092
     25          6           0       17.074423   -0.153185    1.421052
     26          6           0       17.769956   -0.551252    2.722022
     27          6           0       16.940170   -1.796604    3.287677
     28          6           0       15.702430   -1.745314    2.285047
     29          6           0       19.234672   -1.024169    2.413276
     30          6           0       16.477339   -1.812670    4.802294
     31          6           0       17.036404   -2.844098    5.770910
     32          7           0       13.089644   -1.668839    0.693364
     33          6           0       13.359654   -2.611678    1.690171
     34          6           0       12.173271   -3.350990    1.996171
     35          6           0       11.178093   -2.786283    1.139845
     36          6           0       11.852237   -1.785639    0.336788
     37          6           0       11.989202   -4.445725    2.999367
     38          6           0        9.845611   -2.845011    0.699112
     39          8           0        8.964018   -3.588905    1.079925
     40          6           0        9.640337   -1.687536   -0.353322
     41          6           0        8.896024   -2.225622   -1.502723
     42          8           0        7.709505   -1.993143   -1.704599
     43          8           0        9.722337   -3.030042   -2.273186
     44          6           0        9.023589   -3.641967   -3.425711
     45          1           0       13.858678    3.339463   -3.036430
     46          1           0       18.455594    1.331853    0.775213
     47          1           0       14.758323   -3.343139    3.156682
     48          1           0        9.682648    0.362990   -2.721572
     49          1           0       11.051919    2.910454   -2.731582
     50          1           0       10.482126    1.027810   -4.778666
     51          1           0       12.260353    1.179217   -4.878211
     52          1           0       11.305600    2.628528   -4.981158
     53          1           0        9.576519    2.838505   -1.500391
     54          1           0        9.695451    1.645535   -0.147831
     55          1           0        7.658496    0.908430   -0.445650
     56          1           0        7.535850    1.336293   -2.192415
     57          1           0       15.161595    4.764344   -3.487899
     58          1           0       16.897646    4.285280   -3.734879
     59          1           0       16.564053    5.292914   -2.437192
     60          1           0       20.146346    2.774530    0.268171
     61          1           0       18.753279    3.428136    1.170850
     62          1           0       19.943205    4.447918    0.414556
     63          1           0       17.797109    0.257517    3.452621
     64          1           0       17.443761   -2.728929    3.034606
     65          1           0       19.888682   -0.484445    3.098149
     66          1           0       19.569344   -0.877588    1.385559
     67          1           0       19.381561   -2.094054    2.562941
     68          1           0       15.394248   -1.916738    4.741484
     69          1           0       16.798709   -0.850921    5.204522
     70          1           0       16.285915   -2.927375    6.557401
     71          1           0       17.945134   -2.446447    6.223313
     72          1           0       17.225808   -3.862791    5.434195
     73          1           0       10.944443   -4.747761    2.921664
     74          1           0       12.269185   -4.041712    3.971769
     75          1           0       12.585417   -5.341501    2.824616
     76          1           0        8.980261   -0.989431    0.162616
     77          1           0        8.599747   -4.604252   -3.138735
     78          1           0        9.753074   -3.668366   -4.235160
     79          1           0        8.227491   -3.001283   -3.803924
     80         12           0      -13.552289    0.823719    0.113535
     81          6           0      -14.426416   -2.364756   -0.670702
     82          6           0      -10.280367    0.406524   -0.898170
     83          6           0      -12.860571    4.008044    1.164709
     84          6           0      -16.819166    1.250262    1.609017
     85          7           0      -12.455118   -0.854303   -0.489545
     86          6           0      -13.077523   -2.040462   -1.004835
     87          6           0      -12.126920   -2.825066   -1.817542
     88          6           0      -10.752333   -2.085315   -1.492757
     89          6           0      -11.138867   -0.742519   -0.913894
     90          6           0       -9.819914   -2.902981   -0.466010
     91          6           0      -12.541035   -3.010963   -3.309697
     92          6           0      -12.377887   -4.395420   -3.849263
     93          1           0      -11.081301   -5.171806   -3.389943
     94          7           0      -11.823764    2.065603    0.063606
     95          6           0      -10.606168    1.649840   -0.386910
     96          6           0       -9.711226    2.750496   -0.277952
     97          6           0      -10.443160    3.885971    0.247586
     98          6           0      -11.841470    3.385780    0.467582
     99          6           0       -8.205324    2.620362   -0.594714
    100          6           0      -10.066584    5.308351    0.522125
    101          8           0      -10.736947    6.188044    1.074225
    102          6           0       -8.647902    5.739351   -0.010798
    103          7           0      -14.662256    2.420161    1.351155
    104          6           0      -14.184923    3.626679    1.529979
    105          6           0      -15.243879    4.602956    2.038046
    106          6           0      -16.503474    3.700456    2.173365
    107          6           0      -15.969675    2.350953    1.697017
    108          6           0      -14.846837    5.324480    3.424638
    109          6           0      -17.648255    4.274113    1.226996
    110          6           0      -17.500891    4.242365   -0.314363
    111          7           0      -15.232060   -0.362277    0.564075
    112          6           0      -16.457894   -0.027836    1.107853
    113          6           0      -17.326611   -1.209516    0.932490
    114          6           0      -16.643065   -2.166173    0.243932
    115          6           0      -15.340300   -1.581164    0.043380
    116          6           0      -18.667251   -1.361093    1.564545
    117          6           0      -16.673545   -3.505875   -0.342390
    118          8           0      -17.554115   -4.349086   -0.374398
    119          6           0      -15.209976   -3.664201   -0.947581
    120          6           0      -14.561261   -4.780444   -0.230063
    121          8           0      -14.391967   -4.907582    0.995149
    122          8           0      -14.195597   -5.655539   -1.232735
    123          6           0      -13.357846   -6.775897   -0.785279
    124          1           0       -9.251444    0.331747   -1.255779
    125          1           0      -12.604509    5.050784    1.366923
    126          1           0      -17.834800    1.386031    1.984858
    127          1           0      -12.143283   -3.817820   -1.366008
    128          1           0      -10.225758   -1.931472   -2.434153
    129          1           0      -10.124047   -3.940983   -0.331266
    130          1           0      -10.000968   -2.466108    0.515960
    131          1           0       -8.813043   -2.713028   -0.835479
    132          1           0      -11.946488   -2.349983   -3.940412
    133          1           0      -13.597564   -2.743567   -3.297569
    134          1           0      -12.274477   -4.421081   -4.933331
    135          1           0      -13.158478   -5.147939   -3.736646
    136          1           0       -7.942471    2.599767   -1.652281
    137          1           0       -7.933548    1.714340   -0.053338
    138          1           0       -7.627994    3.489789   -0.280983
    139          1           0       -7.882139    5.293274    0.623856
    140          1           0       -8.659189    6.819025   -0.158928
    141          1           0       -8.458029    5.437004   -1.040873
    142          1           0      -15.421060    5.351766    1.266408
    143          1           0      -16.903694    3.657876    3.186379
    144          1           0      -14.588766    6.350989    3.161835
    145          1           0      -13.972045    4.842154    3.861959
    146          1           0      -15.591016    5.425235    4.213638
    147          1           0      -17.970250    5.289774    1.456318
    148          1           0      -18.459316    3.577831    1.442714
    149          1           0      -18.300580    3.564052   -0.612158
    150          1           0      -16.511924    3.918316   -0.636026
    151          1           0      -17.648805    5.210620   -0.792537
    152          1           0      -19.203485   -1.970055    0.837379
    153          1           0      -19.161741   -0.406530    1.745480
    154          1           0      -18.555575   -2.059127    2.393201
    155          1           0      -15.473029   -3.986853   -1.954606
    156          1           0      -13.291395   -7.383573   -1.688195
    157          1           0      -13.954914   -7.318935   -0.052661
    158          1           0      -12.426891   -6.503183   -0.287811
 ---------------------------------------------------------------------

 SCF Done:  E(RPBE1PBE) =  -4067.35842356     A.U. after   16 cycles

 Excitation energies and oscillator strengths:

 Excited State   1:      Singlet-A      1.6090 eV  770.59 nm  f=0.0000  <S**2>=0.000
     312 -> 313        0.70710
 This state for optimization and/or second-order correction.
 Total Energy, E(TD-HF/TD-DFT) =  -4067.29929537
 Copying the excited state density for this state as the 1-particle RhoCI density.

 Excited State   2:      Singlet-A      1.8382 eV  674.48 nm  f=0.3863  <S**2>=0.000
     310 -> 316       -0.17971
     312 -> 314        0.69177
     312 <- 314       -0.10359

 Excited State   3:      Singlet-A      1.8584 eV  667.14 nm  f=0.3520  <S**2>=0.000
     309 -> 315        0.17015
     311 -> 313        0.69185
     311 <- 313       -0.10672

 Excited State   4:      Singlet-A      2.1845 eV  567.57 nm  f=0.1545  <S**2>=0.000
     309 -> 313        0.65879
     311 -> 315       -0.23368

 Excited State   5:      Singlet-A      2.2713 eV  545.88 nm  f=0.0000  <S**2>=0.000
     311 -> 314        0.70710

 The electronic state is 1-A.
 Alpha  occ. eigenvalues --  -46.93921 -46.92571 -19.26286 -19.25907 -19.20484
 Alpha  occ. eigenvalues --  -19.20227 -19.19875 -19.19477 -19.19213 -19.18859
 Alpha  occ. eigenvalues --  -14.43016 -14.41899 -14.41606 -14.41509 -14.39692
 Alpha  occ. eigenvalues --  -14.39688 -14.39156 -14.39012 -10.36533 -10.36283
 Alpha  occ. eigenvalues --  -10.32647 -10.32593 -10.32296 -10.31604 -10.30742
 Alpha  occ. eigenvalues --  -10.29610 -10.29567 -10.29565 -10.29514 -10.29302
 Alpha  occ. eigenvalues --  -10.29013 -10.28861 -10.28825 -10.28444 -10.28266
 Alpha  occ. eigenvalues --  -10.28043 -10.27869 -10.27851 -10.27539 -10.27291
 Alpha  occ. eigenvalues --  -10.27266 -10.27258 -10.27069 -10.26658 -10.26584
 Alpha  occ. eigenvalues --  -10.26580 -10.26540 -10.26511 -10.26351 -10.26343
 Alpha  occ. eigenvalues --  -10.26267 -10.26236 -10.26154 -10.26071 -10.25862
 Alpha  occ. eigenvalues --  -10.25811 -10.25736 -10.25691 -10.25671 -10.25515
 Alpha  occ. eigenvalues --  -10.25356 -10.25334 -10.25303 -10.25194 -10.25177
 Alpha  occ. eigenvalues --  -10.25106 -10.25008 -10.24902 -10.24789 -10.24639
 Alpha  occ. eigenvalues --  -10.24455 -10.24182 -10.24169 -10.23984 -10.23909
 Alpha  occ. eigenvalues --  -10.23749 -10.23713 -10.23656 -10.23433 -10.23280
 Alpha  occ. eigenvalues --  -10.23066 -10.23020 -10.22929 -10.22893 -10.22679
 Alpha  occ. eigenvalues --  -10.22593  -3.15723  -3.14560  -1.88590  -1.88071
 Alpha  occ. eigenvalues --   -1.87946  -1.87403  -1.86924  -1.86783  -1.10703
 Alpha  occ. eigenvalues --   -1.10428  -1.05029  -1.04825  -1.04684  -1.04084
 Alpha  occ. eigenvalues --   -1.02459  -1.02257  -0.99733  -0.99703  -0.98826
 Alpha  occ. eigenvalues --   -0.98527  -0.97367  -0.97114  -0.96320  -0.96246
 Alpha  occ. eigenvalues --   -0.87111  -0.86757  -0.83833  -0.83706  -0.83335
 Alpha  occ. eigenvalues --   -0.83029  -0.82540  -0.82237  -0.82076  -0.81773
 Alpha  occ. eigenvalues --   -0.81649  -0.81186  -0.80325  -0.80008  -0.78874
 Alpha  occ. eigenvalues --   -0.78785  -0.78270  -0.77612  -0.77216  -0.76623
 Alpha  occ. eigenvalues --   -0.76431  -0.75813  -0.75414  -0.75330  -0.75182
 Alpha  occ. eigenvalues --   -0.74058  -0.72314  -0.72275  -0.71604  -0.71549
 Alpha  occ. eigenvalues --   -0.71406  -0.71246  -0.70588  -0.70084  -0.69920
 Alpha  occ. eigenvalues --   -0.69242  -0.68084  -0.66872  -0.66796  -0.66583
 Alpha  occ. eigenvalues --   -0.64125  -0.63829  -0.63616  -0.63583  -0.62775
 Alpha  occ. eigenvalues --   -0.62484  -0.61764  -0.61604  -0.60127  -0.59961
 Alpha  occ. eigenvalues --   -0.59827  -0.59746  -0.59404  -0.59386  -0.59157
 Alpha  occ. eigenvalues --   -0.58881  -0.57681  -0.57059  -0.54875  -0.54760
 Alpha  occ. eigenvalues --   -0.54450  -0.54084  -0.53931  -0.53748  -0.53433
 Alpha  occ. eigenvalues --   -0.53312  -0.52511  -0.52439  -0.52049  -0.51571
 Alpha  occ. eigenvalues --   -0.51203  -0.50572  -0.50490  -0.50090  -0.50030
 Alpha  occ. eigenvalues --   -0.49462  -0.49421  -0.49379  -0.48970  -0.48569
 Alpha  occ. eigenvalues --   -0.48357  -0.48050  -0.47896  -0.47862  -0.47602
 Alpha  occ. eigenvalues --   -0.47448  -0.47400  -0.47108  -0.46919  -0.46860
 Alpha  occ. eigenvalues --   -0.46771  -0.46400  -0.46245  -0.46198  -0.46148
 Alpha  occ. eigenvalues --   -0.46012  -0.45747  -0.45586  -0.45329  -0.45026
 Alpha  occ. eigenvalues --   -0.44879  -0.44466  -0.44380  -0.44238  -0.44207
 Alpha  occ. eigenvalues --   -0.43897  -0.43707  -0.43596  -0.43409  -0.43407
 Alpha  occ. eigenvalues --   -0.43200  -0.43131  -0.43052  -0.43031  -0.42747
 Alpha  occ. eigenvalues --   -0.42687  -0.42399  -0.42280  -0.42013  -0.41992
 Alpha  occ. eigenvalues --   -0.41931  -0.41821  -0.41543  -0.41520  -0.41406
 Alpha  occ. eigenvalues --   -0.41265  -0.40875  -0.40823  -0.40812  -0.40568
 Alpha  occ. eigenvalues --   -0.40540  -0.40429  -0.40248  -0.40229  -0.40044
 Alpha  occ. eigenvalues --   -0.39882  -0.39513  -0.39436  -0.39377  -0.39238
 Alpha  occ. eigenvalues --   -0.39090  -0.38741  -0.38677  -0.38559  -0.38183
 Alpha  occ. eigenvalues --   -0.37951  -0.37851  -0.37663  -0.37613  -0.37598
 Alpha  occ. eigenvalues --   -0.37587  -0.37341  -0.37120  -0.37026  -0.37003
 Alpha  occ. eigenvalues --   -0.36817  -0.36789  -0.36491  -0.36452  -0.36443
 Alpha  occ. eigenvalues --   -0.36352  -0.36093  -0.35593  -0.35382  -0.35303
 Alpha  occ. eigenvalues --   -0.35010  -0.34735  -0.34669  -0.34485  -0.34408
 Alpha  occ. eigenvalues --   -0.33429  -0.32939  -0.32797  -0.32519  -0.32454
 Alpha  occ. eigenvalues --   -0.32284  -0.32083  -0.31867  -0.31668  -0.31409
 Alpha  occ. eigenvalues --   -0.31310  -0.31010  -0.29844  -0.29564  -0.29437
 Alpha  occ. eigenvalues --   -0.29314  -0.28950  -0.28832  -0.27502  -0.26807
 Alpha  occ. eigenvalues --   -0.26271  -0.26172  -0.25883  -0.25871  -0.25631
 Alpha  occ. eigenvalues --   -0.25584  -0.25365  -0.25087  -0.21642  -0.21229
 Alpha  occ. eigenvalues --   -0.19828  -0.18595
 Alpha virt. eigenvalues --   -0.12208  -0.10996  -0.05925  -0.05723  -0.04382
 Alpha virt. eigenvalues --   -0.04205  -0.02295  -0.02205  -0.00802  -0.00462
 Alpha virt. eigenvalues --    0.00138   0.00292   0.00548   0.00879   0.01115

 Mulliken charges:
               1
     1  Mg  12.000000
     2  C    6.000000
     3  C    6.000000
     4  C    6.000000
     5  C    6.000000
     6  N    7.000000
     7  C    6.000000
     8  C    6.000000
     9  C    6.000000
    10  C    6.000000
    11  C    6.000000
    12  C    6.000000
    13  C    6.000000
    14  H    1.000000
    15  N    7.000000
    16  C    6.000000
    17  C    6.000000
    18  C    6.000000
    19  C    6.000000
    20  C    6.000000
    21  C    6.000000
    22  O    8.000000
    23  C    6.000000
    24  N    7.000000
    25  C    6.000000
    26  C    6.000000
    27  C    6.000000
    28  C    6.000000
    29  C    6.000000
    30  C    6.000000
    31  C    6.000000
    32  N    7.000000
    33  C    6.000000
    34  C    6.000000
    35  C    6.000000
    36  C    6.000000
    37  C    6.000000
    38  C    6.000000
    39  O    8.000000
    40  C    6.000000
    41  C    6.000000
    42  O    8.000000
    43  O    8.000000
    44  C    6.000000
    45  H    1.000000
    46  H    1.000000
    47  H    1.000000
    48  H    1.000000
    49  H    1.000000
    50  H    1.000000
    51  H    1.000000
    52  H    1.000000
    53  H    1.000000
    54  H    1.000000
    55  H    1.000000
    56  H    1.000000
    57  H    1.000000
    58  H    1.000000
    59  H    1.000000
    60  H    1.000000
    61  H    1.000000
    62  H    1.000000
    63  H    1.000000
    64  H    1.000000
    65  H    1.000000
    66  H    1.000000
    67  H    1.000000
    68  H    1.000000
    69  H    1.000000
    70  H    1.000000
    71  H    1.000000
    72  H    1.000000
    73  H    1.000000
    74  H    1.000000
    75  H    1.000000
    76  H    1.000000
    77  H    1.000000
    78  H    1.000000
    79  H    1.000000
    80  Mg  12.000000
    81  C    6.000000
    82  C    6.000000
    83  C    6.000000
    84  C    6.000000
    85  N    7.000000
    86  C    6.000000
    87  C    6.000000
    88  C    6.000000
    89  C    6.000000
    90  C    6.000000
    91  C    6.000000
    92  C    6.000000
    93  H    1.000000
    94  N    7.000000
    95  C    6.000000
    96  C    6.000000
    97  C    6.000000
    98  C    6.000000
    99  C    6.000000
   100  C    6.000000
   101  O    8.000000
   102  C    6.000000
   103  N    7.000000
   104  C    6.000000
   105  C    6.000000
   106  C    6.000000
   107  C    6.000000
   108  C    6.000000
   109  C    6.000000
   110  C    6.000000
   111  N    7.000000
   112  C    6.000000
   113  C    6.000000
   114  C    6.000000
   115  C    6.000000
   116  C    6.000000
   117  C    6.000000
   118  O    8.000000
   119  C    6.000000
   120  C    6.000000
   121  O    8.000000
   122  O    8.000000
   123  C    6.000000
   124  H    1.000000
   125  H    1.000000
   126  H    1.000000
   127  H    1.000000
   128  H    1.000000
   129  H    1.000000
   130  H    1.000000
   131  H    1.000000
   132  H    1.000000
   133  H    1.000000
   134  H    1.000000
   135  H    1.000000
   136  H    1.000000
   137  H    1.000000
   138  H    1.000000
   139  H    1.000000
   140  H    1.000000
   141  H    1.000000
   142  H    1.000000
   143  H    1.000000
   144  H    1.000000
   145  H    1.000000
   146  H    1.000000
   147  H    1.000000
   148  H    1.000000
   149  H    1.000000
   150  H    1.000000
   151  H    1.000000
   152  H    1.000000
   153  H    1.000000
   154  H    1.000000
   155  H    1.000000
   156  H    1.000000
   157  H    1.000000
   158  H    1.000000
 Sum of Mulliken charges = 624.00000

 Dipole moment (field-independent basis, Debye):
    X=             -0.0000    Y=             -0.0000    Z=              0.0000  Tot=              0.0000
 Quadrupole moment (field-independent basis, Debye-Ang):
   XX=             -0.0000   YY=             -0.0000   ZZ=              0.0000
   XY=             -0.0000   XZ=              0.0000   YZ=              0.0000

 Normal termination of Gaussian 16 at Fri Oct 15 06:43:03 2021.
