 Gaussian 16, Revision A.03,
 Gaussian 16:  ES64L-G16RevA.03 25-Dec-2016

 --------------------------------------------------------
 #p PBE1PBE/Def2SVP td=(nstates=5) density=(transition=1)
 --------------------------------------------------------

 --------------------------------
 TDDFT excited states in gaussian
 --------------------------------
 Symbolic Z-matrix:
 Charge =  0 Multiplicity = 1

                         Standard orientation:
 ---------------------------------------------------------------------
 Center     Atomic      Atomic             Coordinates (Angstroms)
 Number     Number       Type             X           Y           Z
 ---------------------------------------------------------------------
      1         12           0       13.041651   -0.943895   -0.186589
      2          6           0       15.283834    1.762331    0.566736
      3          6           0       10.461581    1.139081    1.068535
      4          6           0       10.709802   -3.490018   -0.711990
      5          6           0       15.593344   -2.951378   -0.973468
      6          7           0       12.982330    1.203767    0.928947
      7          6           0       13.990369    2.100533    0.983474
      8          6           0       13.505227    3.407708    1.707432
      9          6           0       12.013739    3.025336    2.017111
     10          6           0       11.746705    1.725907    1.223312
     11          6           0       11.739695    2.890795    3.555736
     12          6           0       13.627812    4.661696    0.842124
     13          6           0       14.175435    5.877329    1.515138
     14          1           0       14.417034    7.140796    0.676581
     15          7           0       10.909569   -1.106383   -0.077170
     16          6           0       10.066890   -0.145160    0.471078
     17          6           0        8.704431   -0.628280    0.364822
     18          6           0        8.717847   -1.883033   -0.221511
     19          6           0       10.170354   -2.257376   -0.295515
     20          6           0        7.503975    0.063663    0.943812
     21          6           0        7.542181   -2.887568   -0.562290
     22          8           0        7.628231   -3.976223   -1.075650
     23          6           0        6.114953   -2.413011   -0.394775
     24          7           0       13.108395   -2.925466   -0.597674
     25          6           0       12.083669   -3.816713   -0.782081
     26          6           0       12.593153   -5.268034   -0.943154
     27          6           0       14.132111   -5.059055   -1.273769
     28          6           0       14.281283   -3.522857   -0.953614
     29          6           0       12.287763   -6.164283    0.299437
     30          6           0       14.533501   -5.412431   -2.738226
     31          6           0       13.973647   -4.490249   -3.818945
     32          7           0       15.005015   -0.738789   -0.195258
     33          6           0       16.001909   -1.659251   -0.623329
     34          6           0       17.332119   -1.065305   -0.509351
     35          6           0       17.082162    0.259359   -0.108242
     36          6           0       15.682600    0.430852    0.060101
     37          6           0       18.596091   -1.720142   -0.824909
     38          6           0       17.780098    1.500687    0.210645
     39          8           0       18.967765    1.765864    0.129343
     40          6           0       16.646892    2.525640    0.756419
     41          6           0       16.916771    3.717914   -0.164636
     42          8           0       16.666360    3.829310   -1.378312
     43          8           0       17.547525    4.652883    0.524406
     44          6           0       17.681145    6.046951   -0.064356
     45          1           0        9.666919    1.816193    1.387717
     46          1           0       10.057152   -4.346574   -0.897909
     47          1           0       16.371192   -3.637121   -1.314893
     48          1           0       14.200503    3.525101    2.537962
     49          1           0       11.316930    3.758916    1.609411
     50          1           0       10.929140    3.502492    3.951874
     51          1           0       12.636221    2.947396    4.173389
     52          1           0       11.325392    1.938646    3.887954
     53          1           0       12.588400    4.988275    0.804920
     54          1           0       14.017364    4.459020   -0.156120
     55          1           0       15.075665    5.802383    2.127264
     56          1           0       13.383272    6.143927    2.214871
     57          1           0        7.753956    1.063565    1.297571
     58          1           0        7.020864   -0.458998    1.770827
     59          1           0        6.685850    0.249467    0.247739
     60          1           0        5.891321   -1.543037   -1.012120
     61          1           0        6.071976   -2.236206    0.679978
     62          1           0        5.532187   -3.317261   -0.570417
     63          1           0       11.963340   -5.673738   -1.735670
     64          1           0       14.855640   -5.412587   -0.538847
     65          1           0       11.544806   -6.933853    0.090129
     66          1           0       12.036264   -5.673430    1.238951
     67          1           0       13.268235   -6.606002    0.478286
     68          1           0       14.426639   -6.491113   -2.853653
     69          1           0       15.613369   -5.286954   -2.815380
     70          1           0       13.258596   -3.740626   -3.481980
     71          1           0       13.444246   -5.143840   -4.511791
     72          1           0       14.694835   -3.829229   -4.298235
     73          1           0       19.484615   -1.108723   -0.666161
     74          1           0       18.512771   -1.999876   -1.875028
     75          1           0       18.645324   -2.637304   -0.236261
     76          1           0       16.874566    2.902014    1.753703
     77          1           0       17.925877    6.697837    0.775311
     78          1           0       16.743119    6.429914   -0.465136
     79          1           0       18.405862    6.108149   -0.877064
     80         12           0      -13.760012   -0.330242    0.212526
     81          6           0      -13.221960    2.944016   -0.817137
     82          6           0      -12.351516    0.507361    3.227108
     83          6           0      -14.045255   -3.637068    1.160382
     84          6           0      -14.651091   -1.252678   -3.028719
     85          7           0      -12.983830    1.545006    1.110415
     86          6           0      -12.956752    2.775130    0.569773
     87          6           0      -12.543865    3.903617    1.543256
     88          6           0      -12.032741    3.056839    2.786472
     89          6           0      -12.435229    1.564321    2.360237
     90          6           0      -10.494460    3.307075    2.978936
     91          6           0      -13.863858    4.788054    1.828979
     92          6           0      -13.741507    6.320510    1.581575
     93          1           0      -12.263459    6.854405    1.590107
     94          7           0      -13.221718   -1.467130    1.896086
     95          6           0      -12.720849   -0.891512    3.082043
     96          6           0      -12.729621   -1.895410    4.124653
     97          6           0      -13.159461   -3.097548    3.548613
     98          6           0      -13.585482   -2.762678    2.139379
     99          6           0      -12.034200   -1.650172    5.471288
    100          6           0      -13.242557   -4.498797    4.210044
    101          8           0      -13.640694   -5.535141    3.646054
    102          6           0      -12.879627   -4.620452    5.700049
    103          7           0      -14.205760   -2.167081   -0.856263
    104          6           0      -14.309339   -3.411303   -0.162861
    105          6           0      -14.536166   -4.564917   -1.162132
    106          6           0      -15.009215   -3.744374   -2.451284
    107          6           0      -14.641357   -2.284047   -2.079081
    108          6           0      -13.268483   -5.395732   -1.273751
    109          6           0      -16.572319   -3.882362   -2.687328
    110          6           0      -17.677935   -3.597939   -1.614339
    111          7           0      -13.843884    0.577245   -1.575914
    112          6           0      -14.206767    0.094912   -2.837183
    113          6           0      -14.149399    1.165305   -3.779046
    114          6           0      -13.818623    2.292502   -3.048785
    115          6           0      -13.534335    1.887792   -1.721106
    116          6           0      -14.348219    1.083844   -5.278780
    117          6           0      -13.602503    3.681519   -3.146517
    118          8           0      -13.590708    4.339940   -4.137390
    119          6           0      -13.090260    4.133713   -1.716630
    120          6           0      -11.658074    4.552515   -1.902737
    121          8           0      -10.705886    3.894405   -1.538976
    122          8           0      -11.663994    5.721593   -2.554075
    123          6           0      -10.402340    6.018408   -3.187127
    124          1           0      -11.980181    0.781472    4.216526
    125          1           0      -13.900965   -4.692298    1.398699
    126          1           0      -14.916883   -1.527806   -4.052027
    127          1           0      -11.782448    4.585751    1.165538
    128          1           0      -12.547330    3.264297    3.724976
    129          1           0       -9.903453    2.415254    3.188771
    130          1           0      -10.544705    3.979029    3.835237
    131          1           0      -10.164064    3.896212    2.123781
    132          1           0      -14.212506    4.528399    2.828321
    133          1           0      -14.641864    4.405761    1.167722
    134          1           0      -14.319292    6.709694    2.419206
    135          1           0      -14.197417    6.675869    0.657946
    136          1           0      -11.296492   -2.443018    5.597464
    137          1           0      -12.756451   -1.779046    6.278539
    138          1           0      -11.591629   -0.654629    5.484161
    139          1           0      -11.795385   -4.522450    5.768084
    140          1           0      -13.096425   -5.654064    5.969245
    141          1           0      -13.554747   -4.002198    6.291213
    142          1           0      -15.408198   -5.093828   -0.776434
    143          1           0      -14.562781   -4.174585   -3.347058
    144          1           0      -12.667507   -5.384418   -0.364318
    145          1           0      -12.645890   -5.036885   -2.093011
    146          1           0      -13.508313   -6.448538   -1.421256
    147          1           0      -16.755791   -4.873706   -3.101786
    148          1           0      -16.766005   -3.105705   -3.427230
    149          1           0      -17.853013   -4.516520   -1.054109
    150          1           0      -18.566075   -3.321180   -2.183624
    151          1           0      -17.513980   -2.731398   -0.972975
    152          1           0      -15.338370    0.713111   -5.544453
    153          1           0      -13.595195    0.364547   -5.600110
    154          1           0      -14.359816    2.038336   -5.806871
    155          1           0      -13.586906    4.980825   -1.243165
    156          1           0      -10.493104    6.608150   -4.099002
    157          1           0       -9.641859    5.251953   -3.335843
    158          1           0       -9.756571    6.659484   -2.586649
 ---------------------------------------------------------------------

 SCF Done:  E(RPBE1PBE) =  -4067.36499650     A.U. after   16 cycles

 Excitation energies and oscillator strengths:

 Excited State   1:      Singlet-A      1.8203 eV  681.12 nm  f=0.3619  <S**2>=0.000
     309 -> 315        0.17690
     312 -> 313        0.69222
     312 <- 313       -0.10907
 This state for optimization and/or second-order correction.
 Total Energy, E(TD-HF/TD-DFT) =  -4067.29810152
 Copying the excited state density for this state as the 1-particle RhoCI density.

 Excited State   2:      Singlet-A      1.8555 eV  668.18 nm  f=0.3744  <S**2>=0.000
     310 -> 316       -0.16973
     311 -> 314        0.69307
     311 <- 314       -0.10774

 Excited State   3:      Singlet-A      1.9043 eV  651.09 nm  f=0.0000  <S**2>=0.000
     311 -> 313        0.70710

 Excited State   4:      Singlet-A      1.9303 eV  642.32 nm  f=0.0000  <S**2>=0.000
     312 -> 314        0.70710

 Excited State   5:      Singlet-A      2.2321 eV  555.47 nm  f=0.0885  <S**2>=0.000
     309 -> 313        0.63913
     312 -> 315       -0.29210

 The electronic state is 1-A.
 Alpha  occ. eigenvalues --  -46.91695 -46.91509 -19.26735 -19.25567 -19.20220
 Alpha  occ. eigenvalues --  -19.19627 -19.19614 -19.19383 -19.19032 -19.18259
 Alpha  occ. eigenvalues --  -14.41944 -14.41747 -14.41097 -14.40970 -14.39712
 Alpha  occ. eigenvalues --  -14.39399 -14.39353 -14.38682 -10.36251 -10.35501
 Alpha  occ. eigenvalues --  -10.32658 -10.32592 -10.32475 -10.31777 -10.29416
 Alpha  occ. eigenvalues --  -10.29226 -10.29216 -10.29072 -10.28968 -10.28803
 Alpha  occ. eigenvalues --  -10.28663 -10.28543 -10.28272 -10.28269 -10.28243
 Alpha  occ. eigenvalues --  -10.27816 -10.27771 -10.27709 -10.27660 -10.27658
 Alpha  occ. eigenvalues --  -10.27599 -10.27415 -10.26652 -10.26537 -10.26412
 Alpha  occ. eigenvalues --  -10.26400 -10.26377 -10.26312 -10.26282 -10.26224
 Alpha  occ. eigenvalues --  -10.26205 -10.26182 -10.25970 -10.25929 -10.25827
 Alpha  occ. eigenvalues --  -10.25693 -10.25653 -10.25621 -10.25569 -10.25369
 Alpha  occ. eigenvalues --  -10.25295 -10.25151 -10.24949 -10.24901 -10.24761
 Alpha  occ. eigenvalues --  -10.24752 -10.24472 -10.24318 -10.24302 -10.24244
 Alpha  occ. eigenvalues --  -10.24195 -10.24178 -10.23684 -10.23645 -10.23552
 Alpha  occ. eigenvalues --  -10.23541 -10.23454 -10.23388 -10.23231 -10.23197
 Alpha  occ. eigenvalues --  -10.23034 -10.22954 -10.22930 -10.22810 -10.22800
 Alpha  occ. eigenvalues --  -10.22173  -3.13962  -3.13689  -1.86788  -1.86531
 Alpha  occ. eigenvalues --   -1.86354  -1.86191  -1.86041  -1.85935  -1.12880
 Alpha  occ. eigenvalues --   -1.10724  -1.06616  -1.06118  -1.04809  -1.03822
 Alpha  occ. eigenvalues --   -1.03238  -1.00087  -0.98719  -0.98368  -0.97926
 Alpha  occ. eigenvalues --   -0.97721  -0.97323  -0.96844  -0.96358  -0.96023
 Alpha  occ. eigenvalues --   -0.87049  -0.85199  -0.83471  -0.83000  -0.82969
 Alpha  occ. eigenvalues --   -0.82386  -0.82267  -0.82060  -0.81690  -0.81356
 Alpha  occ. eigenvalues --   -0.81217  -0.80845  -0.80736  -0.80404  -0.78371
 Alpha  occ. eigenvalues --   -0.78223  -0.77841  -0.77662  -0.76620  -0.76569
 Alpha  occ. eigenvalues --   -0.75629  -0.75519  -0.75313  -0.75223  -0.74476
 Alpha  occ. eigenvalues --   -0.74231  -0.72402  -0.72091  -0.71592  -0.71410
 Alpha  occ. eigenvalues --   -0.71231  -0.71049  -0.70260  -0.70134  -0.69463
 Alpha  occ. eigenvalues --   -0.69382  -0.67381  -0.67036  -0.66067  -0.65675
 Alpha  occ. eigenvalues --   -0.64387  -0.63260  -0.63146  -0.63103  -0.62353
 Alpha  occ. eigenvalues --   -0.61949  -0.60900  -0.60635  -0.60299  -0.59871
 Alpha  occ. eigenvalues --   -0.59602  -0.59118  -0.59105  -0.59055  -0.58633
 Alpha  occ. eigenvalues --   -0.58419  -0.56946  -0.56383  -0.54478  -0.54089
 Alpha  occ. eigenvalues --   -0.53958  -0.53903  -0.53574  -0.53464  -0.52786
 Alpha  occ. eigenvalues --   -0.52626  -0.52372  -0.51944  -0.51860  -0.50725
 Alpha  occ. eigenvalues --   -0.50628  -0.50335  -0.50256  -0.49979  -0.49612
 Alpha  occ. eigenvalues --   -0.49544  -0.49133  -0.49065  -0.48526  -0.48489
 Alpha  occ. eigenvalues --   -0.47837  -0.47795  -0.47792  -0.47713  -0.47514
 Alpha  occ. eigenvalues --   -0.47244  -0.47047  -0.46940  -0.46837  -0.46616
 Alpha  occ. eigenvalues --   -0.46544  -0.46411  -0.46240  -0.46182  -0.45602
 Alpha  occ. eigenvalues --   -0.45555  -0.45444  -0.45119  -0.44697  -0.44464
 Alpha  occ. eigenvalues --   -0.44441  -0.44365  -0.44184  -0.44089  -0.43861
 Alpha  occ. eigenvalues --   -0.43855  -0.43824  -0.43561  -0.43541  -0.43312
 Alpha  occ. eigenvalues --   -0.43201  -0.43053  -0.42999  -0.42722  -0.42632
 Alpha  occ. eigenvalues --   -0.42482  -0.42224  -0.42208  -0.42133  -0.41721
 Alpha  occ. eigenvalues --   -0.41482  -0.41381  -0.41331  -0.41062  -0.41045
 Alpha  occ. eigenvalues --   -0.40967  -0.40899  -0.40550  -0.40448  -0.40295
 Alpha  occ. eigenvalues --   -0.40279  -0.39887  -0.39776  -0.39697  -0.39684
 Alpha  occ. eigenvalues --   -0.39533  -0.39267  -0.39205  -0.38982  -0.38981
 Alpha  occ. eigenvalues --   -0.38800  -0.38499  -0.38413  -0.38400  -0.38226
 Alpha  occ. eigenvalues --   -0.38186  -0.37922  -0.37914  -0.37857  -0.37790
 Alpha  occ. eigenvalues --   -0.37753  -0.37514  -0.37284  -0.37201  -0.36955
 Alpha  occ. eigenvalues --   -0.36900  -0.36714  -0.36663  -0.36249  -0.36217
 Alpha  occ. eigenvalues --   -0.35727  -0.35716  -0.35682  -0.35247  -0.35207
 Alpha  occ. eigenvalues --   -0.35124  -0.34527  -0.34520  -0.34127  -0.34012
 Alpha  occ. eigenvalues --   -0.33546  -0.33040  -0.32708  -0.32517  -0.32504
 Alpha  occ. eigenvalues --   -0.32110  -0.31971  -0.31708  -0.31572  -0.31236
 Alpha  occ. eigenvalues --   -0.31065  -0.30647  -0.29641  -0.29219  -0.29095
 Alpha  occ. eigenvalues --   -0.28656  -0.28291  -0.27616  -0.27165  -0.26900
 Alpha  occ. eigenvalues --   -0.26171  -0.26062  -0.25829  -0.25662  -0.25614
 Alpha  occ. eigenvalues --   -0.25501  -0.25498  -0.25195  -0.21025  -0.20712
 Alpha  occ. eigenvalues --   -0.18639  -0.18622
 Alpha virt. eigenvalues --   -0.11141  -0.11034  -0.05480  -0.04950  -0.03662
 Alpha virt. eigenvalues --   -0.03577  -0.02038  -0.01943  -0.00361   0.00512
 Alpha virt. eigenvalues --    0.00619   0.00876   0.01371   0.01580   0.01751

 Mulliken charges:
               1
     1  Mg  12.000207
     2  C    5.983348
     3  C    6.014692
     4  C    6.020793
     5  C    5.999203
     6  N    6.990906
     7  C    6.025750
     8  C    5.995369
     9  C    6.005709
    10  C    5.970201
    11  C    6.001904
    12  C    5.994957
    13  C    5.998374
    14  H    1.000165
    15  N    7.004588
    16  C    5.958418
    17  C    5.984249
    18  C    5.983257
    19  C    5.965739
    20  C    6.005254
    21  C    5.987696
    22  O    7.974532
    23  C    6.003079
    24  N    7.011190
    25  C    5.962870
    26  C    6.006206
    27  C    5.996093
    28  C    6.031083
    29  C    6.004456
    30  C    5.995130
    31  C    5.994484
    32  N    6.997812
    33  C    6.032364
    34  C    6.028579
    35  C    6.002348
    36  C    6.029567
    37  C    5.999603
    38  C    6.015798
    39  O    8.026728
    40  C    6.002003
    41  C    6.003419
    42  O    8.005195
    43  O    8.000173
    44  C    5.998122
    45  H    0.989885
    46  H    0.993778
    47  H    1.011753
    48  H    0.996417
    49  H    1.001308
    50  H    0.997479
    51  H    0.988297
    52  H    1.002314
    53  H    1.008551
    54  H    0.996520
    55  H    0.996766
    56  H    1.005251
    57  H    0.983969
    58  H    0.981438
    59  H    0.982639
    60  H    0.992737
    61  H    0.995217
    62  H    0.986895
    63  H    1.002758
    64  H    0.997863
    65  H    1.000525
    66  H    1.001498
    67  H    0.987850
    68  H    1.009514
    69  H    0.996079
    70  H    1.010259
    71  H    1.007816
    72  H    0.996193
    73  H    1.013467
    74  H    1.017024
    75  H    1.017015
    76  H    1.008447
    77  H    1.004300
    78  H    1.005033
    79  H    1.001529
    80  Mg  11.999975
    81  C    6.000439
    82  C    5.999887
    83  C    5.999356
    84  C    5.999823
    85  N    7.000185
    86  C    5.999380
    87  C    6.000257
    88  C    5.999753
    89  C    6.000671
    90  C    5.999976
    91  C    6.000099
    92  C    6.000019
    93  H    1.000130
    94  N    6.999938
    95  C    6.001020
    96  C    6.000301
    97  C    6.000337
    98  C    6.000840
    99  C    5.999892
   100  C    6.000295
   101  O    8.000510
   102  C    5.999875
   103  N    6.999778
   104  C    6.000785
   105  C    5.999794
   106  C    6.000324
   107  C    5.999511
   108  C    5.999903
   109  C    6.000158
   110  C    5.999981
   111  N    7.000074
   112  C    5.999491
   113  C    5.999302
   114  C    6.000015
   115  C    5.999459
   116  C    6.000060
   117  C    5.999563
   118  O    7.999318
   119  C    5.999942
   120  C    5.999982
   121  O    8.000102
   122  O    7.999877
   123  C    5.999959
   124  H    1.000289
   125  H    1.000070
   126  H    0.999623
   127  H    1.000118
   128  H    0.999877
   129  H    1.000311
   130  H    1.000036
   131  H    1.000434
   132  H    0.999667
   133  H    0.999944
   134  H    0.999737
   135  H    0.999945
   136  H    1.000579
   137  H    1.000167
   138  H    1.000480
   139  H    1.000425
   140  H    1.000170
   141  H    0.999973
   142  H    0.999801
   143  H    0.999916
   144  H    1.000037
   145  H    1.000402
   146  H    0.999965
   147  H    0.999679
   148  H    1.000034
   149  H    0.999744
   150  H    0.999811
   151  H    0.999981
   152  H    0.999398
   153  H    0.999786
   154  H    0.999622
   155  H    0.999618
   156  H    0.999778
   157  H    1.000269
   158  H    0.999975
 Sum of Mulliken charges = 624.00000

 Dipole moment (field-independent basis, Debye):
    X=             10.1881    Y=              0.5637    Z=             -0.8643  Tot=             10.2402
 Quadrupole moment (field-independent basis, Debye-Ang):
   XX=            258.8503   YY=              1.5163   ZZ=             -0.0978
   XY=              1.0167   XZ=            -18.1117   YZ=              0.7185

 Normal termination of Gaussian 16 at Thu Oct 14 15:39:42 2021.
