 Gaussian 16, Revision A.03,
 Gaussian 16:  ES64L-G16RevA.03 25-Dec-2016

 --------------------------------------------------------
 #p PBE1PBE/Def2SVP td=(nstates=5) density=(transition=1)
 --------------------------------------------------------

 --------------------------------
 TDDFT excited states in gaussian
 --------------------------------
 Symbolic Z-matrix:
 Charge =  0 Multiplicity = 1

                         Standard orientation:
 ---------------------------------------------------------------------
 Center     Atomic      Atomic             Coordinates (Angstroms)
 Number     Number       Type             X           Y           Z
 ---------------------------------------------------------------------
      1         12           0      -28.953686    0.298686   -0.110330
      2          6           0      -25.840117   -1.149080    0.098317
      3          6           0      -30.498084   -2.756043   -0.006093
      4          6           0      -32.115025    1.807689   -0.126346
      5          6           0      -27.591465    3.384722    0.629229
      6          7           0      -28.172439   -1.691532    0.250185
      7          6           0      -26.850516   -2.128810    0.130202
      8          6           0      -26.744699   -3.645859    0.305250
      9          6           0      -28.229276   -4.030637    0.081660
     10          6           0      -29.076142   -2.746438    0.194698
     11          6           0      -28.453376   -4.862375   -1.200166
     12          6           0      -26.198113   -4.036794    1.692612
     13          6           0      -25.154297   -5.205607    1.738060
     14          1           0      -25.162706   -6.041173    2.958177
     15          7           0      -30.963356   -0.382259   -0.125776
     16          6           0      -31.390283   -1.665010   -0.171673
     17          6           0      -32.788979   -1.778599   -0.458301
     18          6           0      -33.269367   -0.470739   -0.635910
     19          6           0      -32.075080    0.415986   -0.316027
     20          6           0      -33.519186   -3.103035   -0.690020
     21          6           0      -34.734927   -0.040493   -1.006412
     22          8           0      -35.618121   -0.932546   -1.083317
     23          6           0      -35.151814    1.448584   -1.373131
     24          7           0      -29.770205    2.269000    0.504444
     25          6           0      -31.047791    2.648991    0.259311
     26          6           0      -31.253822    4.136266    0.390116
     27          6           0      -29.831711    4.662645    0.680470
     28          6           0      -28.994843    3.386169    0.563639
     29          6           0      -31.976941    4.805497   -0.825478
     30          6           0      -29.726012    5.474788    2.058120
     31          6           0      -29.614632    6.995353    1.897474
     32          7           0      -27.104149    1.027024    0.232346
     33          6           0      -26.641291    2.334484    0.498567
     34          6           0      -25.175287    2.356392    0.409715
     35          6           0      -24.853434    1.025927    0.180335
     36          6           0      -26.044564    0.282236    0.212236
     37          6           0      -24.222359    3.488278    0.556010
     38          6           0      -23.722710    0.106491   -0.010944
     39          8           0      -22.523146    0.311081   -0.259618
     40          6           0      -24.323655   -1.352250   -0.117864
     41          6           0      -24.011489   -1.983618   -1.467987
     42          8           0      -24.108490   -1.463938   -2.584190
     43          8           0      -23.538795   -3.219172   -1.138665
     44          6           0      -22.985021   -4.012309   -2.223288
     45          1           0      -31.002067   -3.724329    0.020315
     46          1           0      -33.028231    2.401760   -0.201838
     47          1           0      -27.095840    4.331644    0.852401
     48          1           0      -26.064965   -4.053211   -0.443904
     49          1           0      -28.449006   -4.676813    0.931472
     50          1           0      -27.616660   -5.402401   -1.643261
     51          1           0      -28.740545   -4.142602   -1.966543
     52          1           0      -29.236623   -5.609603   -1.074758
     53          1           0      -26.986758   -4.235314    2.417864
     54          1           0      -25.796203   -3.110827    2.104601
     55          1           0      -24.153903   -4.790410    1.616201
     56          1           0      -25.379520   -5.899456    0.926948
     57          1           0      -33.964097   -3.020858   -1.681428
     58          1           0      -34.139837   -3.336619    0.175128
     59          1           0      -32.720019   -3.838963   -0.778129
     60          1           0      -35.346251    1.948278   -0.424856
     61          1           0      -36.074317    1.370945   -1.948037
     62          1           0      -34.398574    1.811627   -2.072890
     63          1           0      -31.893911    4.310405    1.255118
     64          1           0      -29.363136    5.253018   -0.106582
     65          1           0      -31.476328    5.722658   -1.134587
     66          1           0      -33.016386    5.052997   -0.610845
     67          1           0      -32.049827    4.082332   -1.636723
     68          1           0      -28.834528    5.213678    2.628219
     69          1           0      -30.552878    5.204348    2.714730
     70          1           0      -30.197456    7.490107    2.674615
     71          1           0      -29.998396    7.290892    0.921248
     72          1           0      -28.593754    7.372613    1.954432
     73          1           0      -24.812144    4.400498    0.646283
     74          1           0      -23.435201    3.411173   -0.194278
     75          1           0      -23.775596    3.374466    1.544291
     76          1           0      -23.984587   -2.001763    0.689585
     77          1           0      -23.589144   -4.002752   -3.131395
     78          1           0      -22.765267   -5.058533   -2.010712
     79          1           0      -22.002387   -3.625855   -2.495024
     80         12           0       28.473904    0.614937   -0.535067
     81          6           0       27.956243   -2.623106    0.609550
     82          6           0       25.776887    1.686418    1.498792
     83          6           0       29.608104    3.754713   -0.674882
     84          6           0       31.509854   -0.501707   -1.936775
     85          7           0       27.218986   -0.355968    1.206948
     86          6           0       27.061858   -1.720696    1.241040
     87          6           0       25.954124   -2.122829    2.163422
     88          6           0       25.099824   -0.775149    2.242876
     89          6           0       26.074661    0.299607    1.644232
     90          6           0       23.678056   -0.795659    1.484701
     91          6           0       26.548602   -2.734662    3.534442
     92          6           0       25.671040   -3.657303    4.216228
     93          1           0       25.382268   -3.268067    5.681565
     94          7           0       27.721423    2.479353    0.123433
     95          6           0       26.585567    2.711536    0.948625
     96          6           0       26.439868    4.149741    1.097044
     97          6           0       27.528029    4.791495    0.457167
     98          6           0       28.311737    3.664084   -0.150666
     99          6           0       25.388689    4.749440    1.954654
    100          6           0       27.787599    6.355767    0.488989
    101          8           0       26.969324    7.042782    1.098438
    102          6           0       28.795386    7.027340   -0.437525
    103          7           0       30.334163    1.431504   -1.120968
    104          6           0       30.464853    2.780828   -1.185022
    105          6           0       31.970207    3.254593   -1.675824
    106          6           0       32.500889    1.871472   -2.289785
    107          6           0       31.423074    0.848611   -1.809949
    108          6           0       32.011402    4.396663   -2.760538
    109          6           0       33.896546    1.489439   -1.793176
    110          6           0       35.061742    1.274894   -2.788728
    111          7           0       29.375490   -1.207609   -0.894661
    112          6           0       30.565634   -1.496502   -1.496733
    113          6           0       30.698956   -2.922415   -1.614383
    114          6           0       29.672617   -3.396442   -0.713380
    115          6           0       28.938784   -2.277196   -0.284767
    116          6           0       31.837890   -3.663759   -2.252731
    117          6           0       29.172249   -4.584748   -0.054299
    118          8           0       29.415284   -5.735258   -0.258382
    119          6           0       27.940947   -4.166530    0.840276
    120          6           0       26.583746   -4.744298    0.381994
    121          8           0       26.158784   -4.688558   -0.751966
    122          8           0       25.974070   -5.426457    1.455080
    123          6           0       24.788309   -6.170937    1.155607
    124          1           0       24.894030    1.942261    2.087010
    125          1           0       30.130266    4.704316   -0.541786
    126          1           0       32.451412   -0.803024   -2.399520
    127          1           0       25.227012   -2.775835    1.679620
    128          1           0       24.926687   -0.548887    3.295602
    129          1           0       22.939405   -0.599379    2.261751
    130          1           0       23.479831   -1.740831    0.980219
    131          1           0       23.700090    0.032538    0.775798
    132          1           0       26.688153   -1.853599    4.160600
    133          1           0       27.519516   -3.096201    3.194666
    134          1           0       26.167513   -4.626253    4.179951
    135          1           0       24.699868   -3.684075    3.722130
    136          1           0       24.626282    4.019548    2.226278
    137          1           0       24.841488    5.508917    1.395646
    138          1           0       25.808483    5.137584    2.882970
    139          1           0       29.831252    6.757016   -0.230158
    140          1           0       28.653967    8.104778   -0.346384
    141          1           0       28.526360    6.754752   -1.458089
    142          1           0       32.477919    3.474839   -0.737171
    143          1           0       32.432499    1.794302   -3.375116
    144          1           0       32.444490    5.298238   -2.328276
    145          1           0       30.996527    4.617908   -3.093128
    146          1           0       32.627906    4.024959   -3.579693
    147          1           0       33.862594    0.634674   -1.118039
    148          1           0       34.323849    2.176499   -1.062969
    149          1           0       35.431956    0.257672   -2.919269
    150          1           0       35.897510    1.830692   -2.362978
    151          1           0       34.804229    1.639989   -3.783686
    152          1           0       31.487922   -4.678228   -2.445313
    153          1           0       32.636443   -3.958687   -1.572700
    154          1           0       32.291810   -3.164479   -3.108348
    155          1           0       28.189944   -4.598413    1.810000
    156          1           0       24.295642   -6.144577    2.128098
    157          1           0       24.998968   -7.228073    0.994734
    158          1           0       24.263673   -5.741425    0.303095
 ---------------------------------------------------------------------

 SCF Done:  E(RPBE1PBE) =  -4067.36439759     A.U. after   16 cycles

 Excitation energies and oscillator strengths:

 Excited State   1:      Singlet-A      1.8323 eV  676.65 nm  f=0.3792  <S**2>=0.000
     309 -> 316       -0.16903
     311 -> 313        0.69512
     311 <- 313       -0.11103
 This state for optimization and/or second-order correction.
 Total Energy, E(TD-HF/TD-DFT) =  -4067.29706074
 Copying the excited state density for this state as the 1-particle RhoCI density.

 Excited State   2:      Singlet-A      1.8385 eV  674.36 nm  f=0.3548  <S**2>=0.000
     310 -> 315        0.16796
     312 -> 314        0.69245
     312 <- 314       -0.10464

 Excited State   3:      Singlet-A      1.9683 eV  629.90 nm  f=0.0000  <S**2>=0.000
     312 -> 313        0.70711

 Excited State   4:      Singlet-A      2.0232 eV  612.81 nm  f=0.0000  <S**2>=0.000
     311 -> 314        0.70711

 Excited State   5:      Singlet-A      2.2418 eV  553.07 nm  f=0.0973  <S**2>=0.000
     310 -> 314        0.64061
     312 -> 315       -0.28302

 The electronic state is 1-A.
 Alpha  occ. eigenvalues --  -46.93182 -46.92583 -19.27082 -19.25815 -19.20964
 Alpha  occ. eigenvalues --  -19.20583 -19.19732 -19.19702 -19.18915 -19.18625
 Alpha  occ. eigenvalues --  -14.42002 -14.41701 -14.41646 -14.41644 -14.39739
 Alpha  occ. eigenvalues --  -14.39725 -14.38890 -14.38826 -10.37141 -10.37055
 Alpha  occ. eigenvalues --  -10.33702 -10.33393 -10.32120 -10.31299 -10.29725
 Alpha  occ. eigenvalues --  -10.29389 -10.29309 -10.29179 -10.29018 -10.29013
 Alpha  occ. eigenvalues --  -10.28731 -10.28696 -10.28537 -10.28480 -10.28457
 Alpha  occ. eigenvalues --  -10.28410 -10.28400 -10.27808 -10.27724 -10.27655
 Alpha  occ. eigenvalues --  -10.27093 -10.26550 -10.26381 -10.26355 -10.26247
 Alpha  occ. eigenvalues --  -10.26233 -10.26028 -10.25972 -10.25963 -10.25958
 Alpha  occ. eigenvalues --  -10.25935 -10.25867 -10.25859 -10.25814 -10.25757
 Alpha  occ. eigenvalues --  -10.25728 -10.25710 -10.25678 -10.25629 -10.25589
 Alpha  occ. eigenvalues --  -10.25483 -10.25455 -10.25334 -10.25256 -10.24815
 Alpha  occ. eigenvalues --  -10.24714 -10.24640 -10.24620 -10.24294 -10.24224
 Alpha  occ. eigenvalues --  -10.24223 -10.24204 -10.24191 -10.24129 -10.24124
 Alpha  occ. eigenvalues --  -10.24118 -10.23904 -10.23591 -10.23528 -10.23462
 Alpha  occ. eigenvalues --  -10.23339 -10.23332 -10.23241 -10.22694 -10.22612
 Alpha  occ. eigenvalues --  -10.22611  -3.15182  -3.14694  -1.87969  -1.87611
 Alpha  occ. eigenvalues --   -1.87499  -1.87371  -1.87055  -1.86947  -1.11691
 Alpha  occ. eigenvalues --   -1.10856  -1.05711  -1.04857  -1.03588  -1.03261
 Alpha  occ. eigenvalues --   -1.03138  -1.02675  -0.99810  -0.99429  -0.98739
 Alpha  occ. eigenvalues --   -0.98022  -0.97393  -0.96936  -0.96747  -0.96171
 Alpha  occ. eigenvalues --   -0.86683  -0.85880  -0.83518  -0.83181  -0.83105
 Alpha  occ. eigenvalues --   -0.82975  -0.82601  -0.82419  -0.81777  -0.81259
 Alpha  occ. eigenvalues --   -0.81176  -0.80799  -0.80586  -0.80076  -0.78580
 Alpha  occ. eigenvalues --   -0.78304  -0.78226  -0.77668  -0.76903  -0.76795
 Alpha  occ. eigenvalues --   -0.76360  -0.75795  -0.75480  -0.75323  -0.74623
 Alpha  occ. eigenvalues --   -0.74530  -0.72336  -0.72217  -0.71731  -0.71573
 Alpha  occ. eigenvalues --   -0.71016  -0.70988  -0.70483  -0.70248  -0.69621
 Alpha  occ. eigenvalues --   -0.69267  -0.67212  -0.67145  -0.66154  -0.65776
 Alpha  occ. eigenvalues --   -0.63609  -0.63547  -0.63375  -0.62928  -0.62350
 Alpha  occ. eigenvalues --   -0.61854  -0.61578  -0.60831  -0.60578  -0.60309
 Alpha  occ. eigenvalues --   -0.59678  -0.59437  -0.59336  -0.59135  -0.58872
 Alpha  occ. eigenvalues --   -0.58695  -0.57419  -0.57341  -0.54500  -0.54222
 Alpha  occ. eigenvalues --   -0.54192  -0.54070  -0.53556  -0.53543  -0.53206
 Alpha  occ. eigenvalues --   -0.53061  -0.52623  -0.52351  -0.52035  -0.51774
 Alpha  occ. eigenvalues --   -0.50837  -0.50511  -0.50426  -0.49953  -0.49816
 Alpha  occ. eigenvalues --   -0.49583  -0.49562  -0.49256  -0.48606  -0.48415
 Alpha  occ. eigenvalues --   -0.47958  -0.47854  -0.47853  -0.47337  -0.47285
 Alpha  occ. eigenvalues --   -0.47132  -0.46981  -0.46947  -0.46607  -0.46585
 Alpha  occ. eigenvalues --   -0.46299  -0.46184  -0.46149  -0.45908  -0.45749
 Alpha  occ. eigenvalues --   -0.45652  -0.45562  -0.45478  -0.45466  -0.44768
 Alpha  occ. eigenvalues --   -0.44592  -0.44486  -0.44274  -0.44175  -0.44117
 Alpha  occ. eigenvalues --   -0.43975  -0.43893  -0.43829  -0.43686  -0.43414
 Alpha  occ. eigenvalues --   -0.43213  -0.43125  -0.42861  -0.42773  -0.42686
 Alpha  occ. eigenvalues --   -0.42525  -0.42515  -0.42248  -0.42120  -0.42054
 Alpha  occ. eigenvalues --   -0.41993  -0.41672  -0.41561  -0.41514  -0.41304
 Alpha  occ. eigenvalues --   -0.41160  -0.41136  -0.40867  -0.40704  -0.40614
 Alpha  occ. eigenvalues --   -0.40396  -0.40391  -0.40074  -0.39959  -0.39738
 Alpha  occ. eigenvalues --   -0.39554  -0.39543  -0.39336  -0.39197  -0.38830
 Alpha  occ. eigenvalues --   -0.38750  -0.38690  -0.38669  -0.38576  -0.38445
 Alpha  occ. eigenvalues --   -0.38300  -0.38222  -0.38182  -0.37915  -0.37725
 Alpha  occ. eigenvalues --   -0.37559  -0.37461  -0.37328  -0.37310  -0.37138
 Alpha  occ. eigenvalues --   -0.37045  -0.36995  -0.36767  -0.36508  -0.36375
 Alpha  occ. eigenvalues --   -0.36085  -0.35960  -0.35878  -0.35760  -0.35552
 Alpha  occ. eigenvalues --   -0.35336  -0.34775  -0.34677  -0.34249  -0.33659
 Alpha  occ. eigenvalues --   -0.33607  -0.33375  -0.33146  -0.33119  -0.32747
 Alpha  occ. eigenvalues --   -0.32385  -0.32075  -0.31927  -0.31635  -0.31476
 Alpha  occ. eigenvalues --   -0.31249  -0.30684  -0.30057  -0.29771  -0.29760
 Alpha  occ. eigenvalues --   -0.29406  -0.28876  -0.28674  -0.26963  -0.26889
 Alpha  occ. eigenvalues --   -0.26264  -0.26188  -0.25776  -0.25619  -0.25586
 Alpha  occ. eigenvalues --   -0.25406  -0.25095  -0.24962  -0.21199  -0.21092
 Alpha  occ. eigenvalues --   -0.18794  -0.18734
 Alpha virt. eigenvalues --   -0.11269  -0.11130  -0.05540  -0.05152  -0.04000
 Alpha virt. eigenvalues --   -0.03765  -0.02501  -0.02315  -0.01441  -0.01122
 Alpha virt. eigenvalues --   -0.00120   0.00229   0.00387   0.00686   0.01675

 Mulliken charges:
               1
     1  Mg  11.999984
     2  C    6.000733
     3  C    5.999823
     4  C    5.999359
     5  C    5.999995
     6  N    7.000384
     7  C    5.999062
     8  C    6.000225
     9  C    5.999797
    10  C    6.000809
    11  C    5.999928
    12  C    5.999990
    13  C    6.000045
    14  H    0.999907
    15  N    6.999800
    16  C    6.000880
    17  C    6.000450
    18  C    6.000411
    19  C    6.001006
    20  C    5.999955
    21  C    6.000316
    22  O    8.000528
    23  C    6.000096
    24  N    6.999800
    25  C    6.000896
    26  C    5.999704
    27  C    6.000198
    28  C    5.999156
    29  C    5.999990
    30  C    6.000095
    31  C    6.000019
    32  N    7.000076
    33  C    5.999072
    34  C    5.999311
    35  C    5.999910
    36  C    5.999275
    37  C    6.000009
    38  C    5.999573
    39  O    7.999150
    40  C    6.000046
    41  C    5.999827
    42  O    7.999957
    43  O    7.999945
    44  C    6.000018
    45  H    1.000326
    46  H    1.000138
    47  H    0.999589
    48  H    1.000052
    49  H    1.000143
    50  H    1.000345
    51  H    1.000005
    52  H    0.999990
    53  H    0.999776
    54  H    1.000181
    55  H    1.000103
    56  H    0.999906
    57  H    1.000373
    58  H    1.000442
    59  H    1.000449
    60  H    1.000245
    61  H    1.000292
    62  H    1.000212
    63  H    1.000007
    64  H    1.000044
    65  H    1.000240
    66  H    0.999946
    67  H    0.999919
    68  H    1.000074
    69  H    0.999704
    70  H    0.999862
    71  H    0.999860
    72  H    1.000041
    73  H    0.999577
    74  H    0.999601
    75  H    0.999503
    76  H    0.999788
    77  H    0.999888
    78  H    0.999884
    79  H    0.999979
    80  Mg  11.999737
    81  C    6.007344
    82  C    5.980806
    83  C    5.992212
    84  C    6.022183
    85  N    6.992800
    86  C    5.972239
    87  C    6.013317
    88  C    5.989521
    89  C    6.036732
    90  C    5.998767
    91  C    6.001417
    92  C    6.004329
    93  H    0.988535
    94  N    6.994853
    95  C    6.046742
    96  C    6.012497
    97  C    6.018559
    98  C    6.028688
    99  C    5.994384
   100  C    6.013121
   101  O    8.021212
   102  C    5.996567
   103  N    7.013768
   104  C    6.023688
   105  C    5.992223
   106  C    6.007275
   107  C    5.964465
   108  C    5.998457
   109  C    6.002294
   110  C    6.000775
   111  N    6.999279
   112  C    5.958925
   113  C    5.978653
   114  C    5.990772
   115  C    5.976706
   116  C    6.001184
   117  C    5.982327
   118  O    7.970841
   119  C    5.998432
   120  C    5.994662
   121  O    7.994595
   122  O    7.996875
   123  C    6.002720
   124  H    1.008614
   125  H    1.007858
   126  H    0.993422
   127  H    0.997274
   128  H    1.002817
   129  H    1.002483
   130  H    1.012688
   131  H    0.995418
   132  H    0.988699
   133  H    1.007917
   134  H    1.002808
   135  H    0.996104
   136  H    1.017518
   137  H    1.014955
   138  H    1.017318
   139  H    1.011521
   140  H    1.012480
   141  H    1.008139
   142  H    1.001747
   143  H    0.999429
   144  H    0.999621
   145  H    0.996305
   146  H    1.009841
   147  H    1.004795
   148  H    0.991896
   149  H    1.003372
   150  H    0.996151
   151  H    0.996936
   152  H    0.987871
   153  H    0.979094
   154  H    0.983091
   155  H    0.990418
   156  H    0.993985
   157  H    0.996888
   158  H    0.995048
 Sum of Mulliken charges = 624.00000

 Dipole moment (field-independent basis, Debye):
    X=             -3.6188    Y=              9.6530    Z=              1.6967  Tot=             10.4477
 Quadrupole moment (field-independent basis, Debye-Ang):
   XX=           -178.7761   YY=             10.3923   ZZ=             -2.1880
   XY=            278.5981   XZ=             51.6989   YZ=              1.2664

 Normal termination of Gaussian 16 at Fri Oct 15 15:40:22 2021.
