 Gaussian 16, Revision A.03,
 Gaussian 16:  ES64L-G16RevA.03 25-Dec-2016

 --------------------------------------------------------
 #p PBE1PBE/Def2SVP td=(nstates=5) density=(transition=1)
 --------------------------------------------------------

 --------------------------------
 TDDFT excited states in gaussian
 --------------------------------
 Symbolic Z-matrix:
 Charge =  0 Multiplicity = 1

                         Standard orientation:
 ---------------------------------------------------------------------
 Center     Atomic      Atomic             Coordinates (Angstroms)
 Number     Number       Type             X           Y           Z
 ---------------------------------------------------------------------
      1         12           0      -22.021625   -0.623167   -0.364637
      2          6           0      -21.675481    2.180858    1.697712
      3          6           0      -22.567937    1.318769   -2.953106
      4          6           0      -23.088121   -3.363128   -2.141995
      5          6           0      -21.944794   -2.690053    2.496760
      6          7           0      -22.000448    1.474644   -0.564814
      7          6           0      -21.781141    2.476299    0.355139
      8          6           0      -21.653846    3.839406   -0.312654
      9          6           0      -22.171182    3.530384   -1.754182
     10          6           0      -22.148489    2.042199   -1.800723
     11          6           0      -23.453015    4.169393   -2.243148
     12          6           0      -20.235752    4.487719   -0.218111
     13          6           0      -20.106588    5.871629   -0.863774
     14          1           0      -19.510294    6.963870    0.011977
     15          7           0      -22.825866   -0.973720   -2.365069
     16          6           0      -22.824884   -0.022843   -3.322435
     17          6           0      -23.193741   -0.615850   -4.577922
     18          6           0      -23.456491   -1.974113   -4.329715
     19          6           0      -23.133793   -2.145884   -2.887071
     20          6           0      -23.323731    0.159842   -5.871743
     21          6           0      -23.850570   -3.060454   -5.276037
     22          8           0      -24.209005   -4.227241   -4.963003
     23          6           0      -23.799017   -2.820510   -6.779947
     24          7           0      -22.471556   -2.677755    0.115761
     25          6           0      -22.954780   -3.569723   -0.780082
     26          6           0      -22.953225   -5.053840   -0.123789
     27          6           0      -22.135949   -4.824010    1.195765
     28          6           0      -22.100315   -3.331751    1.279822
     29          6           0      -24.445183   -5.527232    0.081855
     30          6           0      -20.648865   -5.304972    1.023215
     31          6           0      -19.839311   -4.810993   -0.165635
     32          7           0      -21.783285   -0.358161    1.749012
     33          6           0      -21.775634   -1.308984    2.732349
     34          6           0      -21.580766   -0.646082    3.937282
     35          6           0      -21.547089    0.752006    3.665748
     36          6           0      -21.676791    0.878664    2.307681
     37          6           0      -21.535218   -1.203604    5.316203
     38          6           0      -21.444932    2.125943    4.207823
     39          8           0      -21.372624    2.582493    5.343025
     40          6           0      -21.424383    3.107368    2.911326
     41          6           0      -22.338893    4.262118    3.116273
     42          8           0      -23.444627    4.208981    3.732282
     43          8           0      -21.696723    5.342595    2.693212
     44          6           0      -22.219176    6.587001    3.224409
     45          1           0      -22.643782    1.909678   -3.868404
     46          1           0      -23.390898   -4.251355   -2.701607
     47          1           0      -21.796825   -3.367814    3.338943
     48          1           0      -22.282072    4.489854    0.296206
     49          1           0      -21.461293    3.816829   -2.530899
     50          1           0      -23.792960    5.059001   -1.712962
     51          1           0      -24.243763    3.418755   -2.252157
     52          1           0      -23.353536    4.291403   -3.321902
     53          1           0      -19.493980    3.808185   -0.638551
     54          1           0      -19.957743    4.578846    0.831384
     55          1           0      -21.073110    6.371197   -0.927425
     56          1           0      -19.618610    5.811144   -1.837011
     57          1           0      -23.238304    1.241473   -5.768114
     58          1           0      -24.307152    0.138996   -6.340736
     59          1           0      -22.604118   -0.142314   -6.633259
     60          1           0      -24.586629   -2.110623   -7.031063
     61          1           0      -24.164649   -3.679031   -7.342833
     62          1           0      -22.802133   -2.566045   -7.141721
     63          1           0      -22.492245   -5.758340   -0.816107
     64          1           0      -22.750007   -5.259829    1.983835
     65          1           0      -25.172928   -4.917881   -0.454324
     66          1           0      -24.781249   -5.505573    1.118657
     67          1           0      -24.642589   -6.526023   -0.304778
     68          1           0      -20.826008   -6.379056    0.966917
     69          1           0      -20.009622   -5.127358    1.887512
     70          1           0      -20.493133   -4.319314   -0.886280
     71          1           0      -19.185144   -5.539367   -0.643608
     72          1           0      -19.129682   -4.130541    0.305083
     73          1           0      -20.806455   -2.002779    5.453877
     74          1           0      -22.520783   -1.640578    5.474255
     75          1           0      -21.382110   -0.435545    6.073628
     76          1           0      -20.402838    3.486314    2.894569
     77          1           0      -21.397691    7.239150    3.523627
     78          1           0      -22.845377    6.508118    4.112767
     79          1           0      -22.765782    7.054041    2.404494
     80         12           0       21.672863   -0.736865    0.185595
     81          6           0       23.182109    1.907392   -1.740249
     82          6           0       19.903248    1.544206    1.865169
     83          6           0       21.031037   -3.121961    2.450573
     84          6           0       23.950879   -2.912844   -1.357137
     85          7           0       21.613194    1.435809    0.097651
     86          6           0       22.145199    2.305772   -0.869316
     87          6           0       21.528366    3.750835   -0.743346
     88          6           0       20.545148    3.592333    0.455706
     89          6           0       20.642909    2.083193    0.804035
     90          6           0       20.778048    4.466076    1.662077
     91          6           0       20.865950    4.273538   -2.127983
     92          6           0       21.353139    5.646093   -2.608492
     93          1           0       20.204548    6.708644   -2.779022
     94          7           0       20.491951   -0.813681    1.854558
     95          6           0       19.842789    0.214681    2.409758
     96          6           0       19.128286   -0.190018    3.621699
     97          6           0       19.551988   -1.548038    3.829541
     98          6           0       20.415002   -1.895233    2.695632
     99          6           0       18.250172    0.708539    4.381792
    100          6           0       19.202098   -2.380494    5.102888
    101          8           0       19.523402   -3.551429    5.217849
    102          6           0       18.432192   -1.815124    6.253530
    103          7           0       22.375101   -2.665899    0.472197
    104          6           0       21.845199   -3.515969    1.436960
    105          6           0       22.438273   -4.956822    1.301359
    106          6           0       23.090001   -4.930732   -0.131435
    107          6           0       23.102315   -3.426192   -0.400826
    108          6           0       23.322236   -5.495828    2.472894
    109          6           0       22.278054   -5.693596   -1.213774
    110          6           0       23.025636   -6.501355   -2.244483
    111          7           0       23.286492   -0.567864   -1.215304
    112          6           0       24.101322   -1.535574   -1.730623
    113          6           0       24.953313   -0.915675   -2.837268
    114          6           0       24.588889    0.407299   -2.905561
    115          6           0       23.625360    0.589248   -1.854956
    116          6           0       25.889876   -1.729943   -3.700555
    117          6           0       24.803232    1.694822   -3.541831
    118          8           0       25.608429    1.887778   -4.476672
    119          6           0       23.924211    2.810249   -2.715351
    120          6           0       24.746224    3.830610   -1.955940
    121          8           0       25.622920    3.469794   -1.145959
    122          8           0       24.528159    5.134036   -2.404208
    123          6           0       25.589866    6.045248   -1.993076
    124          1           0       19.215829    2.217334    2.381300
    125          1           0       20.717425   -3.854348    3.196926
    126          1           0       24.541559   -3.671612   -1.875554
    127          1           0       22.404276    4.359118   -0.518650
    128          1           0       19.600020    3.994865    0.088698
    129          1           0       21.663292    5.095768    1.572008
    130          1           0       21.061751    3.698694    2.381515
    131          1           0       19.936570    5.121201    1.889531
    132          1           0       19.800885    4.271390   -1.897859
    133          1           0       20.983664    3.502731   -2.889164
    134          1           0       21.921758    5.471118   -3.521812
    135          1           0       22.038931    6.060781   -1.868586
    136          1           0       18.430517    0.882570    5.442128
    137          1           0       17.317795    0.153544    4.479054
    138          1           0       17.932195    1.609495    3.856673
    139          1           0       17.465703   -1.533116    5.834113
    140          1           0       18.937700   -0.892726    6.540807
    141          1           0       18.423732   -2.596013    7.012921
    142          1           0       21.554431   -5.593612    1.262872
    143          1           0       24.136928   -5.233173   -0.127029
    144          1           0       23.225460   -4.736854    3.248895
    145          1           0       24.351900   -5.716355    2.192812
    146          1           0       22.872004   -6.359995    2.962936
    147          1           0       21.792100   -4.828223   -1.664006
    148          1           0       21.485697   -6.333736   -0.825303
    149          1           0       22.466448   -7.431413   -2.347140
    150          1           0       24.034672   -6.769432   -1.929644
    151          1           0       22.877472   -5.983373   -3.192349
    152          1           0       25.843161   -2.758106   -3.342131
    153          1           0       26.907570   -1.391644   -3.507022
    154          1           0       25.636700   -1.586353   -4.750782
    155          1           0       23.226645    3.277780   -3.410279
    156          1           0       26.229097    6.408693   -2.796485
    157          1           0       26.241061    5.648428   -1.214113
    158          1           0       25.091711    6.909302   -1.554107
 ---------------------------------------------------------------------

 SCF Done:  E(RPBE1PBE) =  -4067.37508831     A.U. after   17 cycles

 Excitation energies and oscillator strengths:

 Excited State   1:      Singlet-A      1.7371 eV  713.75 nm  f=0.0000  <S**2>=0.000
     312 -> 313        0.70711
 This state for optimization and/or second-order correction.
 Total Energy, E(TD-HF/TD-DFT) =  -4067.31125191
 Copying the excited state density for this state as the 1-particle RhoCI density.

 Excited State   2:      Singlet-A      1.8516 eV  669.60 nm  f=0.2389  <S**2>=0.000
     309 -> 316       -0.15511
     311 -> 313       -0.25466
     312 -> 314        0.64807
     312 <- 314       -0.10632

 Excited State   3:      Singlet-A      1.8528 eV  669.17 nm  f=0.5440  <S**2>=0.000
     310 -> 315        0.14565
     311 -> 313        0.64804
     312 -> 314        0.25463
     311 <- 313       -0.10393

 Excited State   4:      Singlet-A      2.2053 eV  562.22 nm  f=0.0000  <S**2>=0.000
     311 -> 314        0.70711

 Excited State   5:      Singlet-A      2.2899 eV  541.44 nm  f=0.0905  <S**2>=0.000
     309 -> 314        0.64390
     312 -> 316        0.28554

 The electronic state is 1-A.
 Alpha  occ. eigenvalues --  -46.92804 -46.91834 -19.27381 -19.27261 -19.20992
 Alpha  occ. eigenvalues --  -19.20059 -19.19453 -19.19143 -19.18952 -19.18898
 Alpha  occ. eigenvalues --  -14.42381 -14.42091 -14.41419 -14.41258 -14.39293
 Alpha  occ. eigenvalues --  -14.39280 -14.39098 -14.37913 -10.37762 -10.36359
 Alpha  occ. eigenvalues --  -10.33576 -10.32700 -10.32248 -10.32217 -10.29640
 Alpha  occ. eigenvalues --  -10.29315 -10.29312 -10.28921 -10.28908 -10.28824
 Alpha  occ. eigenvalues --  -10.28736 -10.28281 -10.28215 -10.28071 -10.28034
 Alpha  occ. eigenvalues --  -10.28017 -10.27991 -10.27633 -10.27465 -10.27400
 Alpha  occ. eigenvalues --  -10.27101 -10.26810 -10.26746 -10.26497 -10.26422
 Alpha  occ. eigenvalues --  -10.26391 -10.26388 -10.26265 -10.26184 -10.26132
 Alpha  occ. eigenvalues --  -10.26101 -10.26032 -10.25865 -10.25796 -10.25710
 Alpha  occ. eigenvalues --  -10.25655 -10.25599 -10.25545 -10.25371 -10.25260
 Alpha  occ. eigenvalues --  -10.25232 -10.25138 -10.25025 -10.24898 -10.24729
 Alpha  occ. eigenvalues --  -10.24657 -10.24643 -10.24560 -10.24258 -10.24252
 Alpha  occ. eigenvalues --  -10.24172 -10.23919 -10.23780 -10.23555 -10.23550
 Alpha  occ. eigenvalues --  -10.23485 -10.23321 -10.23246 -10.23176 -10.23076
 Alpha  occ. eigenvalues --  -10.23011 -10.22961 -10.22903 -10.22867 -10.22572
 Alpha  occ. eigenvalues --  -10.22330  -3.14777  -3.14059  -1.87626  -1.87120
 Alpha  occ. eigenvalues --   -1.87013  -1.86882  -1.86418  -1.86310  -1.13004
 Alpha  occ. eigenvalues --   -1.11015  -1.04982  -1.03783  -1.03668  -1.02880
 Alpha  occ. eigenvalues --   -1.02662  -1.00827  -0.99936  -0.98978  -0.98597
 Alpha  occ. eigenvalues --   -0.98138  -0.98011  -0.97262  -0.97256  -0.96548
 Alpha  occ. eigenvalues --   -0.86901  -0.86335  -0.83872  -0.83601  -0.83459
 Alpha  occ. eigenvalues --   -0.83028  -0.82636  -0.82406  -0.82184  -0.81651
 Alpha  occ. eigenvalues --   -0.81592  -0.81484  -0.80414  -0.80260  -0.79144
 Alpha  occ. eigenvalues --   -0.78598  -0.78125  -0.77937  -0.77208  -0.76999
 Alpha  occ. eigenvalues --   -0.76189  -0.76091  -0.75681  -0.75519  -0.74891
 Alpha  occ. eigenvalues --   -0.74573  -0.72973  -0.72841  -0.71987  -0.71928
 Alpha  occ. eigenvalues --   -0.71714  -0.71229  -0.70551  -0.70501  -0.69619
 Alpha  occ. eigenvalues --   -0.69163  -0.67312  -0.66873  -0.66186  -0.65471
 Alpha  occ. eigenvalues --   -0.64217  -0.63615  -0.63438  -0.62810  -0.62677
 Alpha  occ. eigenvalues --   -0.62291  -0.62211  -0.61213  -0.59915  -0.59839
 Alpha  occ. eigenvalues --   -0.59773  -0.59498  -0.59433  -0.59324  -0.59103
 Alpha  occ. eigenvalues --   -0.58914  -0.57398  -0.57160  -0.55445  -0.54936
 Alpha  occ. eigenvalues --   -0.54318  -0.54297  -0.53912  -0.53310  -0.53198
 Alpha  occ. eigenvalues --   -0.53154  -0.52918  -0.52184  -0.51973  -0.51920
 Alpha  occ. eigenvalues --   -0.50878  -0.50827  -0.50585  -0.50365  -0.50055
 Alpha  occ. eigenvalues --   -0.49972  -0.49949  -0.49666  -0.49340  -0.48970
 Alpha  occ. eigenvalues --   -0.48395  -0.48182  -0.48071  -0.47722  -0.47550
 Alpha  occ. eigenvalues --   -0.47334  -0.47245  -0.47105  -0.46904  -0.46452
 Alpha  occ. eigenvalues --   -0.46348  -0.46219  -0.46191  -0.46067  -0.45941
 Alpha  occ. eigenvalues --   -0.45733  -0.45647  -0.45333  -0.45266  -0.44919
 Alpha  occ. eigenvalues --   -0.44893  -0.44729  -0.44156  -0.44144  -0.43968
 Alpha  occ. eigenvalues --   -0.43878  -0.43733  -0.43556  -0.43420  -0.43317
 Alpha  occ. eigenvalues --   -0.43293  -0.43090  -0.43002  -0.42955  -0.42820
 Alpha  occ. eigenvalues --   -0.42753  -0.42635  -0.42045  -0.41928  -0.41719
 Alpha  occ. eigenvalues --   -0.41690  -0.41549  -0.41536  -0.41220  -0.41197
 Alpha  occ. eigenvalues --   -0.41060  -0.40829  -0.40779  -0.40707  -0.40693
 Alpha  occ. eigenvalues --   -0.40455  -0.40240  -0.40109  -0.40041  -0.39623
 Alpha  occ. eigenvalues --   -0.39337  -0.39243  -0.39121  -0.39088  -0.38910
 Alpha  occ. eigenvalues --   -0.38878  -0.38684  -0.38625  -0.38571  -0.38445
 Alpha  occ. eigenvalues --   -0.38211  -0.38074  -0.37940  -0.37855  -0.37633
 Alpha  occ. eigenvalues --   -0.37606  -0.37512  -0.37482  -0.37323  -0.37072
 Alpha  occ. eigenvalues --   -0.36651  -0.36600  -0.36505  -0.36290  -0.36193
 Alpha  occ. eigenvalues --   -0.36022  -0.35727  -0.35682  -0.35544  -0.35369
 Alpha  occ. eigenvalues --   -0.35098  -0.34569  -0.34446  -0.34231  -0.34082
 Alpha  occ. eigenvalues --   -0.33671  -0.33320  -0.32876  -0.32835  -0.32487
 Alpha  occ. eigenvalues --   -0.32375  -0.32283  -0.32026  -0.31670  -0.31540
 Alpha  occ. eigenvalues --   -0.31388  -0.31160  -0.29839  -0.29660  -0.29325
 Alpha  occ. eigenvalues --   -0.29245  -0.28565  -0.28285  -0.27409  -0.27108
 Alpha  occ. eigenvalues --   -0.26394  -0.26383  -0.25901  -0.25644  -0.25629
 Alpha  occ. eigenvalues --   -0.25457  -0.25288  -0.24452  -0.21085  -0.21030
 Alpha  occ. eigenvalues --   -0.19355  -0.18473
 Alpha virt. eigenvalues --   -0.11793  -0.10954  -0.04944  -0.04868  -0.04305
 Alpha virt. eigenvalues --   -0.04148  -0.02279  -0.02091  -0.01716  -0.01074
 Alpha virt. eigenvalues --   -0.00825  -0.00297   0.00340   0.00496   0.01271

 Mulliken charges:
               1
     1  Mg  12.000000
     2  C    6.000000
     3  C    6.000000
     4  C    6.000000
     5  C    6.000000
     6  N    7.000000
     7  C    6.000000
     8  C    6.000000
     9  C    6.000000
    10  C    6.000000
    11  C    6.000000
    12  C    6.000000
    13  C    6.000000
    14  H    1.000000
    15  N    7.000000
    16  C    6.000000
    17  C    6.000000
    18  C    6.000000
    19  C    6.000000
    20  C    6.000000
    21  C    6.000000
    22  O    8.000000
    23  C    6.000000
    24  N    7.000000
    25  C    6.000000
    26  C    6.000000
    27  C    6.000000
    28  C    6.000000
    29  C    6.000000
    30  C    6.000000
    31  C    6.000000
    32  N    7.000000
    33  C    6.000000
    34  C    6.000000
    35  C    6.000000
    36  C    6.000000
    37  C    6.000000
    38  C    6.000000
    39  O    8.000000
    40  C    6.000000
    41  C    6.000000
    42  O    8.000000
    43  O    8.000000
    44  C    6.000000
    45  H    1.000000
    46  H    1.000000
    47  H    1.000000
    48  H    1.000000
    49  H    1.000000
    50  H    1.000000
    51  H    1.000000
    52  H    1.000000
    53  H    1.000000
    54  H    1.000000
    55  H    1.000000
    56  H    1.000000
    57  H    1.000000
    58  H    1.000000
    59  H    1.000000
    60  H    1.000000
    61  H    1.000000
    62  H    1.000000
    63  H    1.000000
    64  H    1.000000
    65  H    1.000000
    66  H    1.000000
    67  H    1.000000
    68  H    1.000000
    69  H    1.000000
    70  H    1.000000
    71  H    1.000000
    72  H    1.000000
    73  H    1.000000
    74  H    1.000000
    75  H    1.000000
    76  H    1.000000
    77  H    1.000000
    78  H    1.000000
    79  H    1.000000
    80  Mg  12.000000
    81  C    6.000000
    82  C    6.000000
    83  C    6.000000
    84  C    6.000000
    85  N    7.000000
    86  C    6.000000
    87  C    6.000000
    88  C    6.000000
    89  C    6.000000
    90  C    6.000000
    91  C    6.000000
    92  C    6.000000
    93  H    1.000000
    94  N    7.000000
    95  C    6.000000
    96  C    6.000000
    97  C    6.000000
    98  C    6.000000
    99  C    6.000000
   100  C    6.000000
   101  O    8.000000
   102  C    6.000000
   103  N    7.000000
   104  C    6.000000
   105  C    6.000000
   106  C    6.000000
   107  C    6.000000
   108  C    6.000000
   109  C    6.000000
   110  C    6.000000
   111  N    7.000000
   112  C    6.000000
   113  C    6.000000
   114  C    6.000000
   115  C    6.000000
   116  C    6.000000
   117  C    6.000000
   118  O    8.000000
   119  C    6.000000
   120  C    6.000000
   121  O    8.000000
   122  O    8.000000
   123  C    6.000000
   124  H    1.000000
   125  H    1.000000
   126  H    1.000000
   127  H    1.000000
   128  H    1.000000
   129  H    1.000000
   130  H    1.000000
   131  H    1.000000
   132  H    1.000000
   133  H    1.000000
   134  H    1.000000
   135  H    1.000000
   136  H    1.000000
   137  H    1.000000
   138  H    1.000000
   139  H    1.000000
   140  H    1.000000
   141  H    1.000000
   142  H    1.000000
   143  H    1.000000
   144  H    1.000000
   145  H    1.000000
   146  H    1.000000
   147  H    1.000000
   148  H    1.000000
   149  H    1.000000
   150  H    1.000000
   151  H    1.000000
   152  H    1.000000
   153  H    1.000000
   154  H    1.000000
   155  H    1.000000
   156  H    1.000000
   157  H    1.000000
   158  H    1.000000
 Sum of Mulliken charges = 624.00000

 Dipole moment (field-independent basis, Debye):
    X=             -0.0000    Y=              0.0000    Z=              0.0000  Tot=              0.0000
 Quadrupole moment (field-independent basis, Debye-Ang):
   XX=             -0.0000   YY=              0.0000   ZZ=             -0.0000
   XY=             -0.0000   XZ=              0.0000   YZ=              0.0000

 Normal termination of Gaussian 16 at Thu Oct 14 09:26:55 2021.
