 Gaussian 16, Revision A.03,
 Gaussian 16:  ES64L-G16RevA.03 25-Dec-2016

 --------------------------------------------------------
 #p PBE1PBE/Def2SVP td=(nstates=5) density=(transition=1)
 --------------------------------------------------------

 --------------------------------
 TDDFT excited states in gaussian
 --------------------------------
 Symbolic Z-matrix:
 Charge =  0 Multiplicity = 1

                         Standard orientation:
 ---------------------------------------------------------------------
 Center     Atomic      Atomic             Coordinates (Angstroms)
 Number     Number       Type             X           Y           Z
 ---------------------------------------------------------------------
      1         12           0      -20.342423   -0.426089    0.143768
      2          6           0      -19.854256    2.748778   -1.201388
      3          6           0      -20.045518    0.894951    3.306291
      4          6           0      -20.552877   -3.600184    1.276544
      5          6           0      -20.233253   -1.730031   -3.181517
      6          7           0      -19.884395    1.559084    0.905868
      7          6           0      -19.750478    2.714943    0.200543
      8          6           0      -19.624095    3.927812    1.131489
      9          6           0      -19.547399    3.225886    2.558988
     10          6           0      -19.866873    1.767466    2.214272
     11          6           0      -18.168439    3.364621    3.192698
     12          6           0      -20.852646    4.905406    1.156335
     13          6           0      -20.582877    6.347491    1.499175
     14          1           0      -19.307711    6.718406    2.113261
     15          7           0      -20.393753   -1.205902    2.000802
     16          6           0      -20.243879   -0.476495    3.197247
     17          6           0      -20.512387   -1.400721    4.267644
     18          6           0      -20.716275   -2.698628    3.734587
     19          6           0      -20.554741   -2.550175    2.267222
     20          6           0      -20.343229   -1.046289    5.729546
     21          6           0      -21.058963   -3.973044    4.384905
     22          8           0      -21.007571   -5.044371    3.819237
     23          6           0      -21.359793   -4.023743    5.926800
     24          7           0      -20.563143   -2.444375   -0.807300
     25          6           0      -20.600789   -3.543678   -0.115330
     26          6           0      -20.648865   -4.797495   -1.039545
     27          6           0      -20.624593   -4.231985   -2.447941
     28          6           0      -20.407408   -2.697261   -2.191275
     29          6           0      -19.492060   -5.830259   -0.641528
     30          6           0      -21.885683   -4.584615   -3.264760
     31          6           0      -21.799505   -5.834526   -4.218273
     32          7           0      -20.362895    0.284834   -1.752540
     33          6           0      -20.315705   -0.350430   -3.018321
     34          6           0      -20.300182    0.597038   -4.066833
     35          6           0      -20.031001    1.841817   -3.353920
     36          6           0      -20.124253    1.546802   -1.963700
     37          6           0      -20.152272    0.288865   -5.545609
     38          6           0      -19.730856    3.201176   -3.615172
     39          8           0      -19.630792    3.836273   -4.657434
     40          6           0      -19.686157    3.906697   -2.104808
     41          6           0      -18.371324    4.627587   -2.049143
     42          8           0      -17.269791    4.085337   -2.187121
     43          8           0      -18.523704    6.042704   -1.953819
     44          6           0      -17.253197    6.831835   -1.905401
     45          1           0      -19.938918    1.381918    4.278607
     46          1           0      -20.429881   -4.591580    1.716700
     47          1           0      -20.245940   -2.069455   -4.219003
     48          1           0      -18.686317    4.416397    0.866058
     49          1           0      -20.252282    3.645248    3.276766
     50          1           0      -17.577105    4.128127    2.687969
     51          1           0      -17.640223    2.413623    3.266405
     52          1           0      -18.184387    3.806553    4.188988
     53          1           0      -21.584106    4.492435    1.850098
     54          1           0      -21.348284    4.801606    0.190857
     55          1           0      -21.310826    6.632142    2.258570
     56          1           0      -20.691074    6.952710    0.599081
     57          1           0      -19.519336   -1.576358    6.207263
     58          1           0      -21.291380   -1.237820    6.233708
     59          1           0      -20.099603   -0.006304    5.946157
     60          1           0      -20.386180   -4.046121    6.417056
     61          1           0      -21.800552   -4.985058    6.191171
     62          1           0      -21.894082   -3.130761    6.248884
     63          1           0      -21.609373   -5.247183   -0.787244
     64          1           0      -19.714357   -4.506694   -2.978731
     65          1           0      -18.857210   -6.044854   -1.501077
     66          1           0      -19.864421   -6.818350   -0.370394
     67          1           0      -18.922725   -5.313659    0.132282
     68          1           0      -22.102453   -3.706603   -3.874225
     69          1           0      -22.698466   -4.697006   -2.547072
     70          1           0      -21.377230   -5.497174   -5.165493
     71          1           0      -22.694527   -6.434058   -4.385496
     72          1           0      -21.009463   -6.400580   -3.725953
     73          1           0      -21.176291    0.087024   -5.858757
     74          1           0      -19.542559   -0.599093   -5.708346
     75          1           0      -19.563755    0.995264   -6.132465
     76          1           0      -20.548833    4.565954   -2.000871
     77          1           0      -16.675567    6.719130   -2.822160
     78          1           0      -16.560145    6.649827   -1.083596
     79          1           0      -17.679379    7.834842   -1.884371
     80         12           0       19.627328   -0.751897   -0.165432
     81          6           0       21.458709    2.197817   -0.288389
     82          6           0       17.178311    1.075853    1.475094
     83          6           0       18.045516   -3.704583    0.422580
     84          6           0       22.265210   -2.416300   -1.657824
     85          7           0       19.382715    1.383829    0.561243
     86          6           0       20.250054    2.448511    0.369435
     87          6           0       19.772931    3.790504    1.051550
     88          6           0       18.539034    3.249732    1.872976
     89          6           0       18.354622    1.791839    1.311383
     90          6           0       18.571145    3.194630    3.403152
     91          6           0       19.470576    4.867280   -0.006640
     92          6           0       20.447256    6.007687   -0.123788
     93          1           0       19.858132    7.397194   -0.425071
     94          7           0       17.782534   -1.268231    0.627516
     95          6           0       16.937126   -0.345460    1.159922
     96          6           0       15.766438   -1.111079    1.630784
     97          6           0       16.015969   -2.479425    1.442233
     98          6           0       17.276733   -2.563476    0.813543
     99          6           0       14.542049   -0.423573    2.081996
    100          6           0       15.194116   -3.674700    1.826700
    101          8           0       15.488335   -4.856921    1.495944
    102          6           0       14.015471   -3.606458    2.632060
    103          7           0       20.035701   -2.712057   -0.619144
    104          6           0       19.226737   -3.760408   -0.304370
    105          6           0       19.764835   -5.071019   -0.725559
    106          6           0       21.099102   -4.676705   -1.454993
    107          6           0       21.158169   -3.221765   -1.176647
    108          6           0       19.994698   -6.255689    0.258438
    109          6           0       21.201403   -5.123610   -2.996501
    110          6           0       20.609604   -4.283000   -4.166665
    111          7           0       21.500440   -0.295690   -0.816286
    112          6           0       22.448396   -1.058478   -1.435373
    113          6           0       23.481961   -0.248230   -1.913339
    114          6           0       23.143879    1.055425   -1.381396
    115          6           0       21.918505    0.963453   -0.751959
    116          6           0       24.666154   -0.652925   -2.789319
    117          6           0       23.571928    2.424190   -1.423165
    118          8           0       24.465615    3.021442   -1.987929
    119          6           0       22.573511    3.191891   -0.487525
    120          6           0       23.247140    3.554899    0.775055
    121          8           0       22.992687    3.098343    1.911305
    122          8           0       24.246631    4.453443    0.638312
    123          6           0       24.851372    5.084802    1.860594
    124          1           0       16.440652    1.641786    2.046722
    125          1           0       17.606677   -4.686472    0.612694
    126          1           0       23.057816   -2.834022   -2.282915
    127          1           0       20.417127    4.080434    1.882303
    128          1           0       17.690540    3.853764    1.551717
    129          1           0       18.612920    2.158951    3.741218
    130          1           0       17.583195    3.509378    3.736046
    131          1           0       19.367002    3.769271    3.878223
    132          1           0       18.527713    5.315215    0.309331
    133          1           0       19.287357    4.366131   -0.957103
    134          1           0       21.137619    5.763058   -0.931470
    135          1           0       21.105000    6.154107    0.733085
    136          1           0       13.773516   -0.734049    1.375314
    137          1           0       14.529995    0.664540    2.157056
    138          1           0       14.263953   -0.787081    3.071218
    139          1           0       14.267264   -2.930588    3.448890
    140          1           0       13.635563   -4.604146    2.848221
    141          1           0       13.221460   -3.061979    2.120929
    142          1           0       18.990930   -5.351785   -1.439346
    143          1           0       21.942671   -5.113047   -0.921410
    144          1           0       19.336968   -7.098408    0.045374
    145          1           0       19.772973   -5.963513    1.285434
    146          1           0       21.029361   -6.596764    0.291766
    147          1           0       20.641422   -6.059011   -2.996135
    148          1           0       22.271922   -5.313670   -3.075207
    149          1           0       20.255767   -3.288621   -3.895658
    150          1           0       19.897029   -4.796395   -4.812863
    151          1           0       21.452971   -4.170901   -4.846771
    152          1           0       25.620626   -0.403035   -2.324846
    153          1           0       24.615292   -0.059240   -3.701892
    154          1           0       24.653146   -1.692562   -3.117616
    155          1           0       22.382096    4.162090   -0.946296
    156          1           0       25.359969    5.900208    1.346066
    157          1           0       25.527435    4.443886    2.425560
    158          1           0       24.059293    5.420717    2.530544
 ---------------------------------------------------------------------

 SCF Done:  E(RPBE1PBE) =  -4067.41197031     A.U. after   17 cycles

 Excitation energies and oscillator strengths:

 Excited State   1:      Singlet-A      1.8459 eV  671.68 nm  f=0.3545  <S**2>=0.000
     309 -> 315        0.17465
     311 -> 313        0.69227
     311 <- 313       -0.10446
 This state for optimization and/or second-order correction.
 Total Energy, E(TD-HF/TD-DFT) =  -4067.34413554
 Copying the excited state density for this state as the 1-particle RhoCI density.

 Excited State   2:      Singlet-A      1.8494 eV  670.40 nm  f=0.0000  <S**2>=0.000
     312 -> 313        0.70711

 Excited State   3:      Singlet-A      1.8654 eV  664.65 nm  f=0.3726  <S**2>=0.000
     310 -> 316       -0.17020
     312 -> 314        0.69166
     312 <- 314       -0.10906

 Excited State   4:      Singlet-A      2.1139 eV  586.53 nm  f=0.0000  <S**2>=0.000
     311 -> 314        0.70711

 Excited State   5:      Singlet-A      2.2119 eV  560.53 nm  f=0.1371  <S**2>=0.000
     309 -> 313        0.66068
     311 -> 315       -0.23956

 The electronic state is 1-A.
 Alpha  occ. eigenvalues --  -46.91425 -46.90925 -19.24934 -19.24663 -19.19796
 Alpha  occ. eigenvalues --  -19.19196 -19.18902 -19.18496 -19.18493 -19.18160
 Alpha  occ. eigenvalues --  -14.42163 -14.41457 -14.41393 -14.41228 -14.39757
 Alpha  occ. eigenvalues --  -14.39236 -14.39176 -14.38047 -10.36217 -10.35517
 Alpha  occ. eigenvalues --  -10.32314 -10.31835 -10.31579 -10.31342 -10.29211
 Alpha  occ. eigenvalues --  -10.29111 -10.29028 -10.28827 -10.28798 -10.28728
 Alpha  occ. eigenvalues --  -10.28570 -10.28515 -10.28413 -10.28344 -10.28243
 Alpha  occ. eigenvalues --  -10.28132 -10.27779 -10.27670 -10.27135 -10.26915
 Alpha  occ. eigenvalues --  -10.26878 -10.26371 -10.26274 -10.26033 -10.25994
 Alpha  occ. eigenvalues --  -10.25967 -10.25957 -10.25946 -10.25878 -10.25811
 Alpha  occ. eigenvalues --  -10.25655 -10.25624 -10.25510 -10.25466 -10.25444
 Alpha  occ. eigenvalues --  -10.25432 -10.25300 -10.25277 -10.25238 -10.25163
 Alpha  occ. eigenvalues --  -10.25098 -10.24944 -10.24912 -10.24905 -10.24820
 Alpha  occ. eigenvalues --  -10.24630 -10.24525 -10.24468 -10.24341 -10.24304
 Alpha  occ. eigenvalues --  -10.24256 -10.24123 -10.23954 -10.23760 -10.23617
 Alpha  occ. eigenvalues --  -10.23489 -10.23485 -10.23452 -10.23405 -10.23404
 Alpha  occ. eigenvalues --  -10.23326 -10.23260 -10.23144 -10.22892 -10.22795
 Alpha  occ. eigenvalues --  -10.22403  -3.13697  -3.13217  -1.86551  -1.86070
 Alpha  occ. eigenvalues --   -1.86064  -1.85941  -1.85596  -1.85445  -1.09862
 Alpha  occ. eigenvalues --   -1.08295  -1.05587  -1.04313  -1.03768  -1.02594
 Alpha  occ. eigenvalues --   -1.00771  -0.99865  -0.99825  -0.99517  -0.98764
 Alpha  occ. eigenvalues --   -0.98751  -0.98188  -0.97853  -0.96872  -0.96862
 Alpha  occ. eigenvalues --   -0.87473  -0.86643  -0.83596  -0.83263  -0.83260
 Alpha  occ. eigenvalues --   -0.82719  -0.82677  -0.82600  -0.82053  -0.81824
 Alpha  occ. eigenvalues --   -0.81771  -0.81316  -0.80769  -0.80447  -0.78616
 Alpha  occ. eigenvalues --   -0.78577  -0.77925  -0.77406  -0.76965  -0.76698
 Alpha  occ. eigenvalues --   -0.76498  -0.75750  -0.75290  -0.74863  -0.74624
 Alpha  occ. eigenvalues --   -0.74325  -0.72873  -0.72870  -0.71816  -0.71684
 Alpha  occ. eigenvalues --   -0.71215  -0.71128  -0.70501  -0.70238  -0.69637
 Alpha  occ. eigenvalues --   -0.69439  -0.67678  -0.67545  -0.66081  -0.65766
 Alpha  occ. eigenvalues --   -0.64480  -0.63859  -0.63399  -0.63113  -0.62618
 Alpha  occ. eigenvalues --   -0.62426  -0.61691  -0.61493  -0.60217  -0.59756
 Alpha  occ. eigenvalues --   -0.59663  -0.59506  -0.59488  -0.59266  -0.59202
 Alpha  occ. eigenvalues --   -0.58898  -0.56098  -0.56063  -0.54821  -0.54483
 Alpha  occ. eigenvalues --   -0.54297  -0.54165  -0.53968  -0.53707  -0.53264
 Alpha  occ. eigenvalues --   -0.53253  -0.52448  -0.52238  -0.51907  -0.51826
 Alpha  occ. eigenvalues --   -0.50849  -0.50761  -0.50104  -0.49566  -0.49454
 Alpha  occ. eigenvalues --   -0.49243  -0.48911  -0.48647  -0.48388  -0.47881
 Alpha  occ. eigenvalues --   -0.47820  -0.47750  -0.47403  -0.47250  -0.47088
 Alpha  occ. eigenvalues --   -0.47079  -0.47006  -0.46864  -0.46777  -0.46691
 Alpha  occ. eigenvalues --   -0.46578  -0.46497  -0.46246  -0.45791  -0.45650
 Alpha  occ. eigenvalues --   -0.45396  -0.45314  -0.44949  -0.44783  -0.44695
 Alpha  occ. eigenvalues --   -0.44471  -0.44336  -0.44219  -0.44191  -0.43988
 Alpha  occ. eigenvalues --   -0.43906  -0.43866  -0.43661  -0.43591  -0.43431
 Alpha  occ. eigenvalues --   -0.43192  -0.43058  -0.43031  -0.42889  -0.42799
 Alpha  occ. eigenvalues --   -0.42592  -0.42406  -0.42399  -0.42271  -0.41926
 Alpha  occ. eigenvalues --   -0.41882  -0.41810  -0.41688  -0.41594  -0.41420
 Alpha  occ. eigenvalues --   -0.41169  -0.40978  -0.40766  -0.40522  -0.40417
 Alpha  occ. eigenvalues --   -0.40165  -0.40062  -0.40016  -0.39908  -0.39881
 Alpha  occ. eigenvalues --   -0.39574  -0.39534  -0.39310  -0.39032  -0.38925
 Alpha  occ. eigenvalues --   -0.38855  -0.38773  -0.38755  -0.38565  -0.38531
 Alpha  occ. eigenvalues --   -0.38303  -0.38169  -0.37966  -0.37803  -0.37753
 Alpha  occ. eigenvalues --   -0.37654  -0.37593  -0.37337  -0.37059  -0.36879
 Alpha  occ. eigenvalues --   -0.36770  -0.36520  -0.36436  -0.36241  -0.36229
 Alpha  occ. eigenvalues --   -0.35985  -0.35749  -0.35625  -0.35162  -0.35122
 Alpha  occ. eigenvalues --   -0.34794  -0.34752  -0.34590  -0.34453  -0.33811
 Alpha  occ. eigenvalues --   -0.33632  -0.33212  -0.32837  -0.32823  -0.32321
 Alpha  occ. eigenvalues --   -0.32078  -0.31903  -0.31578  -0.31462  -0.31274
 Alpha  occ. eigenvalues --   -0.30816  -0.30509  -0.29746  -0.29519  -0.29218
 Alpha  occ. eigenvalues --   -0.28770  -0.28610  -0.27555  -0.27032  -0.26651
 Alpha  occ. eigenvalues --   -0.26066  -0.25741  -0.25623  -0.25529  -0.25195
 Alpha  occ. eigenvalues --   -0.25118  -0.25007  -0.24878  -0.21140  -0.20600
 Alpha  occ. eigenvalues --   -0.19172  -0.18695
 Alpha virt. eigenvalues --   -0.11569  -0.11073  -0.05268  -0.04868  -0.04012
 Alpha virt. eigenvalues --   -0.03502  -0.02070  -0.02019  -0.00034   0.00626
 Alpha virt. eigenvalues --    0.00850   0.01107   0.01288   0.01450   0.01938

 Mulliken charges:
               1
     1  Mg  11.999335
     2  C    6.027562
     3  C    5.999122
     4  C    5.979870
     5  C    5.998349
     6  N    7.015979
     7  C    5.964858
     8  C    6.011634
     9  C    5.987927
    10  C    6.025900
    11  C    5.995930
    12  C    6.002154
    13  C    6.000295
    14  H    0.995825
    15  N    6.991181
    16  C    6.034128
    17  C    6.020462
    18  C    6.017385
    19  C    6.027239
    20  C    5.995666
    21  C    6.009449
    22  O    8.030665
    23  C    5.997989
    24  N    6.992465
    25  C    6.027373
    26  C    5.998380
    27  C    6.003854
    28  C    5.976760
    29  C    5.997532
    30  C    6.003892
    31  C    5.998759
    32  N    7.000293
    33  C    5.968557
    34  C    5.974208
    35  C    5.993812
    36  C    5.971665
    37  C    6.000248
    38  C    5.986005
    39  O    7.969141
    40  C    5.992031
    41  C    5.995716
    42  O    7.996555
    43  O    7.997908
    44  C    6.001519
    45  H    1.013475
    46  H    1.002134
    47  H    0.988075
    48  H    1.002504
    49  H    1.002735
    50  H    1.014420
    51  H    0.997964
    52  H    1.003306
    53  H    0.990499
    54  H    1.007367
    55  H    0.996807
    56  H    1.004183
    57  H    1.017810
    58  H    1.016355
    59  H    1.015823
    60  H    1.008168
    61  H    1.013704
    62  H    1.004597
    63  H    0.996243
    64  H    1.000267
    65  H    1.007483
    66  H    0.999101
    67  H    0.994161
    68  H    1.005613
    69  H    0.990110
    70  H    1.001799
    71  H    0.995211
    72  H    0.994279
    73  H    0.985271
    74  H    0.983802
    75  H    0.987208
    76  H    0.994286
    77  H    0.999613
    78  H    0.993871
    79  H    0.996177
    80  Mg  12.000025
    81  C    5.999833
    82  C    6.000170
    83  C    6.000204
    84  C    6.000003
    85  N    6.999905
    86  C    6.000290
    87  C    5.999887
    88  C    6.000066
    89  C    5.999729
    90  C    6.000017
    91  C    5.999953
    92  C    5.999965
    93  H    1.000113
    94  N    7.000063
    95  C    5.999579
    96  C    5.999714
    97  C    5.999914
    98  C    5.999613
    99  C    6.000053
   100  C    5.999912
   101  O    7.999717
   102  C    6.000036
   103  N    7.000092
   104  C    5.999601
   105  C    6.000157
   106  C    5.999860
   107  C    6.000361
   108  C    5.999995
   109  C    5.999957
   110  C    5.999980
   111  N    6.999976
   112  C    6.000293
   113  C    6.000280
   114  C    6.000064
   115  C    6.000284
   116  C    5.999976
   117  C    6.000106
   118  O    8.000325
   119  C    6.000065
   120  C    6.000009
   121  O    8.000080
   122  O    8.000007
   123  C    5.999985
   124  H    0.999888
   125  H    0.999897
   126  H    1.000141
   127  H    1.000024
   128  H    1.000013
   129  H    1.000009
   130  H    0.999990
   131  H    0.999867
   132  H    1.000098
   133  H    1.000038
   134  H    0.999965
   135  H    0.999977
   136  H    0.999821
   137  H    0.999806
   138  H    0.999722
   139  H    0.999925
   140  H    0.999819
   141  H    0.999949
   142  H    1.000018
   143  H    0.999987
   144  H    0.999993
   145  H    0.999992
   146  H    0.999888
   147  H    1.000117
   148  H    0.999982
   149  H    1.000003
   150  H    1.000116
   151  H    1.000002
   152  H    1.000171
   153  H    1.000202
   154  H    1.000167
   155  H    1.000105
   156  H    1.000043
   157  H    1.000008
   158  H    1.000047
 Sum of Mulliken charges = 624.00000

 Dipole moment (field-independent basis, Debye):
    X=             -0.3249    Y=             -2.9706    Z=              9.6104  Tot=             10.0643
 Quadrupole moment (field-independent basis, Debye-Ang):
   XX=             20.5290   YY=             -0.1819   ZZ=              3.7034
   XY=             60.9640   XZ=           -197.3227   YZ=             -5.7290

 Normal termination of Gaussian 16 at Fri Oct 15 09:47:06 2021.
