 Gaussian 16, Revision A.03,
 Gaussian 16:  ES64L-G16RevA.03 25-Dec-2016

 --------------------------------------------------------
 #p PBE1PBE/Def2SVP td=(nstates=5) density=(transition=1)
 --------------------------------------------------------

 --------------------------------
 TDDFT excited states in gaussian
 --------------------------------
 Symbolic Z-matrix:
 Charge =  0 Multiplicity = 1

                         Standard orientation:
 ---------------------------------------------------------------------
 Center     Atomic      Atomic             Coordinates (Angstroms)
 Number     Number       Type             X           Y           Z
 ---------------------------------------------------------------------
      1         12           0       21.817933   -0.581764    0.330924
      2          6           0       21.872726    2.533340   -1.208712
      3          6           0       23.093321    0.796813    3.127783
      4          6           0       22.486239   -3.677422    1.518108
      5          6           0       21.286427   -2.055355   -2.847092
      6          7           0       22.293579    1.433049    0.824581
      7          6           0       22.119319    2.622750    0.151697
      8          6           0       22.599466    3.816010    1.022949
      9          6           0       23.449880    3.079716    2.103616
     10          6           0       22.833333    1.688602    2.099532
     11          6           0       24.985737    3.002855    1.790830
     12          6           0       21.362469    4.651559    1.400168
     13          6           0       21.567378    6.116120    1.314000
     14          1           0       20.341500    6.905571    1.213473
     15          7           0       22.457951   -1.295417    2.156103
     16          6           0       22.881432   -0.542925    3.204392
     17          6           0       22.922702   -1.379085    4.377682
     18          6           0       22.735670   -2.723995    3.893562
     19          6           0       22.630792   -2.611602    2.435810
     20          6           0       23.245290   -0.875190    5.738727
     21          6           0       22.800677   -4.102470    4.628482
     22          8           0       22.604910   -5.175938    4.055046
     23          6           0       22.966299   -4.183412    6.120322
     24          7           0       22.204341   -2.551097   -0.661992
     25          6           0       22.334561   -3.718179    0.139227
     26          6           0       22.219177   -4.987915   -0.637470
     27          6           0       21.621552   -4.395301   -1.954888
     28          6           0       21.640717   -2.877731   -1.791951
     29          6           0       23.569829   -5.762414   -0.808164
     30          6           0       20.156040   -4.882207   -2.251104
     31          6           0       19.144440   -4.714522   -1.088812
     32          7           0       21.510291    0.061781   -1.619074
     33          6           0       21.256117   -0.648288   -2.802676
     34          6           0       21.095575    0.316712   -3.825039
     35          6           0       21.301515    1.554352   -3.228323
     36          6           0       21.556646    1.338124   -1.914291
     37          6           0       20.721473    0.024665   -5.243281
     38          6           0       21.412582    2.909537   -3.504430
     39          8           0       21.293873    3.508046   -4.589115
     40          6           0       21.783348    3.696463   -2.211332
     41          6           0       20.584088    4.678474   -2.029686
     42          8           0       19.423559    4.351665   -1.723643
     43          8           0       21.043768    5.967934   -2.274575
     44          6           0       20.036349    7.067190   -2.413498
     45          1           0       23.591173    1.340256    3.933649
     46          1           0       22.522148   -4.744265    1.751426
     47          1           0       20.915346   -2.438226   -3.800128
     48          1           0       23.192867    4.506454    0.424509
     49          1           0       23.253509    3.527509    3.077343
     50          1           0       25.322068    3.533046    0.899372
     51          1           0       25.278507    1.978815    1.562583
     52          1           0       25.532782    3.455676    2.617495
     53          1           0       21.194518    4.460322    2.459114
     54          1           0       20.535373    4.318211    0.772774
     55          1           0       22.113897    6.280809    0.385255
     56          1           0       22.215916    6.422842    2.134386
     57          1           0       23.103617    0.203127    5.808729
     58          1           0       24.205888   -1.296149    6.037519
     59          1           0       22.524110   -1.278353    6.449769
     60          1           0       23.409084   -5.165257    6.289262
     61          1           0       21.997551   -4.163065    6.620066
     62          1           0       23.652999   -3.425306    6.498187
     63          1           0       21.497025   -5.694208   -0.225507
     64          1           0       22.269251   -4.672423   -2.787252
     65          1           0       24.396520   -5.069376   -0.649702
     66          1           0       23.747554   -6.232118   -1.775708
     67          1           0       23.737603   -6.587702   -0.115575
     68          1           0       20.251349   -5.910391   -2.600598
     69          1           0       19.877284   -4.310147   -3.135993
     70          1           0       18.297717   -4.082348   -1.356985
     71          1           0       19.699631   -4.290778   -0.251507
     72          1           0       18.720991   -5.663112   -0.760067
     73          1           0       21.508612    0.468615   -5.852658
     74          1           0       19.734302    0.451753   -5.419822
     75          1           0       20.711933   -1.030212   -5.517868
     76          1           0       22.684956    4.274246   -2.412988
     77          1           0       19.403044    6.790151   -3.255972
     78          1           0       20.407832    8.075299   -2.597129
     79          1           0       19.568930    6.938371   -1.437228
     80         12           0      -21.705871   -0.749613   -0.291929
     81          6           0      -23.242648    1.755712    1.656361
     82          6           0      -19.945839    1.711351   -1.922067
     83          6           0      -20.255826   -3.067701   -2.242405
     84          6           0      -23.923477   -3.136293    0.984461
     85          7           0      -21.572396    1.412442    0.006378
     86          6           0      -22.212018    2.269929    0.796560
     87          6           0      -21.813440    3.754947    0.668396
     88          6           0      -20.982703    3.614062   -0.697708
     89          6           0      -20.859428    2.126087   -0.917679
     90          6           0      -21.627863    4.304328   -1.874839
     91          6           0      -20.909943    4.315469    1.900903
     92          6           0      -21.051845    5.825762    2.111444
     93          1           0      -21.614485    6.222325    3.500703
     94          7           0      -20.148849   -0.731458   -1.785006
     95          6           0      -19.592274    0.444687   -2.345809
     96          6           0      -18.460514    0.028992   -3.143334
     97          6           0      -18.506939   -1.358924   -3.238886
     98          6           0      -19.655592   -1.807465   -2.390829
     99          6           0      -17.571478    0.986842   -3.913776
    100          6           0      -17.607594   -2.346515   -3.946419
    101          8           0      -17.799699   -3.520642   -3.820537
    102          6           0      -16.423705   -1.909462   -4.750118
    103          7           0      -22.151983   -2.754349   -0.747010
    104          6           0      -21.357309   -3.532952   -1.536942
    105          6           0      -21.916005   -4.978885   -1.427879
    106          6           0      -22.609959   -5.062452   -0.080152
    107          6           0      -22.966692   -3.568242    0.101097
    108          6           0      -22.939586   -5.210463   -2.538508
    109          6           0      -21.782285   -5.634743    1.010466
    110          6           0      -20.366116   -5.146621    1.190162
    111          7           0      -23.254621   -0.764255    1.065971
    112          6           0      -24.083827   -1.783830    1.494184
    113          6           0      -25.018578   -1.245696    2.494566
    114          6           0      -24.694038    0.118582    2.592016
    115          6           0      -23.652952    0.350614    1.735116
    116          6           0      -26.083530   -1.987011    3.180331
    117          6           0      -24.917777    1.333575    3.328651
    118          8           0      -25.697906    1.585729    4.293423
    119          6           0      -23.924197    2.439495    2.733008
    120          6           0      -24.794152    3.543127    2.189409
    121          8           0      -25.738244    3.338745    1.485407
    122          8           0      -24.385491    4.864063    2.518121
    123          6           0      -25.041713    5.947523    1.724831
    124          1           0      -19.416503    2.481036   -2.486586
    125          1           0      -19.882574   -3.832003   -2.927757
    126          1           0      -24.524051   -3.853272    1.548588
    127          1           0      -22.706660    4.380480    0.645506
    128          1           0      -20.024547    4.081688   -0.467729
    129          1           0      -21.131136    5.269972   -1.967768
    130          1           0      -22.714139    4.351528   -1.795308
    131          1           0      -21.267212    3.740846   -2.735311
    132          1           0      -19.856131    4.110440    1.709838
    133          1           0      -21.141873    3.779334    2.821380
    134          1           0      -21.691278    6.100683    1.272356
    135          1           0      -20.119370    6.356531    1.920368
    136          1           0      -17.738416    1.950114   -3.433251
    137          1           0      -18.045648    1.017267   -4.894350
    138          1           0      -16.517335    0.714785   -3.856486
    139          1           0      -15.768788   -1.589108   -3.939655
    140          1           0      -16.609603   -1.061917   -5.409269
    141          1           0      -16.015664   -2.750192   -5.312216
    142          1           0      -21.180439   -5.772459   -1.554700
    143          1           0      -23.501230   -5.688446   -0.052473
    144          1           0      -24.004648   -5.172958   -2.309505
    145          1           0      -22.728106   -6.186760   -2.974530
    146          1           0      -22.748501   -4.481541   -3.326896
    147          1           0      -21.755399   -6.723985    0.971889
    148          1           0      -22.332061   -5.377210    1.915550
    149          1           0      -20.363231   -4.595447    2.130973
    150          1           0      -19.853049   -4.502080    0.475802
    151          1           0      -19.727946   -6.015847    1.348383
    152          1           0      -26.860281   -2.215659    2.450697
    153          1           0      -26.390598   -1.314703    3.981384
    154          1           0      -25.726895   -2.949919    3.548474
    155          1           0      -23.278548    2.703643    3.570746
    156          1           0      -26.049424    6.131290    2.097321
    157          1           0      -25.095847    5.726397    0.657896
    158          1           0      -24.594826    6.937754    1.808595
 ---------------------------------------------------------------------

 SCF Done:  E(RPBE1PBE) =  -4067.37598724     A.U. after   16 cycles

 Excitation energies and oscillator strengths:

 Excited State   1:      Singlet-A      1.8236 eV  679.90 nm  f=0.2720  <S**2>=0.000
     309 -> 316        0.14825
     311 -> 314       -0.19441
     312 -> 313        0.66899
     312 <- 313       -0.11294
 This state for optimization and/or second-order correction.
 Total Energy, E(TD-HF/TD-DFT) =  -4067.30897272
 Copying the excited state density for this state as the 1-particle RhoCI density.

 Excited State   2:      Singlet-A      1.8250 eV  679.35 nm  f=0.4471  <S**2>=0.000
     310 -> 315        0.16512
     311 -> 314        0.66671
     312 -> 313        0.19502
     311 <- 314       -0.10483

 Excited State   3:      Singlet-A      1.9410 eV  638.75 nm  f=0.0000  <S**2>=0.000
     312 -> 314        0.70711

 Excited State   4:      Singlet-A      1.9612 eV  632.18 nm  f=0.0000  <S**2>=0.000
     311 -> 313        0.70711

 Excited State   5:      Singlet-A      2.1781 eV  569.23 nm  f=0.1114  <S**2>=0.000
     310 -> 314        0.65716
     311 -> 315       -0.25111

 The electronic state is 1-A.
 Alpha  occ. eigenvalues --  -46.92028 -46.91740 -19.25434 -19.25177 -19.20257
 Alpha  occ. eigenvalues --  -19.20253 -19.19039 -19.19017 -19.18728 -19.17890
 Alpha  occ. eigenvalues --  -14.42715 -14.41577 -14.41067 -14.40953 -14.39240
 Alpha  occ. eigenvalues --  -14.39054 -14.38889 -14.38185 -10.37099 -10.36461
 Alpha  occ. eigenvalues --  -10.32493 -10.32114 -10.32059 -10.30761 -10.29342
 Alpha  occ. eigenvalues --  -10.29202 -10.29030 -10.28942 -10.28821 -10.28691
 Alpha  occ. eigenvalues --  -10.28510 -10.28398 -10.28265 -10.28159 -10.28033
 Alpha  occ. eigenvalues --  -10.27946 -10.27890 -10.27494 -10.26982 -10.26973
 Alpha  occ. eigenvalues --  -10.26721 -10.26676 -10.26379 -10.26321 -10.26165
 Alpha  occ. eigenvalues --  -10.26119 -10.26037 -10.25964 -10.25960 -10.25825
 Alpha  occ. eigenvalues --  -10.25797 -10.25744 -10.25573 -10.25539 -10.25422
 Alpha  occ. eigenvalues --  -10.25398 -10.25357 -10.25246 -10.25026 -10.25013
 Alpha  occ. eigenvalues --  -10.24911 -10.24898 -10.24875 -10.24872 -10.24580
 Alpha  occ. eigenvalues --  -10.24522 -10.24505 -10.24301 -10.24216 -10.24048
 Alpha  occ. eigenvalues --  -10.23929 -10.23780 -10.23663 -10.23619 -10.23383
 Alpha  occ. eigenvalues --  -10.23350 -10.23326 -10.23260 -10.23126 -10.23073
 Alpha  occ. eigenvalues --  -10.23007 -10.22813 -10.22575 -10.22408 -10.21905
 Alpha  occ. eigenvalues --  -10.21417  -3.14106  -3.13914  -1.86970  -1.86734
 Alpha  occ. eigenvalues --   -1.86457  -1.86345  -1.86292  -1.86139  -1.10367
 Alpha  occ. eigenvalues --   -1.09175  -1.06629  -1.04256  -1.02645  -1.02239
 Alpha  occ. eigenvalues --   -1.01567  -1.01473  -0.99830  -0.99471  -0.98624
 Alpha  occ. eigenvalues --   -0.98191  -0.97972  -0.97838  -0.96880  -0.96414
 Alpha  occ. eigenvalues --   -0.87416  -0.86914  -0.84260  -0.83718  -0.83488
 Alpha  occ. eigenvalues --   -0.83337  -0.82990  -0.82920  -0.82140  -0.81992
 Alpha  occ. eigenvalues --   -0.81461  -0.81295  -0.80871  -0.80797  -0.78912
 Alpha  occ. eigenvalues --   -0.78891  -0.77901  -0.77824  -0.76824  -0.76560
 Alpha  occ. eigenvalues --   -0.76489  -0.75822  -0.75498  -0.75280  -0.74748
 Alpha  occ. eigenvalues --   -0.74225  -0.72982  -0.72578  -0.71673  -0.71502
 Alpha  occ. eigenvalues --   -0.71394  -0.71242  -0.70578  -0.70359  -0.69851
 Alpha  occ. eigenvalues --   -0.69335  -0.67703  -0.67006  -0.66498  -0.65752
 Alpha  occ. eigenvalues --   -0.64160  -0.64053  -0.63293  -0.63215  -0.62303
 Alpha  occ. eigenvalues --   -0.62006  -0.61399  -0.60965  -0.60201  -0.59879
 Alpha  occ. eigenvalues --   -0.59441  -0.59106  -0.59051  -0.58832  -0.58586
 Alpha  occ. eigenvalues --   -0.57894  -0.56390  -0.56185  -0.54767  -0.54481
 Alpha  occ. eigenvalues --   -0.54456  -0.54336  -0.53788  -0.53756  -0.53615
 Alpha  occ. eigenvalues --   -0.53133  -0.53070  -0.52285  -0.52196  -0.51380
 Alpha  occ. eigenvalues --   -0.50914  -0.50585  -0.50327  -0.50168  -0.49901
 Alpha  occ. eigenvalues --   -0.49486  -0.49331  -0.49242  -0.49067  -0.48650
 Alpha  occ. eigenvalues --   -0.48496  -0.48107  -0.48088  -0.47932  -0.47696
 Alpha  occ. eigenvalues --   -0.47673  -0.47576  -0.47456  -0.47121  -0.47043
 Alpha  occ. eigenvalues --   -0.46519  -0.46513  -0.46140  -0.46054  -0.46040
 Alpha  occ. eigenvalues --   -0.45945  -0.45475  -0.45355  -0.45084  -0.44966
 Alpha  occ. eigenvalues --   -0.44735  -0.44604  -0.44300  -0.44163  -0.44059
 Alpha  occ. eigenvalues --   -0.43960  -0.43857  -0.43842  -0.43718  -0.43617
 Alpha  occ. eigenvalues --   -0.43393  -0.43207  -0.43021  -0.42831  -0.42763
 Alpha  occ. eigenvalues --   -0.42680  -0.42391  -0.42360  -0.42184  -0.42086
 Alpha  occ. eigenvalues --   -0.41925  -0.41699  -0.41441  -0.41351  -0.41070
 Alpha  occ. eigenvalues --   -0.41060  -0.40758  -0.40727  -0.40562  -0.40424
 Alpha  occ. eigenvalues --   -0.40291  -0.40143  -0.40005  -0.39607  -0.39403
 Alpha  occ. eigenvalues --   -0.39188  -0.39122  -0.38969  -0.38865  -0.38569
 Alpha  occ. eigenvalues --   -0.38549  -0.38392  -0.38336  -0.38247  -0.38019
 Alpha  occ. eigenvalues --   -0.37996  -0.37871  -0.37835  -0.37643  -0.37612
 Alpha  occ. eigenvalues --   -0.37320  -0.37282  -0.37136  -0.36807  -0.36686
 Alpha  occ. eigenvalues --   -0.36565  -0.36407  -0.36402  -0.35995  -0.35882
 Alpha  occ. eigenvalues --   -0.35826  -0.35787  -0.35514  -0.35266  -0.35199
 Alpha  occ. eigenvalues --   -0.35130  -0.34903  -0.34706  -0.34447  -0.34027
 Alpha  occ. eigenvalues --   -0.33288  -0.33231  -0.33052  -0.32699  -0.32421
 Alpha  occ. eigenvalues --   -0.32341  -0.32106  -0.31941  -0.31652  -0.31448
 Alpha  occ. eigenvalues --   -0.31215  -0.31025  -0.29810  -0.29532  -0.29326
 Alpha  occ. eigenvalues --   -0.29133  -0.28809  -0.28739  -0.27123  -0.27018
 Alpha  occ. eigenvalues --   -0.25979  -0.25678  -0.25580  -0.25342  -0.25295
 Alpha  occ. eigenvalues --   -0.25255  -0.25053  -0.24824  -0.21189  -0.21026
 Alpha  occ. eigenvalues --   -0.18957  -0.18868
 Alpha virt. eigenvalues --   -0.11451  -0.11433  -0.05246  -0.05157  -0.03813
 Alpha virt. eigenvalues --   -0.03691  -0.02229  -0.02044  -0.00532   0.00041
 Alpha virt. eigenvalues --    0.00352   0.00704   0.00738   0.00939   0.01351

 Mulliken charges:
               1
     1  Mg  12.002401
     2  C    5.976545
     3  C    6.002950
     4  C    6.030722
     5  C    6.016005
     6  N    6.980035
     7  C    6.030704
     8  C    5.997055
     9  C    6.006352
    10  C    5.977696
    11  C    6.003129
    12  C    5.994345
    13  C    6.000543
    14  H    0.998773
    15  N    7.006533
    16  C    5.966031
    17  C    5.981381
    18  C    5.987494
    19  C    5.963810
    20  C    6.003085
    21  C    5.988033
    22  O    7.972088
    23  C    6.004698
    24  N    7.015948
    25  C    5.960046
    26  C    6.014157
    27  C    5.992984
    28  C    6.016983
    29  C    5.999552
    30  C    5.992555
    31  C    5.994819
    32  N    6.998108
    33  C    6.025887
    34  C    6.029549
    35  C    5.999889
    36  C    6.026344
    37  C    5.997264
    38  C    6.014076
    39  O    8.027761
    40  C    6.003636
    41  C    6.003083
    42  O    8.003430
    43  O    8.001483
    44  C    5.999486
    45  H    0.986491
    46  H    0.996171
    47  H    1.015340
    48  H    0.998604
    49  H    0.998723
    50  H    0.984820
    51  H    1.000509
    52  H    0.996810
    53  H    1.011380
    54  H    0.994616
    55  H    0.996428
    56  H    1.005204
    57  H    0.986212
    58  H    0.982205
    59  H    0.983310
    60  H    0.987588
    61  H    0.989799
    62  H    0.996182
    63  H    0.999189
    64  H    1.002757
    65  H    1.000422
    66  H    0.991134
    67  H    1.003292
    68  H    1.009339
    69  H    0.993830
    70  H    0.997490
    71  H    1.012757
    72  H    1.006472
    73  H    1.016758
    74  H    1.018057
    75  H    1.015475
    76  H    1.007758
    77  H    0.999151
    78  H    1.004127
    79  H    1.004154
    80  Mg  12.001273
    81  C    5.995129
    82  C    6.003377
    83  C    6.003871
    84  C    5.997287
    85  N    6.996877
    86  C    6.010607
    87  C    5.996155
    88  C    6.004609
    89  C    5.989563
    90  C    6.000994
    91  C    5.999707
    92  C    5.999963
    93  H    0.999090
    94  N    7.001982
    95  C    5.988069
    96  C    5.996579
    97  C    5.994064
    98  C    5.992423
    99  C    6.000125
   100  C    5.996770
   101  O    7.992168
   102  C    6.000715
   103  N    7.000265
   104  C    5.992838
   105  C    6.000926
   106  C    5.998856
   107  C    6.007563
   108  C    5.999551
   109  C    5.998295
   110  C    6.000079
   111  N    7.000560
   112  C    6.010484
   113  C    6.009177
   114  C    6.000017
   115  C    6.007388
   116  C    5.999853
   117  C    6.003827
   118  O    8.008121
   119  C    6.000954
   120  C    6.001495
   121  O    8.000606
   122  O    8.000806
   123  C    5.999411
   124  H    0.997068
   125  H    0.998747
   126  H    1.002229
   127  H    0.999412
   128  H    0.998450
   129  H    0.997777
   130  H    0.996206
   131  H    1.001558
   132  H    1.002972
   133  H    0.998356
   134  H    1.000776
   135  H    1.001454
   136  H    0.996055
   137  H    0.995979
   138  H    0.996120
   139  H    0.997872
   140  H    0.997979
   141  H    0.996141
   142  H    1.000338
   143  H    1.000140
   144  H    0.996851
   145  H    0.999581
   146  H    1.001754
   147  H    1.001988
   148  H    0.998261
   149  H    0.998372
   150  H    1.004246
   151  H    1.000786
   152  H    1.005888
   153  H    1.003595
   154  H    1.005461
   155  H    1.001675
   156  H    1.000431
   157  H    1.001473
   158  H    1.001539
 Sum of Mulliken charges = 624.00000

 Dipole moment (field-independent basis, Debye):
    X=             -4.5541    Y=              2.5768    Z=             -7.1620  Tot=              8.8698
 Quadrupole moment (field-independent basis, Debye-Ang):
   XX=            -20.9636   YY=             -0.9322   ZZ=             -6.4812
   XY=             58.6408   XZ=           -244.3321   YZ=              5.9853

 Normal termination of Gaussian 16 at Thu Oct 14 13:48:26 2021.
