 Gaussian 16, Revision A.03,
 Gaussian 16:  ES64L-G16RevA.03 25-Dec-2016

 --------------------------------------------------------
 #p PBE1PBE/Def2SVP td=(nstates=5) density=(transition=1)
 --------------------------------------------------------

 --------------------------------
 TDDFT excited states in gaussian
 --------------------------------
 Symbolic Z-matrix:
 Charge =  0 Multiplicity = 1

                         Standard orientation:
 ---------------------------------------------------------------------
 Center     Atomic      Atomic             Coordinates (Angstroms)
 Number     Number       Type             X           Y           Z
 ---------------------------------------------------------------------
      1         12           0      -30.060473    0.553580    0.334064
      2          6           0      -28.607351   -2.465151   -0.523406
      3          6           0      -27.021180    2.168769   -0.530047
      4          6           0      -31.583458    3.611554    0.601417
      5          6           0      -33.138883   -0.966511    0.710523
      6          7           0      -28.032867   -0.133401   -0.308740
      7          6           0      -27.718241   -1.420124   -0.692303
      8          6           0      -26.316554   -1.551506   -1.397750
      9          6           0      -25.663847   -0.136949   -1.027394
     10          6           0      -26.946665    0.738834   -0.537427
     11          6           0      -24.483095   -0.081976    0.015297
     12          6           0      -26.363890   -1.785763   -2.866692
     13          6           0      -25.772691   -3.044702   -3.471457
     14          1           0      -25.252550   -2.920706   -4.912580
     15          7           0      -29.360379    2.625033    0.160721
     16          6           0      -28.044865    3.014113   -0.154590
     17          6           0      -27.933742    4.435964   -0.075633
     18          6           0      -29.331979    4.906404    0.106958
     19          6           0      -30.197789    3.700841    0.291805
     20          6           0      -26.663181    5.219536   -0.421200
     21          6           0      -29.676335    6.406016    0.114909
     22          8           0      -28.904462    7.346963   -0.046201
     23          6           0      -31.113601    6.768983   -0.010891
     24          7           0      -32.194902    1.275135    0.449808
     25          6           0      -32.475616    2.555558    0.727942
     26          6           0      -33.992330    2.701895    0.614327
     27          6           0      -34.576303    1.217590    0.737727
     28          6           0      -33.207478    0.405452    0.656184
     29          6           0      -34.531276    3.553696    1.817797
     30          6           0      -35.638587    0.698484   -0.316131
     31          6           0      -37.060365    0.371779    0.115641
     32          7           0      -30.763421   -1.382735    0.214677
     33          6           0      -32.053570   -1.877207    0.430292
     34          6           0      -32.083399   -3.286229    0.182322
     35          6           0      -30.745406   -3.601369   -0.208869
     36          6           0      -29.991366   -2.367452   -0.111251
     37          6           0      -33.244424   -4.225374    0.275897
     38          6           0      -29.842043   -4.613333   -0.573651
     39          8           0      -30.063772   -5.799674   -0.711611
     40          6           0      -28.452858   -3.927218   -0.871843
     41          6           0      -27.391261   -4.721383   -0.233897
     42          8           0      -26.637684   -5.460960   -0.856613
     43          8           0      -27.403978   -4.521645    1.138488
     44          6           0      -26.386634   -5.327555    1.850202
     45          1           0      -26.131294    2.770027   -0.725444
     46          1           0      -31.967928    4.622335    0.755575
     47          1           0      -34.128016   -1.421622    0.792342
     48          1           0      -25.746651   -2.349608   -0.923264
     49          1           0      -25.361483    0.318388   -1.971128
     50          1           0      -24.135164   -1.105128    0.157090
     51          1           0      -24.745265    0.362031    0.975715
     52          1           0      -23.715509    0.563119   -0.410582
     53          1           0      -25.784041   -0.982135   -3.323126
     54          1           0      -27.398078   -1.787541   -3.209330
     55          1           0      -26.569994   -3.784363   -3.538239
     56          1           0      -24.915163   -3.427832   -2.918791
     57          1           0      -25.773733    4.718831   -0.803008
     58          1           0      -26.480293    5.768050    0.502475
     59          1           0      -27.034582    6.020663   -1.059432
     60          1           0      -31.721157    6.884910    0.885601
     61          1           0      -31.635398    6.142112   -0.734140
     62          1           0      -31.130079    7.778109   -0.424264
     63          1           0      -34.304548    3.162093   -0.323414
     64          1           0      -34.928382    1.036221    1.752628
     65          1           0      -35.170477    4.327252    1.392222
     66          1           0      -33.768376    4.007948    2.451306
     67          1           0      -35.117302    2.970795    2.528733
     68          1           0      -35.171097   -0.190266   -0.739441
     69          1           0      -35.746197    1.514604   -1.031949
     70          1           0      -37.425141   -0.335791   -0.629355
     71          1           0      -37.668002    1.273700    0.038828
     72          1           0      -37.243338   -0.096366    1.082258
     73          1           0      -32.853234   -5.208893    0.014274
     74          1           0      -34.014411   -3.853665   -0.399481
     75          1           0      -33.686535   -4.320634    1.267808
     76          1           0      -28.339701   -4.041319   -1.950461
     77          1           0      -26.805412   -6.292834    2.134545
     78          1           0      -26.035103   -4.703422    2.671747
     79          1           0      -25.499022   -5.490902    1.239664
     80         12           0       30.428145    0.107250   -0.225793
     81          6           0       28.346993   -1.567969    1.995224
     82          6           0       30.074255    2.903868    1.730435
     83          6           0       32.276987    1.858715   -2.555826
     84          6           0       30.290818   -2.573526   -2.449565
     85          7           0       29.408970    0.555894    1.693899
     86          6           0       28.716142   -0.283787    2.482032
     87          6           0       28.313883    0.298866    3.856926
     88          6           0       28.676143    1.832034    3.651911
     89          6           0       29.415689    1.811576    2.229260
     90          6           0       27.357022    2.682086    3.709350
     91          6           0       29.203618   -0.459321    4.970377
     92          6           0       28.428348   -1.125260    6.145146
     93          1           0       26.982951   -0.549369    6.366326
     94          7           0       31.044877    2.101418   -0.469894
     95          6           0       30.857835    3.088656    0.519587
     96          6           0       31.641527    4.253293    0.166922
     97          6           0       32.237538    3.999949   -1.074975
     98          6           0       31.933032    2.558209   -1.403963
     99          6           0       31.476133    5.581336    0.919334
    100          6           0       33.088242    4.965557   -1.942039
    101          8           0       33.599608    4.680103   -3.040959
    102          6           0       33.396461    6.364224   -1.380465
    103          7           0       31.088743   -0.320228   -2.249615
    104          6           0       31.909751    0.605313   -2.963017
    105          6           0       32.154608    0.106225   -4.402383
    106          6           0       31.752571   -1.434440   -4.248451
    107          6           0       31.033762   -1.462917   -2.874074
    108          6           0       31.355259    0.955804   -5.376543
    109          6           0       33.033702   -2.370538   -4.226720
    110          6           0       34.269120   -2.191462   -3.280009
    111          7           0       29.474328   -1.657188   -0.303752
    112          6           0       29.481012   -2.665608   -1.272346
    113          6           0       28.669695   -3.749421   -0.821510
    114          6           0       28.244395   -3.399395    0.447295
    115          6           0       28.663717   -2.069823    0.699780
    116          6           0       28.295814   -5.001091   -1.588908
    117          6           0       27.501173   -3.849823    1.556513
    118          8           0       26.864885   -4.851863    1.637378
    119          6           0       27.444147   -2.622083    2.556939
    120          6           0       26.006550   -2.182462    2.592099
    121          8           0       25.589808   -1.180733    2.048998
    122          8           0       25.322331   -3.104714    3.279351
    123          6           0       23.904056   -3.060921    3.020115
    124          1           0       30.035164    3.775554    2.386644
    125          1           0       32.643884    2.487450   -3.368970
    126          1           0       30.228283   -3.417559   -3.140361
    127          1           0       27.270015    0.153407    4.134260
    128          1           0       29.390434    2.234256    4.370685
    129          1           0       27.274445    3.459754    2.949694
    130          1           0       27.472978    3.095109    4.710981
    131          1           0       26.529756    1.973632    3.744828
    132          1           0       29.977135    0.238284    5.290813
    133          1           0       29.751945   -1.243241    4.447397
    134          1           0       29.088983   -0.897923    6.981092
    135          1           0       28.326678   -2.207832    6.074964
    136          1           0       31.200512    6.333735    0.179964
    137          1           0       32.442355    5.891521    1.319470
    138          1           0       30.732307    5.470654    1.707759
    139          1           0       32.470423    6.937552   -1.440151
    140          1           0       34.071743    6.825183   -2.101112
    141          1           0       33.958840    6.268324   -0.452007
    142          1           0       33.237128    0.148036   -4.526289
    143          1           0       31.196065   -1.760283   -5.126474
    144          1           0       31.190880    1.973564   -5.022263
    145          1           0       30.381885    0.505116   -5.568903
    146          1           0       31.898177    1.084246   -6.312717
    147          1           0       33.404007   -2.444486   -5.249269
    148          1           0       32.622056   -3.321570   -3.888710
    149          1           0       34.976911   -1.520583   -3.767098
    150          1           0       34.697101   -3.189063   -3.174661
    151          1           0       34.048926   -1.905695   -2.250944
    152          1           0       29.169806   -5.586598   -1.874821
    153          1           0       27.808753   -4.618141   -2.485461
    154          1           0       27.744302   -5.754618   -1.024902
    155          1           0       27.724722   -2.799028    3.595396
    156          1           0       23.410361   -4.029358    3.097222
    157          1           0       23.494354   -2.522088    2.165887
    158          1           0       23.346600   -2.482513    3.757175
 ---------------------------------------------------------------------

 SCF Done:  E(RPBE1PBE) =  -4067.36606302     A.U. after   16 cycles

 Excitation energies and oscillator strengths:

 Excited State   1:      Singlet-A      1.6938 eV  731.99 nm  f=0.0000  <S**2>=0.000
     312 -> 313        0.70711
 This state for optimization and/or second-order correction.
 Total Energy, E(TD-HF/TD-DFT) =  -4067.30381706
 Copying the excited state density for this state as the 1-particle RhoCI density.

 Excited State   2:      Singlet-A      1.8555 eV  668.19 nm  f=0.3579  <S**2>=0.000
     310 -> 316        0.16976
     312 -> 314        0.69298
     312 <- 314       -0.10773

 Excited State   3:      Singlet-A      1.8584 eV  667.14 nm  f=0.3783  <S**2>=0.000
     309 -> 315       -0.17007
     311 -> 313        0.69168
     311 <- 313       -0.10670

 Excited State   4:      Singlet-A      2.1844 eV  567.59 nm  f=0.1537  <S**2>=0.000
     309 -> 313        0.65883
     311 -> 315        0.23361

 Excited State   5:      Singlet-A      2.2576 eV  549.19 nm  f=0.0000  <S**2>=0.000
     310 -> 313        0.70711

 The electronic state is 1-A.
 Alpha  occ. eigenvalues --  -46.93867 -46.91469 -19.26689 -19.25831 -19.20174
 Alpha  occ. eigenvalues --  -19.20148 -19.19343 -19.19167 -19.18992 -19.18798
 Alpha  occ. eigenvalues --  -14.42961 -14.41706 -14.41554 -14.40931 -14.39638
 Alpha  occ. eigenvalues --  -14.39635 -14.39312 -14.38642 -10.36207 -10.36206
 Alpha  occ. eigenvalues --  -10.32435 -10.32249 -10.31737 -10.31542 -10.30684
 Alpha  occ. eigenvalues --  -10.29552 -10.29515 -10.29251 -10.29184 -10.28780
 Alpha  occ. eigenvalues --  -10.28775 -10.28496 -10.28230 -10.28213 -10.28204
 Alpha  occ. eigenvalues --  -10.27816 -10.27732 -10.27668 -10.27618 -10.27560
 Alpha  occ. eigenvalues --  -10.27369 -10.27239 -10.27194 -10.27014 -10.26517
 Alpha  occ. eigenvalues --  -10.26496 -10.26371 -10.26331 -10.26296 -10.26286
 Alpha  occ. eigenvalues --  -10.26264 -10.26223 -10.26103 -10.25778 -10.25682
 Alpha  occ. eigenvalues --  -10.25660 -10.25625 -10.25611 -10.25580 -10.25530
 Alpha  occ. eigenvalues --  -10.25328 -10.25250 -10.25142 -10.25125 -10.24914
 Alpha  occ. eigenvalues --  -10.24748 -10.24721 -10.24709 -10.24388 -10.24279
 Alpha  occ. eigenvalues --  -10.24256 -10.24147 -10.24133 -10.23837 -10.23698
 Alpha  occ. eigenvalues --  -10.23672 -10.23506 -10.23396 -10.23332 -10.23190
 Alpha  occ. eigenvalues --  -10.23003 -10.22965 -10.22915 -10.22777 -10.22637
 Alpha  occ. eigenvalues --  -10.22133  -3.15669  -3.13649  -1.88536  -1.88018
 Alpha  occ. eigenvalues --   -1.87892  -1.86491  -1.86001  -1.85895  -1.12835
 Alpha  occ. eigenvalues --   -1.10351  -1.06576  -1.04763  -1.04638  -1.03776
 Alpha  occ. eigenvalues --   -1.03198  -1.02381  -0.99679  -0.98775  -0.98678
 Alpha  occ. eigenvalues --   -0.97886  -0.97283  -0.97060  -0.96265  -0.95983
 Alpha  occ. eigenvalues --   -0.87051  -0.87008  -0.83780  -0.83640  -0.82930
 Alpha  occ. eigenvalues --   -0.82496  -0.82339  -0.82024  -0.82023  -0.81719
 Alpha  occ. eigenvalues --   -0.81317  -0.80805  -0.80363  -0.79956  -0.78727
 Alpha  occ. eigenvalues --   -0.78222  -0.78181  -0.77621  -0.77157  -0.76529
 Alpha  occ. eigenvalues --   -0.76379  -0.75478  -0.75271  -0.75182  -0.75124
 Alpha  occ. eigenvalues --   -0.74190  -0.72262  -0.72050  -0.71486  -0.71373
 Alpha  occ. eigenvalues --   -0.71191  -0.71005  -0.70524  -0.70091  -0.69870
 Alpha  occ. eigenvalues --   -0.69341  -0.68030  -0.67341  -0.66741  -0.65634
 Alpha  occ. eigenvalues --   -0.63783  -0.63561  -0.63225  -0.63060  -0.62424
 Alpha  occ. eigenvalues --   -0.62309  -0.61540  -0.60859  -0.60255  -0.60080
 Alpha  occ. eigenvalues --   -0.59902  -0.59773  -0.59326  -0.59062  -0.59014
 Alpha  occ. eigenvalues --   -0.58382  -0.57608  -0.56905  -0.54822  -0.54438
 Alpha  occ. eigenvalues --   -0.54395  -0.54028  -0.53916  -0.53691  -0.53533
 Alpha  occ. eigenvalues --   -0.52744  -0.52585  -0.52459  -0.51819  -0.51508
 Alpha  occ. eigenvalues --   -0.51152  -0.50683  -0.50516  -0.50294  -0.50026
 Alpha  occ. eigenvalues --   -0.49501  -0.49356  -0.49023  -0.48515  -0.48490
 Alpha  occ. eigenvalues --   -0.48298  -0.47830  -0.47794  -0.47752  -0.47401
 Alpha  occ. eigenvalues --   -0.47341  -0.47037  -0.47005  -0.46798  -0.46711
 Alpha  occ. eigenvalues --   -0.46509  -0.46368  -0.46201  -0.46145  -0.45961
 Alpha  occ. eigenvalues --   -0.45692  -0.45556  -0.45079  -0.44980  -0.44817
 Alpha  occ. eigenvalues --   -0.44425  -0.44397  -0.44321  -0.44186  -0.44047
 Alpha  occ. eigenvalues --   -0.43812  -0.43652  -0.43547  -0.43520  -0.43360
 Alpha  occ. eigenvalues --   -0.43270  -0.42973  -0.42959  -0.42681  -0.42592
 Alpha  occ. eigenvalues --   -0.42439  -0.42351  -0.42167  -0.41938  -0.41773
 Alpha  occ. eigenvalues --   -0.41681  -0.41462  -0.41347  -0.41338  -0.41020
 Alpha  occ. eigenvalues --   -0.40925  -0.40815  -0.40767  -0.40519  -0.40410
 Alpha  occ. eigenvalues --   -0.40372  -0.40253  -0.40173  -0.39981  -0.39738
 Alpha  occ. eigenvalues --   -0.39657  -0.39494  -0.39455  -0.39324  -0.39229
 Alpha  occ. eigenvalues --   -0.39036  -0.38939  -0.38687  -0.38501  -0.38459
 Alpha  occ. eigenvalues --   -0.38373  -0.38144  -0.37872  -0.37789  -0.37747
 Alpha  occ. eigenvalues --   -0.37549  -0.37476  -0.37294  -0.37241  -0.37046
 Alpha  occ. eigenvalues --   -0.36863  -0.36621  -0.36436  -0.36401  -0.36207
 Alpha  occ. eigenvalues --   -0.36045  -0.35692  -0.35636  -0.35321  -0.35167
 Alpha  occ. eigenvalues --   -0.34964  -0.34675  -0.34485  -0.34416  -0.34081
 Alpha  occ. eigenvalues --   -0.33383  -0.32883  -0.32666  -0.32464  -0.32461
 Alpha  occ. eigenvalues --   -0.32218  -0.32073  -0.31926  -0.31791  -0.31531
 Alpha  occ. eigenvalues --   -0.31194  -0.30943  -0.29790  -0.29598  -0.29367
 Alpha  occ. eigenvalues --   -0.29177  -0.28776  -0.28250  -0.27446  -0.27124
 Alpha  occ. eigenvalues --   -0.26131  -0.26116  -0.25825  -0.25574  -0.25569
 Alpha  occ. eigenvalues --   -0.25459  -0.25155  -0.25037  -0.21588  -0.20672
 Alpha  occ. eigenvalues --   -0.19774  -0.18598
 Alpha virt. eigenvalues --   -0.12154  -0.10994  -0.05873  -0.04910  -0.04151
 Alpha virt. eigenvalues --   -0.03621  -0.02240  -0.01903  -0.00407  -0.00318
 Alpha virt. eigenvalues --    0.00359   0.00558   0.00610   0.01624   0.01764

 Mulliken charges:
               1
     1  Mg  12.000000
     2  C    6.000000
     3  C    6.000000
     4  C    6.000000
     5  C    6.000000
     6  N    7.000000
     7  C    6.000000
     8  C    6.000000
     9  C    6.000000
    10  C    6.000000
    11  C    6.000000
    12  C    6.000000
    13  C    6.000000
    14  H    1.000000
    15  N    7.000000
    16  C    6.000000
    17  C    6.000000
    18  C    6.000000
    19  C    6.000000
    20  C    6.000000
    21  C    6.000000
    22  O    8.000000
    23  C    6.000000
    24  N    7.000000
    25  C    6.000000
    26  C    6.000000
    27  C    6.000000
    28  C    6.000000
    29  C    6.000000
    30  C    6.000000
    31  C    6.000000
    32  N    7.000000
    33  C    6.000000
    34  C    6.000000
    35  C    6.000000
    36  C    6.000000
    37  C    6.000000
    38  C    6.000000
    39  O    8.000000
    40  C    6.000000
    41  C    6.000000
    42  O    8.000000
    43  O    8.000000
    44  C    6.000000
    45  H    1.000000
    46  H    1.000000
    47  H    1.000000
    48  H    1.000000
    49  H    1.000000
    50  H    1.000000
    51  H    1.000000
    52  H    1.000000
    53  H    1.000000
    54  H    1.000000
    55  H    1.000000
    56  H    1.000000
    57  H    1.000000
    58  H    1.000000
    59  H    1.000000
    60  H    1.000000
    61  H    1.000000
    62  H    1.000000
    63  H    1.000000
    64  H    1.000000
    65  H    1.000000
    66  H    1.000000
    67  H    1.000000
    68  H    1.000000
    69  H    1.000000
    70  H    1.000000
    71  H    1.000000
    72  H    1.000000
    73  H    1.000000
    74  H    1.000000
    75  H    1.000000
    76  H    1.000000
    77  H    1.000000
    78  H    1.000000
    79  H    1.000000
    80  Mg  12.000000
    81  C    6.000000
    82  C    6.000000
    83  C    6.000000
    84  C    6.000000
    85  N    7.000000
    86  C    6.000000
    87  C    6.000000
    88  C    6.000000
    89  C    6.000000
    90  C    6.000000
    91  C    6.000000
    92  C    6.000000
    93  H    1.000000
    94  N    7.000000
    95  C    6.000000
    96  C    6.000000
    97  C    6.000000
    98  C    6.000000
    99  C    6.000000
   100  C    6.000000
   101  O    8.000000
   102  C    6.000000
   103  N    7.000000
   104  C    6.000000
   105  C    6.000000
   106  C    6.000000
   107  C    6.000000
   108  C    6.000000
   109  C    6.000000
   110  C    6.000000
   111  N    7.000000
   112  C    6.000000
   113  C    6.000000
   114  C    6.000000
   115  C    6.000000
   116  C    6.000000
   117  C    6.000000
   118  O    8.000000
   119  C    6.000000
   120  C    6.000000
   121  O    8.000000
   122  O    8.000000
   123  C    6.000000
   124  H    1.000000
   125  H    1.000000
   126  H    1.000000
   127  H    1.000000
   128  H    1.000000
   129  H    1.000000
   130  H    1.000000
   131  H    1.000000
   132  H    1.000000
   133  H    1.000000
   134  H    1.000000
   135  H    1.000000
   136  H    1.000000
   137  H    1.000000
   138  H    1.000000
   139  H    1.000000
   140  H    1.000000
   141  H    1.000000
   142  H    1.000000
   143  H    1.000000
   144  H    1.000000
   145  H    1.000000
   146  H    1.000000
   147  H    1.000000
   148  H    1.000000
   149  H    1.000000
   150  H    1.000000
   151  H    1.000000
   152  H    1.000000
   153  H    1.000000
   154  H    1.000000
   155  H    1.000000
   156  H    1.000000
   157  H    1.000000
   158  H    1.000000
 Sum of Mulliken charges = 624.00000

 Dipole moment (field-independent basis, Debye):
    X=             -0.0000    Y=             -0.0000    Z=             -0.0000  Tot=              0.0000
 Quadrupole moment (field-independent basis, Debye-Ang):
   XX=              0.0000   YY=             -0.0000   ZZ=             -0.0000
   XY=              0.0000   XZ=              0.0000   YZ=              0.0000

 Normal termination of Gaussian 16 at Fri Oct 15 08:13:09 2021.
