 Gaussian 16, Revision A.03,
 Gaussian 16:  ES64L-G16RevA.03 25-Dec-2016

 --------------------------------------------------------
 #p PBE1PBE/Def2SVP td=(nstates=5) density=(transition=1)
 --------------------------------------------------------

 --------------------------------
 TDDFT excited states in gaussian
 --------------------------------
 Symbolic Z-matrix:
 Charge =  0 Multiplicity = 1

                         Standard orientation:
 ---------------------------------------------------------------------
 Center     Atomic      Atomic             Coordinates (Angstroms)
 Number     Number       Type             X           Y           Z
 ---------------------------------------------------------------------
      1         12           0      -16.032825    0.394582    0.331867
      2          6           0      -15.579778   -2.397892   -1.804383
      3          6           0      -12.679317    0.902726    0.178917
      4          6           0      -16.585279    3.475068    1.660319
      5          6           0      -19.454581    0.014051   -0.067538
      6          7           0      -14.419236   -0.626479   -0.876575
      7          6           0      -14.399930   -1.791005   -1.597400
      8          6           0      -13.024651   -2.172922   -2.001995
      9          6           0      -12.103452   -1.267329   -1.056493
     10          6           0      -13.094139   -0.267787   -0.565306
     11          6           0      -11.445338   -2.083708    0.044143
     12          6           0      -12.916332   -1.949222   -3.518519
     13          6           0      -12.433226   -3.170878   -4.408508
     14          1           0      -11.214003   -3.040246   -5.370346
     15          7           0      -14.852439    1.983731    0.907927
     16          6           0      -13.453143    1.942911    0.834964
     17          6           0      -12.948256    3.088226    1.530874
     18          6           0      -14.053608    3.897813    1.960280
     19          6           0      -15.237191    3.083188    1.575499
     20          6           0      -11.450394    3.285198    1.725825
     21          6           0      -14.035206    5.231447    2.673259
     22          8           0      -12.875489    5.603429    3.015552
     23          6           0      -15.212570    6.214367    2.929176
     24          7           0      -17.790244    1.612475    0.763425
     25          6           0      -17.748791    2.833081    1.341621
     26          6           0      -19.151128    3.473000    1.519579
     27          6           0      -20.080323    2.296950    1.060040
     28          6           0      -19.019645    1.241080    0.491714
     29          6           0      -19.342137    3.890268    2.966764
     30          6           0      -21.092624    2.649184    0.013165
     31          6           0      -22.514590    2.607879    0.503299
     32          7           0      -17.298154   -0.940624   -0.521398
     33          6           0      -18.692921   -1.048034   -0.591069
     34          6           0      -19.092099   -2.262601   -1.092622
     35          6           0      -17.897466   -2.852646   -1.553404
     36          6           0      -16.855922   -1.977695   -1.253283
     37          6           0      -20.505803   -2.793307   -0.982424
     38          6           0      -17.338017   -4.092682   -2.154126
     39          8           0      -17.899050   -5.091095   -2.484117
     40          6           0      -15.823186   -3.723764   -2.380981
     41          6           0      -15.012966   -4.952763   -2.030627
     42          8           0      -14.497224   -5.709052   -2.853721
     43          8           0      -14.889939   -5.076862   -0.625382
     44          6           0      -14.009940   -6.178961   -0.237810
     45          1           0      -11.597730    0.952221    0.322720
     46          1           0      -16.809598    4.412733    2.174237
     47          1           0      -20.485641   -0.052018   -0.419288
     48          1           0      -12.865878   -3.230803   -1.792376
     49          1           0      -11.315695   -0.830251   -1.669510
     50          1           0      -12.089058   -2.867103    0.441803
     51          1           0      -11.261142   -1.425281    0.893708
     52          1           0      -10.474226   -2.493718   -0.233132
     53          1           0      -12.228293   -1.117479   -3.669175
     54          1           0      -13.823396   -1.548175   -3.970737
     55          1           0      -13.328952   -3.327069   -5.010216
     56          1           0      -12.397691   -4.086470   -3.819320
     57          1           0      -10.915457    3.184840    0.781423
     58          1           0      -11.124155    2.479898    2.383866
     59          1           0      -11.110929    4.264107    2.067130
     60          1           0      -15.818657    5.687054    3.665167
     61          1           0      -15.758465    6.351576    1.995684
     62          1           0      -14.874707    7.192396    3.272859
     63          1           0      -19.311547    4.367225    0.917840
     64          1           0      -20.506304    1.799075    1.930731
     65          1           0      -18.477250    4.488141    3.254696
     66          1           0      -19.388232    2.987197    3.576245
     67          1           0      -20.265820    4.385697    3.263460
     68          1           0      -21.091989    1.972221   -0.841134
     69          1           0      -20.980966    3.619363   -0.470570
     70          1           0      -22.971948    3.571477    0.282201
     71          1           0      -22.585522    2.512544    1.586804
     72          1           0      -23.101174    1.779119    0.105412
     73          1           0      -20.436037   -3.868282   -1.151835
     74          1           0      -21.172899   -2.350753   -1.721790
     75          1           0      -20.820227   -2.531666    0.027667
     76          1           0      -15.763899   -3.688695   -3.469417
     77          1           0      -13.557817   -5.982842    0.734510
     78          1           0      -13.135265   -6.235416   -0.884220
     79          1           0      -14.506618   -7.149452   -0.255592
     80         12           0       16.156036    0.670845   -0.359523
     81          6           0       15.695791   -2.122460    1.875525
     82          6           0       13.193477    1.991443    0.973364
     83          6           0       16.618799    3.278962   -2.299489
     84          6           0       18.906446   -0.965948   -1.765682
     85          7           0       14.610190   -0.067504    1.265930
     86          6           0       14.748972   -1.084304    2.157056
     87          6           0       13.756854   -0.975988    3.303536
     88          6           0       12.712197    0.173594    2.811318
     89          6           0       13.523694    0.722804    1.602525
     90          6           0       11.277790   -0.329952    2.512800
     91          6           0       14.446187   -0.648174    4.670994
     92          6           0       14.151899   -1.681752    5.788931
     93          1           0       13.316904   -1.064402    7.053115
     94          7           0       15.093669    2.346179   -0.612263
     95          6           0       13.855511    2.764671   -0.017298
     96          6           0       13.398521    4.095348   -0.483110
     97          6           0       14.449324    4.459116   -1.387545
     98          6           0       15.427520    3.360552   -1.455919
     99          6           0       12.103011    4.781867   -0.045710
    100          6           0       14.555733    5.668277   -2.236566
    101          8           0       15.568617    6.049263   -2.813343
    102          6           0       13.339136    6.612416   -2.301401
    103          7           0       17.640890    1.141550   -1.668602
    104          6           0       17.604239    2.284263   -2.391371
    105          6           0       18.609222    2.304405   -3.509373
    106          6           0       19.395136    0.980529   -3.342934
    107          6           0       18.658215    0.337857   -2.146273
    108          6           0       18.023854    2.552031   -4.883840
    109          6           0       20.965031    1.282295   -2.974921
    110          6           0       22.063219    0.573624   -3.939306
    111          7           0       16.976722   -1.285988   -0.223668
    112          6           0       18.169072   -1.752139   -0.828029
    113          6           0       18.460497   -3.078834   -0.272967
    114          6           0       17.600147   -3.158355    0.853601
    115          6           0       16.662216   -2.128732    0.763397
    116          6           0       19.483508   -4.121725   -0.713037
    117          6           0       17.157691   -4.122922    1.899840
    118          8           0       17.493305   -5.289013    2.247748
    119          6           0       15.984131   -3.389596    2.657389
    120          6           0       14.802048   -4.312077    2.707879
    121          8           0       14.412625   -4.962713    1.779756
    122          8           0       14.328630   -4.378517    3.988857
    123          6           0       13.391852   -5.512692    4.190469
    124          1           0       12.202925    2.290896    1.321470
    125          1           0       16.826954    4.114908   -2.970989
    126          1           0       19.784056   -1.479535   -2.163183
    127          1           0       13.221824   -1.925386    3.327013
    128          1           0       12.641411    1.002744    3.515819
    129          1           0       11.042616   -0.226793    1.453077
    130          1           0       10.549012    0.219928    3.109715
    131          1           0       11.061128   -1.355056    2.813430
    132          1           0       14.129571    0.319611    5.060766
    133          1           0       15.532048   -0.618992    4.576840
    134          1           0       15.047595   -2.003626    6.320820
    135          1           0       13.702205   -2.615228    5.452018
    136          1           0       11.629647    4.414041    0.865185
    137          1           0       11.325426    4.845406   -0.806844
    138          1           0       12.391260    5.813565    0.158321
    139          1           0       12.477306    6.092594   -2.719804
    140          1           0       13.553574    7.528162   -2.853368
    141          1           0       13.099507    6.915744   -1.282262
    142          1           0       19.245989    3.179209   -3.370891
    143          1           0       19.288219    0.343857   -4.220687
    144          1           0       18.246020    3.543710   -5.278897
    145          1           0       16.935262    2.530712   -4.933647
    146          1           0       18.396295    1.773924   -5.550447
    147          1           0       21.244873    0.997391   -1.961237
    148          1           0       21.207765    2.343524   -3.022657
    149          1           0       21.532029    0.344901   -4.863434
    150          1           0       22.478665   -0.328192   -3.487721
    151          1           0       22.828716    1.281306   -4.256513
    152          1           0       19.859251   -4.708904    0.124674
    153          1           0       20.368927   -3.582885   -1.052361
    154          1           0       18.993510   -4.616692   -1.551618
    155          1           0       16.321151   -3.288096    3.688686
    156          1           0       12.609743   -5.424649    3.436621
    157          1           0       12.927136   -5.287381    5.150227
    158          1           0       13.766610   -6.533355    4.114118
 ---------------------------------------------------------------------

 SCF Done:  E(RPBE1PBE) =  -4067.36685160     A.U. after   16 cycles

 Excitation energies and oscillator strengths:

 Excited State   1:      Singlet-A      1.8270 eV  678.62 nm  f=0.3527  <S**2>=0.000
     310 -> 316       -0.18247
     312 -> 314        0.69029
     312 <- 314       -0.10648
 This state for optimization and/or second-order correction.
 Total Energy, E(TD-HF/TD-DFT) =  -4067.29971020
 Copying the excited state density for this state as the 1-particle RhoCI density.

 Excited State   2:      Singlet-A      1.8287 eV  677.99 nm  f=0.0000  <S**2>=0.000
     312 -> 313        0.70710

 Excited State   3:      Singlet-A      1.8485 eV  670.72 nm  f=0.3455  <S**2>=0.000
     309 -> 315       -0.16614
     311 -> 313        0.69306
     311 <- 313       -0.11240

 Excited State   4:      Singlet-A      2.0431 eV  606.85 nm  f=0.0000  <S**2>=0.000
     311 -> 314        0.70710

 Excited State   5:      Singlet-A      2.1728 eV  570.62 nm  f=0.1315  <S**2>=0.000
     310 -> 314        0.65737
     312 -> 316        0.25563

 The electronic state is 1-A.
 Alpha  occ. eigenvalues --  -46.92463 -46.91972 -19.26333 -19.26302 -19.21308
 Alpha  occ. eigenvalues --  -19.20145 -19.19966 -19.19064 -19.19040 -19.18576
 Alpha  occ. eigenvalues --  -14.41977 -14.41960 -14.41734 -14.41595 -14.40312
 Alpha  occ. eigenvalues --  -14.39757 -14.39018 -14.38778 -10.37463 -10.35851
 Alpha  occ. eigenvalues --  -10.32890 -10.32724 -10.32435 -10.32116 -10.29734
 Alpha  occ. eigenvalues --  -10.29454 -10.29156 -10.29096 -10.29088 -10.29046
 Alpha  occ. eigenvalues --  -10.28960 -10.28944 -10.28696 -10.28584 -10.28487
 Alpha  occ. eigenvalues --  -10.28352 -10.28333 -10.28332 -10.28092 -10.27945
 Alpha  occ. eigenvalues --  -10.26878 -10.26852 -10.26842 -10.26804 -10.26700
 Alpha  occ. eigenvalues --  -10.26453 -10.26432 -10.26402 -10.26381 -10.26236
 Alpha  occ. eigenvalues --  -10.26234 -10.26174 -10.26079 -10.26068 -10.26013
 Alpha  occ. eigenvalues --  -10.25922 -10.25865 -10.25800 -10.25681 -10.25615
 Alpha  occ. eigenvalues --  -10.25486 -10.25470 -10.25350 -10.25089 -10.25007
 Alpha  occ. eigenvalues --  -10.24972 -10.24945 -10.24721 -10.24698 -10.24672
 Alpha  occ. eigenvalues --  -10.24556 -10.24399 -10.24112 -10.24007 -10.24006
 Alpha  occ. eigenvalues --  -10.23917 -10.23813 -10.23687 -10.23611 -10.23437
 Alpha  occ. eigenvalues --  -10.23219 -10.23092 -10.22997 -10.22950 -10.22866
 Alpha  occ. eigenvalues --  -10.22662  -3.14606  -3.14192  -1.87426  -1.87030
 Alpha  occ. eigenvalues --   -1.86985  -1.86834  -1.86566  -1.86436  -1.11734
 Alpha  occ. eigenvalues --   -1.10389  -1.06902  -1.04568  -1.03517  -1.02846
 Alpha  occ. eigenvalues --   -1.02369  -1.01900  -0.99930  -0.99001  -0.98663
 Alpha  occ. eigenvalues --   -0.98046  -0.97859  -0.97457  -0.97257  -0.96634
 Alpha  occ. eigenvalues --   -0.87745  -0.85952  -0.84247  -0.83687  -0.83416
 Alpha  occ. eigenvalues --   -0.82902  -0.82773  -0.82338  -0.82244  -0.81719
 Alpha  occ. eigenvalues --   -0.81466  -0.81246  -0.80292  -0.80088  -0.79154
 Alpha  occ. eigenvalues --   -0.78666  -0.78250  -0.77489  -0.76988  -0.76154
 Alpha  occ. eigenvalues --   -0.76083  -0.75497  -0.75070  -0.75012  -0.74881
 Alpha  occ. eigenvalues --   -0.73979  -0.73265  -0.72196  -0.71800  -0.71480
 Alpha  occ. eigenvalues --   -0.71240  -0.71119  -0.70851  -0.70333  -0.69922
 Alpha  occ. eigenvalues --   -0.69595  -0.68042  -0.67046  -0.66726  -0.65857
 Alpha  occ. eigenvalues --   -0.63833  -0.63496  -0.63426  -0.63165  -0.62174
 Alpha  occ. eigenvalues --   -0.61973  -0.61736  -0.61525  -0.60745  -0.60382
 Alpha  occ. eigenvalues --   -0.60208  -0.60027  -0.59995  -0.59554  -0.59000
 Alpha  occ. eigenvalues --   -0.58569  -0.57733  -0.56960  -0.55290  -0.55130
 Alpha  occ. eigenvalues --   -0.54682  -0.54265  -0.53870  -0.53696  -0.53327
 Alpha  occ. eigenvalues --   -0.52961  -0.52771  -0.52482  -0.51741  -0.51433
 Alpha  occ. eigenvalues --   -0.50887  -0.50699  -0.50391  -0.50265  -0.49883
 Alpha  occ. eigenvalues --   -0.49487  -0.49482  -0.49075  -0.49032  -0.48501
 Alpha  occ. eigenvalues --   -0.48402  -0.48279  -0.47971  -0.47861  -0.47442
 Alpha  occ. eigenvalues --   -0.47285  -0.46904  -0.46888  -0.46665  -0.46571
 Alpha  occ. eigenvalues --   -0.46284  -0.46258  -0.46055  -0.46005  -0.45783
 Alpha  occ. eigenvalues --   -0.45575  -0.45466  -0.45201  -0.45092  -0.44891
 Alpha  occ. eigenvalues --   -0.44725  -0.44710  -0.44550  -0.44544  -0.44368
 Alpha  occ. eigenvalues --   -0.44330  -0.43907  -0.43730  -0.43639  -0.43348
 Alpha  occ. eigenvalues --   -0.43281  -0.43056  -0.42960  -0.42805  -0.42702
 Alpha  occ. eigenvalues --   -0.42646  -0.42472  -0.42277  -0.42074  -0.41941
 Alpha  occ. eigenvalues --   -0.41705  -0.41682  -0.41585  -0.41379  -0.41224
 Alpha  occ. eigenvalues --   -0.41221  -0.40936  -0.40873  -0.40730  -0.40705
 Alpha  occ. eigenvalues --   -0.40530  -0.40338  -0.40260  -0.40132  -0.39997
 Alpha  occ. eigenvalues --   -0.39749  -0.39732  -0.39651  -0.39523  -0.39250
 Alpha  occ. eigenvalues --   -0.38995  -0.38905  -0.38753  -0.38734  -0.38537
 Alpha  occ. eigenvalues --   -0.38465  -0.38189  -0.38111  -0.37698  -0.37620
 Alpha  occ. eigenvalues --   -0.37459  -0.37370  -0.37319  -0.37262  -0.37102
 Alpha  occ. eigenvalues --   -0.36952  -0.36772  -0.36615  -0.36455  -0.36402
 Alpha  occ. eigenvalues --   -0.36266  -0.36156  -0.36064  -0.35688  -0.35600
 Alpha  occ. eigenvalues --   -0.35372  -0.35142  -0.35103  -0.34470  -0.34099
 Alpha  occ. eigenvalues --   -0.33810  -0.33574  -0.33253  -0.33252  -0.32819
 Alpha  occ. eigenvalues --   -0.32517  -0.32440  -0.32258  -0.32245  -0.31504
 Alpha  occ. eigenvalues --   -0.31457  -0.30649  -0.30348  -0.29904  -0.29760
 Alpha  occ. eigenvalues --   -0.29372  -0.28904  -0.28590  -0.27472  -0.27141
 Alpha  occ. eigenvalues --   -0.26208  -0.26002  -0.25723  -0.25700  -0.25569
 Alpha  occ. eigenvalues --   -0.25538  -0.25155  -0.25018  -0.21429  -0.20850
 Alpha  occ. eigenvalues --   -0.19326  -0.18927
 Alpha virt. eigenvalues --   -0.11795  -0.11404  -0.05418  -0.05322  -0.04076
 Alpha virt. eigenvalues --   -0.04035  -0.02382  -0.02164  -0.01005  -0.00516
 Alpha virt. eigenvalues --   -0.00012   0.00670   0.00693   0.01002   0.01283

 Mulliken charges:
               1
     1  Mg  12.000114
     2  C    5.998801
     3  C    5.999536
     4  C    6.001768
     5  C    6.001149
     6  N    6.998487
     7  C    6.001434
     8  C    5.999514
     9  C    6.000871
    10  C    5.998670
    11  C    6.000245
    12  C    5.999769
    13  C    6.000027
    14  H    1.000190
    15  N    7.000360
    16  C    5.998079
    17  C    5.998804
    18  C    5.999530
    19  C    5.997776
    20  C    6.000152
    21  C    5.999323
    22  O    7.998713
    23  C    5.999874
    24  N    7.000981
    25  C    5.997994
    26  C    6.000550
    27  C    5.999666
    28  C    6.001050
    29  C    6.000148
    30  C    5.999643
    31  C    5.999882
    32  N    6.999989
    33  C    6.001324
    34  C    6.001631
    35  C    6.000239
    36  C    6.001852
    37  C    6.000077
    38  C    6.001176
    39  O    8.001582
    40  C    6.000046
    41  C    6.000212
    42  O    8.000407
    43  O    7.999875
    44  C    5.999840
    45  H    0.999010
    46  H    0.999919
    47  H    1.000922
    48  H    0.999935
    49  H    0.999577
    50  H    0.999301
    51  H    1.000187
    52  H    0.999360
    53  H    1.000436
    54  H    0.999818
    55  H    0.999813
    56  H    0.999983
    57  H    0.998921
    58  H    0.999007
    59  H    0.999040
    60  H    0.999531
    61  H    0.999473
    62  H    0.999363
    63  H    1.000007
    64  H    1.000162
    65  H    1.000424
    66  H    0.999801
    67  H    0.999744
    68  H    0.999764
    69  H    1.000569
    70  H    1.000413
    71  H    1.000318
    72  H    0.999957
    73  H    1.000845
    74  H    1.001120
    75  H    1.000864
    76  H    1.000307
    77  H    1.000354
    78  H    1.000286
    79  H    1.000118
    80  Mg  11.995921
    81  C    6.024798
    82  C    6.002435
    83  C    5.971047
    84  C    6.002518
    85  N    7.017411
    86  C    5.967815
    87  C    6.009711
    88  C    5.988869
    89  C    6.026993
    90  C    5.997672
    91  C    6.001225
    92  C    6.002095
    93  H    0.993557
    94  N    6.997230
    95  C    6.030350
    96  C    6.024070
    97  C    6.012382
    98  C    6.026366
    99  C    5.996844
   100  C    6.011580
   101  O    8.031165
   102  C    5.996231
   103  N    6.991266
   104  C    6.035702
   105  C    5.991346
   106  C    6.010615
   107  C    5.971400
   108  C    5.999392
   109  C    6.004473
   110  C    6.000713
   111  N    7.002020
   112  C    5.963307
   113  C    5.969754
   114  C    5.997603
   115  C    5.971624
   116  C    5.998503
   117  C    5.988189
   118  O    7.971031
   119  C    5.996429
   120  C    5.993077
   121  O    7.999974
   122  O    7.998228
   123  C    6.001595
   124  H    1.013154
   125  H    1.001544
   126  H    0.987677
   127  H    1.002482
   128  H    1.000833
   129  H    0.999449
   130  H    1.003393
   131  H    1.012789
   132  H    0.992038
   133  H    1.004518
   134  H    1.002912
   135  H    1.001855
   136  H    1.014615
   137  H    1.018170
   138  H    1.014724
   139  H    1.007323
   140  H    1.013614
   141  H    1.005046
   142  H    0.998278
   143  H    0.996646
   144  H    0.997347
   145  H    0.994624
   146  H    1.008633
   147  H    1.000798
   148  H    0.988434
   149  H    0.996294
   150  H    1.002501
   151  H    0.993988
   152  H    0.986160
   153  H    0.985013
   154  H    0.984185
   155  H    0.995470
   156  H    0.995730
   157  H    0.995298
   158  H    0.999934
 Sum of Mulliken charges = 624.00000

 Dipole moment (field-independent basis, Debye):
    X=             -6.2795    Y=              7.8586    Z=             -0.7854  Tot=             10.0899
 Quadrupole moment (field-independent basis, Debye-Ang):
   XX=           -172.2211   YY=              9.6950   ZZ=             -1.6189
   XY=            133.0318   XZ=             -3.2981   YZ=             -3.4873

 Normal termination of Gaussian 16 at Thu Oct 14 23:45:11 2021.
