 Gaussian 16, Revision A.03,
 Gaussian 16:  ES64L-G16RevA.03 25-Dec-2016

 --------------------------------------------------------
 #p PBE1PBE/Def2SVP td=(nstates=5) density=(transition=1)
 --------------------------------------------------------

 --------------------------------
 TDDFT excited states in gaussian
 --------------------------------
 Symbolic Z-matrix:
 Charge =  0 Multiplicity = 1

                         Standard orientation:
 ---------------------------------------------------------------------
 Center     Atomic      Atomic             Coordinates (Angstroms)
 Number     Number       Type             X           Y           Z
 ---------------------------------------------------------------------
      1         12           0       21.124821    0.786766   -0.516312
      2          6           0       21.042475   -2.745509    0.474581
      3          6           0       17.947529    0.938380    0.848061
      4          6           0       21.535172    3.945880   -0.369756
      5          6           0       24.559095    0.181206   -1.382816
      6          7           0       19.703869   -0.807848    0.705521
      7          6           0       19.870077   -2.150495    0.966162
      8          6           0       18.665041   -2.665006    1.835609
      9          6           0       17.592806   -1.570597    1.694945
     10          6           0       18.449297   -0.415056    1.050723
     11          6           0       16.327063   -1.861669    0.786069
     12          6           0       19.056468   -3.011810    3.312903
     13          6           0       18.402946   -4.238677    3.911667
     14          1           0       17.213274   -3.992455    4.891778
     15          7           0       19.895597    2.243047    0.018069
     16          6           0       18.600389    2.152520    0.450234
     17          6           0       18.052486    3.515377    0.691515
     18          6           0       19.120063    4.388173    0.355706
     19          6           0       20.255712    3.531483    0.023556
     20          6           0       16.669997    3.872945    1.261240
     21          6           0       19.207535    5.905032    0.547069
     22          8           0       18.197840    6.479721    0.945009
     23          6           0       20.345641    6.689535    0.270557
     24          7           0       22.936000    1.888476   -0.585431
     25          6           0       22.710317    3.240711   -0.749859
     26          6           0       24.068904    3.912722   -1.187986
     27          6           0       25.086251    2.715917   -1.197591
     28          6           0       24.111621    1.514818   -1.148994
     29          6           0       24.029991    4.700458   -2.526262
     30          6           0       26.209557    2.658413   -0.085295
     31          6           0       27.457988    3.538129   -0.271779
     32          7           0       22.574596   -0.888731   -0.544303
     33          6           0       23.859522   -0.977434   -1.041368
     34          6           0       24.328195   -2.341473   -1.080792
     35          6           0       23.231719   -3.083119   -0.501066
     36          6           0       22.172346   -2.188943   -0.116603
     37          6           0       25.692855   -2.749554   -1.543556
     38          6           0       22.849261   -4.360174   -0.092208
     39          8           0       23.485449   -5.402039   -0.008882
     40          6           0       21.498864   -4.206147    0.665695
     41          6           0       20.555645   -5.147595   -0.046195
     42          8           0       19.840622   -5.964476    0.539499
     43          8           0       20.410358   -4.924516   -1.474531
     44          6           0       19.241695   -5.605587   -2.029410
     45          1           0       16.917661    1.000118    1.204469
     46          1           0       21.764237    4.999414   -0.543083
     47          1           0       25.584122    0.145227   -1.757391
     48          1           0       18.201725   -3.506127    1.317928
     49          1           0       17.276974   -1.185587    2.664536
     50          1           0       15.512384   -2.016031    1.493266
     51          1           0       16.445978   -2.791957    0.231376
     52          1           0       16.102912   -1.105136    0.034133
     53          1           0       18.751046   -2.269387    4.050657
     54          1           0       20.128901   -3.193047    3.387762
     55          1           0       19.200052   -4.839652    4.349371
     56          1           0       17.986104   -4.821369    3.089579
     57          1           0       16.267260    4.739042    0.735420
     58          1           0       16.860807    4.036810    2.321761
     59          1           0       15.956505    3.067946    1.090483
     60          1           0       20.515330    6.668309   -0.806417
     61          1           0       21.233588    6.428383    0.846359
     62          1           0       20.035799    7.649056    0.686001
     63          1           0       24.453167    4.634282   -0.467798
     64          1           0       25.573978    2.617653   -2.167117
     65          1           0       24.794932    4.237863   -3.150092
     66          1           0       24.293021    5.737335   -2.319307
     67          1           0       23.003570    4.565353   -2.869491
     68          1           0       26.508646    1.609741   -0.086268
     69          1           0       25.823041    2.994940    0.876937
     70          1           0       27.259032    3.960834   -1.257001
     71          1           0       28.353999    2.929818   -0.403173
     72          1           0       27.625545    4.325493    0.462727
     73          1           0       26.386423   -2.190462   -0.916854
     74          1           0       25.926989   -2.416533   -2.554525
     75          1           0       25.926598   -3.788845   -1.312297
     76          1           0       21.660456   -4.581702    1.675931
     77          1           0       19.113442   -4.925598   -2.872442
     78          1           0       18.452224   -5.738074   -1.289655
     79          1           0       19.605499   -6.546321   -2.442834
     80         12           0      -21.758189    0.453457   -0.384723
     81          6           0      -18.835002   -1.487139   -0.097490
     82          6           0      -23.534372   -2.477821    0.204000
     83          6           0      -24.564517    2.236301   -0.190931
     84          6           0      -19.781355    3.283180   -0.026684
     85          7           0      -21.164848   -1.704939    0.170813
     86          6           0      -19.934011   -2.329159    0.113528
     87          6           0      -19.975138   -3.841433    0.047434
     88          6           0      -21.487975   -4.157980    0.120618
     89          6           0      -22.131243   -2.734002    0.185593
     90          6           0      -22.033218   -5.022251   -1.087812
     91          6           0      -19.174699   -4.625374    1.180957
     92          6           0      -19.065496   -3.972863    2.568728
     93          1           0      -19.957353   -4.528101    3.718459
     94          7           0      -23.725298   -0.047195   -0.056807
     95          6           0      -24.261764   -1.293308    0.101737
     96          6           0      -25.727618   -1.204039    0.159014
     97          6           0      -26.053857    0.181672    0.040334
     98          6           0      -24.726844    0.862115   -0.067354
     99          6           0      -26.642440   -2.415292    0.295900
    100          6           0      -27.557970    0.628642    0.166762
    101          8           0      -28.393935   -0.233400    0.399351
    102          6           0      -27.945044    2.165068    0.085445
    103          7           0      -22.101314    2.423429   -0.021604
    104          6           0      -23.371038    2.982679   -0.146040
    105          6           0      -23.290920    4.611315   -0.086407
    106          6           0      -21.694389    4.817656    0.125105
    107          6           0      -21.174709    3.420798    0.009976
    108          6           0      -23.853546    5.287389   -1.371293
    109          6           0      -21.273280    5.487399    1.502912
    110          6           0      -20.336832    6.705459    1.482924
    111          7           0      -19.695878    0.882245   -0.236005
    112          6           0      -19.010437    2.060265   -0.084048
    113          6           0      -17.568668    1.753392    0.025866
    114          6           0      -17.478332    0.341077   -0.099157
    115          6           0      -18.820736   -0.118474   -0.205954
    116          6           0      -16.436730    2.718653    0.244542
    117          6           0      -16.510179   -0.770706   -0.049631
    118          8           0      -15.271233   -0.808577   -0.028666
    119          6           0      -17.381517   -2.001403   -0.252010
    120          6           0      -17.099385   -2.687169   -1.467876
    121          8           0      -17.536229   -2.285169   -2.577322
    122          8           0      -16.328334   -3.844570   -1.241485
    123          6           0      -16.090669   -4.746978   -2.363514
    124          1           0      -24.148180   -3.380582    0.212150
    125          1           0      -25.466891    2.842595   -0.289633
    126          1           0      -19.228618    4.223197    0.022431
    127          1           0      -19.534717   -4.045942   -0.927693
    128          1           0      -21.650863   -4.569227    1.116177
    129          1           0      -22.304415   -6.015346   -0.729710
    130          1           0      -21.218180   -5.072637   -1.810305
    131          1           0      -22.922895   -4.572445   -1.529802
    132          1           0      -18.172247   -4.646398    0.751586
    133          1           0      -19.555034   -5.645136    1.244645
    134          1           0      -19.256175   -2.901053    2.504926
    135          1           0      -18.023916   -4.022325    2.883407
    136          1           0      -27.058167   -2.563647    1.292549
    137          1           0      -26.197139   -3.296966   -0.165203
    138          1           0      -27.504036   -2.324448   -0.365306
    139          1           0      -27.432721    2.572467   -0.786466
    140          1           0      -27.605040    2.634495    1.008174
    141          1           0      -29.014714    2.357782    0.167700
    142          1           0      -23.974909    4.912861    0.706337
    143          1           0      -21.333341    5.386025   -0.732342
    144          1           0      -23.010598    5.474337   -2.036240
    145          1           0      -24.450608    6.173750   -1.156551
    146          1           0      -24.586915    4.684920   -1.907043
    147          1           0      -20.861316    4.689514    2.121618
    148          1           0      -22.241171    5.809698    1.886831
    149          1           0      -19.846700    6.861281    2.444354
    150          1           0      -21.024345    7.519655    1.254878
    151          1           0      -19.619049    6.474968    0.695394
    152          1           0      -16.903174    3.558585    0.758659
    153          1           0      -16.196902    3.026260   -0.773263
    154          1           0      -15.543293    2.293651    0.702920
    155          1           0      -17.110907   -2.599038    0.618172
    156          1           0      -15.496111   -4.367936   -3.194777
    157          1           0      -17.041421   -5.094174   -2.769085
    158          1           0      -15.701682   -5.670974   -1.935391
 ---------------------------------------------------------------------

 SCF Done:  E(RPBE1PBE) =  -4067.31833354     A.U. after   15 cycles

 Excitation energies and oscillator strengths:

 Excited State   1:      Singlet-A      1.8686 eV  663.52 nm  f=0.0000  <S**2>=0.000
     312 -> 313        0.70711
 This state for optimization and/or second-order correction.
 Total Energy, E(TD-HF/TD-DFT) =  -4067.24966486
 Copying the excited state density for this state as the 1-particle RhoCI density.

 Excited State   2:      Singlet-A      1.8693 eV  663.25 nm  f=0.5170  <S**2>=0.000
     310 -> 316        0.15257
     311 -> 313       -0.33658
     312 -> 314        0.60326

 Excited State   3:      Singlet-A      1.8706 eV  662.80 nm  f=0.1934  <S**2>=0.000
     309 -> 315       -0.16698
     311 -> 313        0.59829
     312 -> 314        0.33926

 Excited State   4:      Singlet-A      2.1851 eV  567.40 nm  f=0.0000  <S**2>=0.000
     311 -> 314        0.70710

 Excited State   5:      Singlet-A      2.2322 eV  555.44 nm  f=0.0725  <S**2>=0.000
     308 -> 313       -0.10199
     309 -> 313        0.63198
     311 -> 315        0.29410

 The electronic state is 1-A.
 Alpha  occ. eigenvalues --  -46.94121 -46.92358 -19.26420 -19.24361 -19.20440
 Alpha  occ. eigenvalues --  -19.20316 -19.19802 -19.19476 -19.18915 -19.18166
 Alpha  occ. eigenvalues --  -14.42066 -14.42063 -14.41730 -14.41621 -14.40309
 Alpha  occ. eigenvalues --  -14.39536 -14.39025 -14.38894 -10.36980 -10.36443
 Alpha  occ. eigenvalues --  -10.33649 -10.32544 -10.31956 -10.30687 -10.29912
 Alpha  occ. eigenvalues --  -10.29565 -10.29541 -10.29449 -10.29319 -10.29086
 Alpha  occ. eigenvalues --  -10.29059 -10.28853 -10.28770 -10.28465 -10.28446
 Alpha  occ. eigenvalues --  -10.28445 -10.27985 -10.27973 -10.27454 -10.27229
 Alpha  occ. eigenvalues --  -10.27160 -10.27133 -10.27114 -10.26659 -10.26645
 Alpha  occ. eigenvalues --  -10.26630 -10.26499 -10.26250 -10.26222 -10.26182
 Alpha  occ. eigenvalues --  -10.26125 -10.26106 -10.26105 -10.25987 -10.25951
 Alpha  occ. eigenvalues --  -10.25950 -10.25940 -10.25913 -10.25799 -10.25487
 Alpha  occ. eigenvalues --  -10.25383 -10.25181 -10.25054 -10.25032 -10.25025
 Alpha  occ. eigenvalues --  -10.24664 -10.24638 -10.24513 -10.24488 -10.24436
 Alpha  occ. eigenvalues --  -10.24421 -10.24412 -10.24392 -10.24272 -10.24263
 Alpha  occ. eigenvalues --  -10.24086 -10.24070 -10.23936 -10.23737 -10.23541
 Alpha  occ. eigenvalues --  -10.23495 -10.23399 -10.23291 -10.23066 -10.23033
 Alpha  occ. eigenvalues --  -10.22848  -3.16114  -3.14559  -1.88895  -1.88539
 Alpha  occ. eigenvalues --   -1.88300  -1.87357  -1.86950  -1.86786  -1.09686
 Alpha  occ. eigenvalues --   -1.08653  -1.05121  -1.05090  -1.03825  -1.03781
 Alpha  occ. eigenvalues --   -1.01783  -1.01165  -0.99550  -0.98868  -0.98188
 Alpha  occ. eigenvalues --   -0.97990  -0.97880  -0.97229  -0.96497  -0.95825
 Alpha  occ. eigenvalues --   -0.87531  -0.87299  -0.83494  -0.83237  -0.83183
 Alpha  occ. eigenvalues --   -0.83100  -0.82759  -0.82347  -0.81255  -0.81139
 Alpha  occ. eigenvalues --   -0.81106  -0.80460  -0.80334  -0.79819  -0.79220
 Alpha  occ. eigenvalues --   -0.78835  -0.78181  -0.78107  -0.77912  -0.77066
 Alpha  occ. eigenvalues --   -0.76819  -0.75870  -0.75516  -0.75243  -0.74431
 Alpha  occ. eigenvalues --   -0.74220  -0.72531  -0.72500  -0.71655  -0.71513
 Alpha  occ. eigenvalues --   -0.71301  -0.71016  -0.70846  -0.70121  -0.69597
 Alpha  occ. eigenvalues --   -0.69282  -0.67326  -0.66821  -0.66368  -0.66199
 Alpha  occ. eigenvalues --   -0.63656  -0.63490  -0.63348  -0.63030  -0.62845
 Alpha  occ. eigenvalues --   -0.62141  -0.61366  -0.61245  -0.60210  -0.59997
 Alpha  occ. eigenvalues --   -0.59822  -0.59690  -0.59460  -0.59119  -0.58747
 Alpha  occ. eigenvalues --   -0.58592  -0.57043  -0.56387  -0.54868  -0.54795
 Alpha  occ. eigenvalues --   -0.54413  -0.54148  -0.53761  -0.53624  -0.53500
 Alpha  occ. eigenvalues --   -0.53233  -0.52355  -0.51837  -0.51783  -0.51532
 Alpha  occ. eigenvalues --   -0.51202  -0.50674  -0.50260  -0.50082  -0.49510
 Alpha  occ. eigenvalues --   -0.49341  -0.48992  -0.48806  -0.48720  -0.48412
 Alpha  occ. eigenvalues --   -0.48401  -0.48285  -0.48103  -0.47836  -0.47616
 Alpha  occ. eigenvalues --   -0.47455  -0.47190  -0.47103  -0.46959  -0.46685
 Alpha  occ. eigenvalues --   -0.46584  -0.46394  -0.46175  -0.45897  -0.45812
 Alpha  occ. eigenvalues --   -0.45579  -0.45488  -0.45228  -0.45187  -0.44953
 Alpha  occ. eigenvalues --   -0.44564  -0.44499  -0.44480  -0.44045  -0.43956
 Alpha  occ. eigenvalues --   -0.43936  -0.43857  -0.43850  -0.43608  -0.43553
 Alpha  occ. eigenvalues --   -0.43290  -0.43233  -0.43022  -0.42939  -0.42852
 Alpha  occ. eigenvalues --   -0.42833  -0.42618  -0.42390  -0.42108  -0.41854
 Alpha  occ. eigenvalues --   -0.41798  -0.41448  -0.41361  -0.41147  -0.41122
 Alpha  occ. eigenvalues --   -0.40996  -0.40950  -0.40895  -0.40589  -0.40571
 Alpha  occ. eigenvalues --   -0.40145  -0.40091  -0.39766  -0.39735  -0.39542
 Alpha  occ. eigenvalues --   -0.39480  -0.39447  -0.39308  -0.39258  -0.39133
 Alpha  occ. eigenvalues --   -0.38941  -0.38924  -0.38715  -0.38712  -0.38467
 Alpha  occ. eigenvalues --   -0.38048  -0.38034  -0.37824  -0.37777  -0.37464
 Alpha  occ. eigenvalues --   -0.37397  -0.37346  -0.37267  -0.37130  -0.37079
 Alpha  occ. eigenvalues --   -0.36912  -0.36830  -0.36722  -0.36517  -0.36351
 Alpha  occ. eigenvalues --   -0.36152  -0.35978  -0.35541  -0.35250  -0.35171
 Alpha  occ. eigenvalues --   -0.35046  -0.34830  -0.34802  -0.34665  -0.34245
 Alpha  occ. eigenvalues --   -0.33866  -0.33790  -0.32868  -0.32617  -0.32544
 Alpha  occ. eigenvalues --   -0.32530  -0.32148  -0.32097  -0.32068  -0.31614
 Alpha  occ. eigenvalues --   -0.31333  -0.30242  -0.29996  -0.29655  -0.29212
 Alpha  occ. eigenvalues --   -0.29082  -0.28869  -0.28397  -0.27095  -0.26909
 Alpha  occ. eigenvalues --   -0.26640  -0.26216  -0.26061  -0.25991  -0.25627
 Alpha  occ. eigenvalues --   -0.25337  -0.25152  -0.24422  -0.21368  -0.21049
 Alpha  occ. eigenvalues --   -0.19095  -0.18496
 Alpha virt. eigenvalues --   -0.11317  -0.10755  -0.06096  -0.05287  -0.04361
 Alpha virt. eigenvalues --   -0.03988  -0.02405  -0.02404  -0.02138  -0.01182
 Alpha virt. eigenvalues --   -0.01044   0.00108   0.00154   0.00805   0.01097

 Mulliken charges:
               1
     1  Mg  12.000000
     2  C    6.000000
     3  C    6.000000
     4  C    6.000000
     5  C    6.000000
     6  N    7.000000
     7  C    6.000000
     8  C    6.000000
     9  C    6.000000
    10  C    6.000000
    11  C    6.000000
    12  C    6.000000
    13  C    6.000000
    14  H    1.000000
    15  N    7.000000
    16  C    6.000000
    17  C    6.000000
    18  C    6.000000
    19  C    6.000000
    20  C    6.000000
    21  C    6.000000
    22  O    8.000000
    23  C    6.000000
    24  N    7.000000
    25  C    6.000000
    26  C    6.000000
    27  C    6.000000
    28  C    6.000000
    29  C    6.000000
    30  C    6.000000
    31  C    6.000000
    32  N    7.000000
    33  C    6.000000
    34  C    6.000000
    35  C    6.000000
    36  C    6.000000
    37  C    6.000000
    38  C    6.000000
    39  O    8.000000
    40  C    6.000000
    41  C    6.000000
    42  O    8.000000
    43  O    8.000000
    44  C    6.000000
    45  H    1.000000
    46  H    1.000000
    47  H    1.000000
    48  H    1.000000
    49  H    1.000000
    50  H    1.000000
    51  H    1.000000
    52  H    1.000000
    53  H    1.000000
    54  H    1.000000
    55  H    1.000000
    56  H    1.000000
    57  H    1.000000
    58  H    1.000000
    59  H    1.000000
    60  H    1.000000
    61  H    1.000000
    62  H    1.000000
    63  H    1.000000
    64  H    1.000000
    65  H    1.000000
    66  H    1.000000
    67  H    1.000000
    68  H    1.000000
    69  H    1.000000
    70  H    1.000000
    71  H    1.000000
    72  H    1.000000
    73  H    1.000000
    74  H    1.000000
    75  H    1.000000
    76  H    1.000000
    77  H    1.000000
    78  H    1.000000
    79  H    1.000000
    80  Mg  12.000000
    81  C    6.000000
    82  C    6.000000
    83  C    6.000000
    84  C    6.000000
    85  N    7.000000
    86  C    6.000000
    87  C    6.000000
    88  C    6.000000
    89  C    6.000000
    90  C    6.000000
    91  C    6.000000
    92  C    6.000000
    93  H    1.000000
    94  N    7.000000
    95  C    6.000000
    96  C    6.000000
    97  C    6.000000
    98  C    6.000000
    99  C    6.000000
   100  C    6.000000
   101  O    8.000000
   102  C    6.000000
   103  N    7.000000
   104  C    6.000000
   105  C    6.000000
   106  C    6.000000
   107  C    6.000000
   108  C    6.000000
   109  C    6.000000
   110  C    6.000000
   111  N    7.000000
   112  C    6.000000
   113  C    6.000000
   114  C    6.000000
   115  C    6.000000
   116  C    6.000000
   117  C    6.000000
   118  O    8.000000
   119  C    6.000000
   120  C    6.000000
   121  O    8.000000
   122  O    8.000000
   123  C    6.000000
   124  H    1.000000
   125  H    1.000000
   126  H    1.000000
   127  H    1.000000
   128  H    1.000000
   129  H    1.000000
   130  H    1.000000
   131  H    1.000000
   132  H    1.000000
   133  H    1.000000
   134  H    1.000000
   135  H    1.000000
   136  H    1.000000
   137  H    1.000000
   138  H    1.000000
   139  H    1.000000
   140  H    1.000000
   141  H    1.000000
   142  H    1.000000
   143  H    1.000000
   144  H    1.000000
   145  H    1.000000
   146  H    1.000000
   147  H    1.000000
   148  H    1.000000
   149  H    1.000000
   150  H    1.000000
   151  H    1.000000
   152  H    1.000000
   153  H    1.000000
   154  H    1.000000
   155  H    1.000000
   156  H    1.000000
   157  H    1.000000
   158  H    1.000000
 Sum of Mulliken charges = 624.00000

 Dipole moment (field-independent basis, Debye):
    X=             -0.0000    Y=              0.0000    Z=              0.0000  Tot=              0.0000
 Quadrupole moment (field-independent basis, Debye-Ang):
   XX=             -0.0000   YY=              0.0000   ZZ=             -0.0000
   XY=              0.0000   XZ=              0.0000   YZ=              0.0000

 Normal termination of Gaussian 16 at Fri Oct 15 08:29:14 2021.
