 Gaussian 16, Revision A.03,
 Gaussian 16:  ES64L-G16RevA.03 25-Dec-2016

 --------------------------------------------------------
 #p PBE1PBE/Def2SVP td=(nstates=5) density=(transition=1)
 --------------------------------------------------------

 --------------------------------
 TDDFT excited states in gaussian
 --------------------------------
 Symbolic Z-matrix:
 Charge =  0 Multiplicity = 1

                         Standard orientation:
 ---------------------------------------------------------------------
 Center     Atomic      Atomic             Coordinates (Angstroms)
 Number     Number       Type             X           Y           Z
 ---------------------------------------------------------------------
      1         12           0      -18.278658    0.407579   -0.258523
      2          6           0      -15.925454   -1.957250    0.580454
      3          6           0      -20.393029   -0.665782    2.212253
      4          6           0      -20.570870    2.948811   -1.006395
      5          6           0      -15.939218    2.091152   -2.160840
      6          7           0      -18.000240   -1.025437    1.344672
      7          6           0      -17.044272   -2.041216    1.430742
      8          6           0      -17.294358   -2.944100    2.641333
      9          6           0      -18.767101   -2.564856    2.940027
     10          6           0      -19.087138   -1.262298    2.178421
     11          6           0      -19.752760   -3.730245    2.704591
     12          6           0      -16.323298   -2.647669    3.801304
     13          6           0      -15.733362   -3.884083    4.563535
     14          1           0      -15.432573   -3.684132    5.997576
     15          7           0      -20.189724    0.990027    0.456515
     16          6           0      -20.927832    0.373981    1.408096
     17          6           0      -22.280344    0.842739    1.456941
     18          6           0      -22.408962    1.802710    0.439726
     19          6           0      -21.003546    1.942705   -0.126081
     20          6           0      -23.370947    0.244609    2.347925
     21          6           0      -23.705851    2.597337    0.043624
     22          8           0      -24.739836    2.439688    0.741996
     23          6           0      -23.813720    3.527245   -1.240613
     24          7           0      -18.162629    2.421786   -1.183886
     25          6           0      -19.257493    3.163548   -1.480145
     26          6           0      -18.966346    4.279130   -2.450844
     27          6           0      -17.478541    4.059892   -2.800342
     28          6           0      -17.166591    2.765015   -2.045779
     29          6           0      -19.935850    4.348377   -3.677102
     30          6           0      -16.557167    5.329595   -2.472325
     31          6           0      -16.114221    6.133045   -3.700574
     32          7           0      -16.347046    0.129289   -0.768540
     33          6           0      -15.474288    0.872706   -1.593275
     34          6           0      -14.255089    0.090568   -1.836905
     35          6           0      -14.447588   -1.043484   -1.060238
     36          6           0      -15.655806   -0.887577   -0.361104
     37          6           0      -13.064904    0.404414   -2.670931
     38          6           0      -13.819138   -2.307147   -0.649512
     39          8           0      -12.847726   -2.933818   -1.103707
     40          6           0      -14.781264   -2.981478    0.408828
     41          6           0      -15.283763   -4.333326   -0.079955
     42          8           0      -15.715747   -4.616819   -1.201743
     43          8           0      -15.074913   -5.154424    0.988064
     44          6           0      -15.298480   -6.573622    0.768901
     45          1           0      -21.078502   -1.002608    2.992605
     46          1           0      -21.220716    3.740367   -1.385479
     47          1           0      -15.156714    2.566152   -2.755966
     48          1           0      -17.156183   -3.986879    2.353714
     49          1           0      -18.757980   -2.357445    4.010029
     50          1           0      -19.382051   -4.755245    2.702505
     51          1           0      -20.137849   -3.585126    1.695373
     52          1           0      -20.572281   -3.728199    3.422876
     53          1           0      -16.731857   -1.944204    4.526271
     54          1           0      -15.543359   -2.026826    3.359792
     55          1           0      -14.818190   -4.202639    4.064528
     56          1           0      -16.474453   -4.684416    4.546058
     57          1           0      -24.165559   -0.063487    1.668765
     58          1           0      -23.583962    0.923458    3.173781
     59          1           0      -22.929717   -0.674777    2.732717
     60          1           0      -23.424098    4.499463   -0.941093
     61          1           0      -24.876660    3.606894   -1.467265
     62          1           0      -23.378868    2.960090   -2.064064
     63          1           0      -19.083777    5.223763   -1.919671
     64          1           0      -17.262771    3.728302   -3.815747
     65          1           0      -19.391990    4.487906   -4.610961
     66          1           0      -20.661021    5.157622   -3.593331
     67          1           0      -20.554936    3.452305   -3.690745
     68          1           0      -15.616109    5.050135   -1.998779
     69          1           0      -17.048446    5.966758   -1.737037
     70          1           0      -16.133205    7.198083   -3.468741
     71          1           0      -16.791160    5.936875   -4.531782
     72          1           0      -15.113145    5.885852   -4.053424
     73          1           0      -13.277777    1.329592   -3.206535
     74          1           0      -12.744539   -0.486145   -3.212009
     75          1           0      -12.278798    0.689861   -1.971068
     76          1           0      -14.314384   -3.084551    1.388730
     77          1           0      -16.212362   -6.797398    0.217121
     78          1           0      -15.305060   -7.216494    1.649092
     79          1           0      -14.472483   -6.989706    0.191528
     80         12           0       18.537377    0.585571   -0.111055
     81          6           0       15.495347   -1.214209    0.034721
     82          6           0       19.491572   -1.492331   -2.465842
     83          6           0       21.604570    1.617619    0.566610
     84          6           0       17.459817    2.164237    2.884784
     85          7           0       17.426440   -1.069021   -1.187911
     86          6           0       16.250107   -1.564241   -1.056415
     87          6           0       15.910038   -2.495716   -2.238023
     88          6           0       17.363350   -2.950738   -2.769406
     89          6           0       18.196895   -1.812458   -2.046427
     90          6           0       17.835106   -4.406983   -2.378277
     91          6           0       15.139416   -1.683579   -3.404839
     92          6           0       14.066633   -2.395831   -4.290820
     93          1           0       14.260079   -3.941903   -4.507829
     94          7           0       20.285007    0.283371   -0.987067
     95          6           0       20.449868   -0.615310   -2.030304
     96          6           0       21.890804   -0.574361   -2.464213
     97          6           0       22.504499    0.394337   -1.564842
     98          6           0       21.526769    0.850328   -0.573095
     99          6           0       22.403212   -1.469369   -3.576785
    100          6           0       23.932863    0.891530   -1.601210
    101          8           0       24.422645    1.686259   -0.786765
    102          6           0       24.812001    0.439639   -2.695922
    103          7           0       19.418229    1.859119    1.499635
    104          6           0       20.723106    2.061656    1.525373
    105          6           0       21.074011    3.231343    2.548678
    106          6           0       19.652759    3.363344    3.323083
    107          6           0       18.773170    2.430189    2.495307
    108          6           0       22.315368    2.931668    3.452457
    109          6           0       19.017846    4.786475    3.455870
    110          6           0       18.963797    5.385511    4.837778
    111          7           0       16.742303    0.695326    1.128785
    112          6           0       16.509070    1.393067    2.297181
    113          6           0       15.262648    1.033113    2.832005
    114          6           0       14.851017   -0.019986    1.993355
    115          6           0       15.764183   -0.238942    0.989218
    116          6           0       14.609540    1.552742    4.012105
    117          6           0       13.746630   -0.874915    1.789400
    118          8           0       12.603646   -1.015055    2.303334
    119          6           0       14.247801   -1.881574    0.658696
    120          6           0       13.156117   -2.152922   -0.310293
    121          8           0       12.598154   -1.356156   -1.061935
    122          8           0       12.931292   -3.565723   -0.304660
    123          6           0       11.876855   -4.079214   -1.188329
    124          1           0       19.710834   -2.114087   -3.336847
    125          1           0       22.613000    1.997786    0.738964
    126          1           0       17.105840    2.712445    3.761114
    127          1           0       15.508635   -3.415009   -1.812342
    128          1           0       17.329719   -2.990018   -3.857639
    129          1           0       17.204751   -4.845464   -1.604956
    130          1           0       18.835997   -4.402736   -1.947007
    131          1           0       17.773064   -4.993054   -3.295146
    132          1           0       15.849773   -1.195683   -4.072444
    133          1           0       14.660652   -0.816907   -2.948596
    134          1           0       13.980273   -1.979654   -5.295047
    135          1           0       13.142906   -2.405025   -3.710915
    136          1           0       23.043815   -0.930466   -4.275787
    137          1           0       21.605265   -1.949060   -4.143641
    138          1           0       22.864232   -2.355541   -3.141295
    139          1           0       24.897126   -0.647320   -2.709001
    140          1           0       25.801199    0.883159   -2.582045
    141          1           0       24.511598    0.744411   -3.698408
    142          1           0       21.231808    4.189435    2.053572
    143          1           0       19.657486    2.841885    4.281379
    144          1           0       22.667543    1.913176    3.287926
    145          1           0       21.917234    3.193650    4.432950
    146          1           0       23.050932    3.706398    3.239934
    147          1           0       17.987987    4.714209    3.105503
    148          1           0       19.531491    5.475916    2.785540
    149          1           0       19.564801    4.697185    5.430523
    150          1           0       17.932593    5.320277    5.186787
    151          1           0       19.416036    6.374555    4.899747
    152          1           0       14.604726    2.638015    3.914380
    153          1           0       15.172459    1.477112    4.942475
    154          1           0       13.585103    1.182637    4.056798
    155          1           0       14.555951   -2.808269    1.143879
    156          1           0       11.733778   -5.149457   -1.037019
    157          1           0       12.238046   -4.037519   -2.216069
    158          1           0       10.936518   -3.584309   -0.947866
 ---------------------------------------------------------------------

 SCF Done:  E(RPBE1PBE) =  -4067.36132895     A.U. after   17 cycles

 Excitation energies and oscillator strengths:

 Excited State   1:      Singlet-A      1.8385 eV  674.39 nm  f=0.3595  <S**2>=0.000
     310 -> 316       -0.16802
     312 -> 314        0.69269
     312 <- 314       -0.10469
 This state for optimization and/or second-order correction.
 Total Energy, E(TD-HF/TD-DFT) =  -4067.29376660
 Copying the excited state density for this state as the 1-particle RhoCI density.

 Excited State   2:      Singlet-A      1.9488 eV  636.20 nm  f=0.0000  <S**2>=0.000
     312 -> 313        0.70710

 Excited State   3:      Singlet-A      1.9489 eV  636.19 nm  f=0.3484  <S**2>=0.000
     309 -> 315       -0.20435
     311 -> 313        0.68084

 Excited State   4:      Singlet-A      2.1373 eV  580.10 nm  f=0.0000  <S**2>=0.000
     311 -> 314        0.70710

 Excited State   5:      Singlet-A      2.2124 eV  560.40 nm  f=0.0837  <S**2>=0.000
     309 -> 313        0.64647
     311 -> 315        0.26570

 The electronic state is 1-A.
 Alpha  occ. eigenvalues --  -46.92777 -46.92539 -19.27035 -19.24597 -19.20538
 Alpha  occ. eigenvalues --  -19.20385 -19.19664 -19.19169 -19.18867 -19.18748
 Alpha  occ. eigenvalues --  -14.41958 -14.41643 -14.41600 -14.41138 -14.39682
 Alpha  occ. eigenvalues --  -14.39651 -14.38846 -14.38287 -10.37009 -10.36276
 Alpha  occ. eigenvalues --  -10.33663 -10.32194 -10.32072 -10.31650 -10.29680
 Alpha  occ. eigenvalues --  -10.29264 -10.29232 -10.28973 -10.28970 -10.28688
 Alpha  occ. eigenvalues --  -10.28652 -10.28437 -10.28389 -10.28384 -10.28333
 Alpha  occ. eigenvalues --  -10.28281 -10.28060 -10.27916 -10.27764 -10.27680
 Alpha  occ. eigenvalues --  -10.26820 -10.26498 -10.26474 -10.26336 -10.26306
 Alpha  occ. eigenvalues --  -10.26281 -10.26149 -10.26061 -10.26059 -10.25927
 Alpha  occ. eigenvalues --  -10.25915 -10.25893 -10.25825 -10.25772 -10.25712
 Alpha  occ. eigenvalues --  -10.25680 -10.25664 -10.25478 -10.25470 -10.25414
 Alpha  occ. eigenvalues --  -10.25411 -10.25396 -10.25213 -10.25109 -10.25091
 Alpha  occ. eigenvalues --  -10.24773 -10.24670 -10.24612 -10.24596 -10.24584
 Alpha  occ. eigenvalues --  -10.24175 -10.24152 -10.23955 -10.23881 -10.23847
 Alpha  occ. eigenvalues --  -10.23616 -10.23540 -10.23489 -10.23421 -10.23341
 Alpha  occ. eigenvalues --  -10.23292 -10.23197 -10.23057 -10.22842 -10.22567
 Alpha  occ. eigenvalues --  -10.22377  -3.14814  -3.14650  -1.87657  -1.87456
 Alpha  occ. eigenvalues --   -1.87196  -1.87023  -1.87011  -1.86903  -1.11645
 Alpha  occ. eigenvalues --   -1.08660  -1.04088  -1.03213  -1.03100  -1.02629
 Alpha  occ. eigenvalues --   -1.02021  -1.01520  -1.00423  -0.99848  -0.99385
 Alpha  occ. eigenvalues --   -0.98695  -0.98216  -0.97979  -0.96703  -0.96074
 Alpha  occ. eigenvalues --   -0.87356  -0.85835  -0.83822  -0.83139  -0.83061
 Alpha  occ. eigenvalues --   -0.82930  -0.82927  -0.82182  -0.81894  -0.81731
 Alpha  occ. eigenvalues --   -0.81628  -0.81216  -0.81106  -0.80544  -0.78579
 Alpha  occ. eigenvalues --   -0.78536  -0.78257  -0.78183  -0.76989  -0.76750
 Alpha  occ. eigenvalues --   -0.76215  -0.75775  -0.75752  -0.75283  -0.75004
 Alpha  occ. eigenvalues --   -0.74486  -0.73265  -0.72292  -0.72040  -0.71688
 Alpha  occ. eigenvalues --   -0.71260  -0.70945  -0.70208  -0.70204  -0.69578
 Alpha  occ. eigenvalues --   -0.69566  -0.67693  -0.67167  -0.66733  -0.66110
 Alpha  occ. eigenvalues --   -0.63504  -0.63396  -0.63331  -0.62941  -0.62304
 Alpha  occ. eigenvalues --   -0.62299  -0.61608  -0.61535  -0.60535  -0.60420
 Alpha  occ. eigenvalues --   -0.60081  -0.60014  -0.59633  -0.59393  -0.59147
 Alpha  occ. eigenvalues --   -0.59091  -0.57296  -0.55811  -0.55066  -0.54716
 Alpha  occ. eigenvalues --   -0.54456  -0.54148  -0.53895  -0.53512  -0.53162
 Alpha  occ. eigenvalues --   -0.53021  -0.52307  -0.52306  -0.51864  -0.51729
 Alpha  occ. eigenvalues --   -0.51475  -0.50468  -0.50380  -0.50332  -0.49988
 Alpha  occ. eigenvalues --   -0.49772  -0.49538  -0.48816  -0.48540  -0.48372
 Alpha  occ. eigenvalues --   -0.48080  -0.47914  -0.47810  -0.47725  -0.47527
 Alpha  occ. eigenvalues --   -0.47242  -0.47063  -0.47010  -0.46942  -0.46646
 Alpha  occ. eigenvalues --   -0.46564  -0.46104  -0.46079  -0.45864  -0.45714
 Alpha  occ. eigenvalues --   -0.45704  -0.45516  -0.45490  -0.45438  -0.45054
 Alpha  occ. eigenvalues --   -0.44973  -0.44550  -0.44469  -0.44225  -0.44073
 Alpha  occ. eigenvalues --   -0.43929  -0.43756  -0.43643  -0.43412  -0.43251
 Alpha  occ. eigenvalues --   -0.43170  -0.43029  -0.42817  -0.42732  -0.42638
 Alpha  occ. eigenvalues --   -0.42470  -0.42461  -0.42292  -0.42206  -0.42078
 Alpha  occ. eigenvalues --   -0.42001  -0.41947  -0.41652  -0.41521  -0.41471
 Alpha  occ. eigenvalues --   -0.41260  -0.41115  -0.41057  -0.40880  -0.40662
 Alpha  occ. eigenvalues --   -0.40346  -0.40292  -0.40135  -0.40028  -0.39722
 Alpha  occ. eigenvalues --   -0.39501  -0.39152  -0.38978  -0.38776  -0.38724
 Alpha  occ. eigenvalues --   -0.38707  -0.38648  -0.38531  -0.38389  -0.38256
 Alpha  occ. eigenvalues --   -0.38137  -0.38127  -0.37776  -0.37683  -0.37477
 Alpha  occ. eigenvalues --   -0.37284  -0.37096  -0.36951  -0.36756  -0.36725
 Alpha  occ. eigenvalues --   -0.36462  -0.36458  -0.36364  -0.36040  -0.35953
 Alpha  occ. eigenvalues --   -0.35852  -0.35716  -0.35640  -0.35509  -0.35507
 Alpha  occ. eigenvalues --   -0.35260  -0.34996  -0.34633  -0.34206  -0.33956
 Alpha  occ. eigenvalues --   -0.33611  -0.33486  -0.33330  -0.33075  -0.32865
 Alpha  occ. eigenvalues --   -0.32427  -0.32340  -0.31882  -0.31547  -0.31432
 Alpha  occ. eigenvalues --   -0.31019  -0.30657  -0.30013  -0.29777  -0.29715
 Alpha  occ. eigenvalues --   -0.28940  -0.28774  -0.28630  -0.27407  -0.26920
 Alpha  occ. eigenvalues --   -0.26223  -0.26035  -0.25936  -0.25731  -0.25579
 Alpha  occ. eigenvalues --   -0.25358  -0.25277  -0.25001  -0.21098  -0.21048
 Alpha  occ. eigenvalues --   -0.19300  -0.18690
 Alpha virt. eigenvalues --   -0.11160  -0.11086  -0.06055  -0.05497  -0.04411
 Alpha virt. eigenvalues --   -0.03957  -0.02457  -0.02132  -0.01081  -0.00533
 Alpha virt. eigenvalues --   -0.00013   0.00275   0.00730   0.01166   0.01433

 Mulliken charges:
               1
     1  Mg  11.998983
     2  C    6.026966
     3  C    5.990752
     4  C    5.975641
     5  C    5.999378
     6  N    7.015876
     7  C    5.965394
     8  C    6.007384
     9  C    5.991601
    10  C    6.030285
    11  C    5.997052
    12  C    5.999592
    13  C    6.001347
    14  H    0.996297
    15  N    6.995605
    16  C    6.032739
    17  C    6.020294
    18  C    6.012124
    19  C    6.037358
    20  C    5.998274
    21  C    6.010991
    22  O    8.020877
    23  C    6.001999
    24  N    6.993066
    25  C    6.034855
    26  C    5.989333
    27  C    6.007735
    28  C    5.968323
    29  C    5.999361
    30  C    6.003098
    31  C    6.000566
    32  N    7.000002
    33  C    5.964367
    34  C    5.975936
    35  C    5.996868
    36  C    5.973518
    37  C    6.001777
    38  C    5.982531
    39  O    7.969888
    40  C    5.999469
    41  C    5.994242
    42  O    7.998125
    43  O    7.998196
    44  C    6.001619
    45  H    1.010302
    46  H    1.005334
    47  H    0.987268
    48  H    1.001810
    49  H    1.004989
    50  H    1.012708
    51  H    1.000750
    52  H    0.999208
    53  H    0.991679
    54  H    1.007295
    55  H    1.004723
    56  H    0.996141
    57  H    1.013682
    58  H    1.016171
    59  H    1.014839
    60  H    1.009911
    61  H    1.010585
    62  H    1.008270
    63  H    1.000720
    64  H    1.002461
    65  H    1.009540
    66  H    0.997603
    67  H    0.996561
    68  H    1.003119
    69  H    0.988980
    70  H    0.994732
    71  H    0.994742
    72  H    1.002008
    73  H    0.985284
    74  H    0.984992
    75  H    0.981668
    76  H    0.992618
    77  H    0.995143
    78  H    0.994917
    79  H    0.999563
    80  Mg  12.000003
    81  C    5.999871
    82  C    6.000093
    83  C    6.000116
    84  C    5.999928
    85  N    7.000007
    86  C    6.000262
    87  C    5.999976
    88  C    6.000089
    89  C    5.999742
    90  C    6.000023
    91  C    5.999983
    92  C    5.999984
    93  H    1.000040
    94  N    7.000069
    95  C    5.999783
    96  C    5.999728
    97  C    5.999912
    98  C    5.999751
    99  C    6.000078
   100  C    5.999883
   101  O    7.999721
   102  C    6.000090
   103  N    6.999936
   104  C    5.999762
   105  C    6.000090
   106  C    5.999956
   107  C    6.000207
   108  C    6.000027
   109  C    5.999967
   110  C    6.000013
   111  N    6.999993
   112  C    6.000180
   113  C    6.000309
   114  C    6.000039
   115  C    6.000212
   116  C    5.999918
   117  C    6.000146
   118  O    8.000450
   119  C    5.999995
   120  C    6.000047
   121  O    8.000161
   122  O    7.999974
   123  C    5.999928
   124  H    0.999937
   125  H    0.999858
   126  H    1.000012
   127  H    1.000024
   128  H    0.999978
   129  H    0.999939
   130  H    0.999953
   131  H    0.999971
   132  H    1.000031
   133  H    1.000002
   134  H    1.000070
   135  H    1.000105
   136  H    0.999827
   137  H    0.999881
   138  H    0.999792
   139  H    0.999924
   140  H    0.999807
   141  H    0.999922
   142  H    0.999929
   143  H    0.999946
   144  H    1.000000
   145  H    0.999888
   146  H    0.999927
   147  H    1.000025
   148  H    1.000031
   149  H    0.999976
   150  H    1.000010
   151  H    0.999963
   152  H    1.000153
   153  H    1.000113
   154  H    1.000197
   155  H    1.000047
   156  H    1.000074
   157  H    1.000029
   158  H    1.000215
 Sum of Mulliken charges = 624.00000

 Dipole moment (field-independent basis, Debye):
    X=             -9.5150    Y=              1.4480    Z=              3.2417  Tot=             10.1558
 Quadrupole moment (field-independent basis, Debye-Ang):
   XX=            342.1418   YY=             -2.8664   ZZ=             -0.8906
   XY=            -31.2749   XZ=            -54.9567   YZ=              1.1213

 Normal termination of Gaussian 16 at Fri Oct 15 15:21:50 2021.
