 Gaussian 16, Revision A.03,
 Gaussian 16:  ES64L-G16RevA.03 25-Dec-2016

 --------------------------------------------------------
 #p PBE1PBE/Def2SVP td=(nstates=5) density=(transition=1)
 --------------------------------------------------------

 --------------------------------
 TDDFT excited states in gaussian
 --------------------------------
 Symbolic Z-matrix:
 Charge =  0 Multiplicity = 1

                         Standard orientation:
 ---------------------------------------------------------------------
 Center     Atomic      Atomic             Coordinates (Angstroms)
 Number     Number       Type             X           Y           Z
 ---------------------------------------------------------------------
      1         12           0      -29.739059    0.269099    0.352556
      2          6           0      -28.083729   -2.317837   -1.187400
      3          6           0      -29.572086    2.061706   -2.716370
      4          6           0      -30.865990    3.085963    1.844191
      5          6           0      -29.595911   -1.288033    3.319960
      6          7           0      -28.910039   -0.098586   -1.719564
      7          6           0      -28.262586   -1.251574   -2.074225
      8          6           0      -27.919252   -1.253137   -3.565553
      9          6           0      -28.246140    0.264082   -3.947069
     10          6           0      -28.950137    0.786548   -2.729046
     11          6           0      -26.994233    1.096385   -4.409346
     12          6           0      -28.777362   -2.293948   -4.420034
     13          6           0      -28.166889   -3.170610   -5.486887
     14          1           0      -27.246424   -2.546425   -6.474662
     15          7           0      -30.224450    2.312346   -0.329731
     16          6           0      -30.257337    2.764293   -1.602664
     17          6           0      -30.864711    4.050373   -1.683574
     18          6           0      -31.289674    4.371623   -0.355851
     19          6           0      -30.721613    3.252852    0.454085
     20          6           0      -30.891042    4.747924   -3.005220
     21          6           0      -31.932094    5.650303    0.154252
     22          8           0      -31.997531    5.923581    1.356798
     23          6           0      -32.506694    6.660503   -0.823275
     24          7           0      -30.039047    0.895606    2.365881
     25          6           0      -30.635608    2.068942    2.704140
     26          6           0      -30.990448    2.085602    4.190021
     27          6           0      -30.731888    0.588585    4.609381
     28          6           0      -30.089596    0.016957    3.360837
     29          6           0      -30.379844    3.144778    5.154647
     30          6           0      -31.979023   -0.225935    5.153090
     31          6           0      -32.820738   -1.059595    4.210289
     32          7           0      -28.925299   -1.381308    0.997922
     33          6           0      -29.034953   -2.022320    2.205795
     34          6           0      -28.353953   -3.264761    2.248288
     35          6           0      -27.998994   -3.456802    0.916750
     36          6           0      -28.387938   -2.297671    0.197218
     37          6           0      -28.118050   -4.287797    3.351777
     38          6           0      -27.371919   -4.307936    0.003252
     39          8           0      -26.826089   -5.374126    0.220183
     40          6           0      -27.351853   -3.616721   -1.473418
     41          6           0      -25.959126   -3.460370   -1.874311
     42          8           0      -25.115969   -2.727831   -1.319823
     43          8           0      -25.606457   -4.249158   -2.923734
     44          6           0      -24.182321   -4.431589   -3.225910
     45          1           0      -29.538865    2.476191   -3.725732
     46          1           0      -31.485720    3.862777    2.296446
     47          1           0      -29.853283   -1.956759    4.143097
     48          1           0      -26.881837   -1.570572   -3.678417
     49          1           0      -28.908905    0.322790   -4.810597
     50          1           0      -27.187888    1.448531   -5.421974
     51          1           0      -26.151787    0.416628   -4.280442
     52          1           0      -26.834724    2.033908   -3.875839
     53          1           0      -29.508112   -1.631033   -4.883668
     54          1           0      -29.437378   -2.875831   -3.777556
     55          1           0      -28.945167   -3.751516   -5.981743
     56          1           0      -27.503918   -3.851848   -4.954738
     57          1           0      -31.903856    5.139760   -3.091488
     58          1           0      -30.767019    4.035808   -3.821447
     59          1           0      -30.164947    5.549863   -3.142859
     60          1           0      -33.070690    6.214168   -1.642828
     61          1           0      -31.740709    7.390829   -1.087609
     62          1           0      -33.247825    7.203740   -0.236219
     63          1           0      -32.040369    2.379219    4.186003
     64          1           0      -30.095225    0.501078    5.488980
     65          1           0      -29.666675    2.673066    5.830495
     66          1           0      -31.211632    3.538183    5.738756
     67          1           0      -29.920129    3.895925    4.513294
     68          1           0      -32.638721    0.501545    5.624073
     69          1           0      -31.653894   -0.924769    5.924150
     70          1           0      -33.881133   -0.820370    4.293894
     71          1           0      -32.703939   -2.134433    4.355033
     72          1           0      -32.456033   -0.804823    3.215193
     73          1           0      -28.620414   -3.953383    4.260276
     74          1           0      -27.045388   -4.400583    3.511188
     75          1           0      -28.528855   -5.244023    3.029008
     76          1           0      -27.806895   -4.413857   -2.062021
     77          1           0      -23.958051   -5.346988   -3.773667
     78          1           0      -23.501903   -4.293230   -2.386213
     79          1           0      -23.962978   -3.685398   -3.989735
     80         12           0       29.542003    0.568865   -0.293289
     81          6           0       28.015886   -2.390057    0.649727
     82          6           0       26.551105    2.236273    0.194598
     83          6           0       31.247114    3.476516   -0.474939
     84          6           0       32.556276   -1.258953   -0.397648
     85          7           0       27.575510    0.021830    0.629715
     86          6           0       27.184616   -1.251711    0.730296
     87          6           0       25.718756   -1.320548    1.259637
     88          6           0       25.177764    0.128588    0.845176
     89          6           0       26.514545    0.864685    0.449162
     90          6           0       24.059193    0.071821   -0.223039
     91          6           0       25.707499   -1.473814    2.763564
     92          6           0       24.663293   -2.430903    3.316939
     93          1           0       23.890258   -2.164714    4.663301
     94          7           0       28.891547    2.602254   -0.324744
     95          6           0       27.675957    3.101442   -0.042057
     96          6           0       27.747645    4.518533   -0.193304
     97          6           0       29.071501    4.902815   -0.565617
     98          6           0       29.824139    3.643564   -0.508447
     99          6           0       26.530266    5.366727   -0.163798
    100          6           0       29.519932    6.312745   -0.718671
    101          8           0       28.715917    7.225408   -0.626334
    102          6           0       30.964091    6.658834   -1.061029
    103          7           0       31.697039    1.032477   -0.510972
    104          6           0       32.083247    2.338776   -0.484797
    105          6           0       33.566282    2.447482   -0.338534
    106          6           0       33.974667    0.899058   -0.307425
    107          6           0       32.696347    0.116743   -0.479647
    108          6           0       34.261162    3.299695   -1.416947
    109          6           0       34.817962    0.425366    0.958043
    110          6           0       36.143972   -0.349459    0.773756
    111          7           0       30.180737   -1.374564    0.016294
    112          6           0       31.394354   -1.969062   -0.131883
    113          6           0       31.245700   -3.355704   -0.183437
    114          6           0       29.912552   -3.621179    0.097027
    115          6           0       29.325823   -2.394574    0.282945
    116          6           0       32.417623   -4.362750   -0.373806
    117          6           0       28.947187   -4.605232    0.255679
    118          8           0       29.105334   -5.820602    0.287625
    119          6           0       27.575811   -3.893562    0.688060
    120          6           0       26.557775   -4.068150   -0.284067
    121          8           0       26.385337   -3.527715   -1.379189
    122          8           0       25.688641   -5.020648    0.239013
    123          6           0       24.516437   -5.447133   -0.505902
    124          1           0       25.583031    2.741076    0.193834
    125          1           0       31.928370    4.327263   -0.549101
    126          1           0       33.529209   -1.733383   -0.542520
    127          1           0       25.231807   -2.170431    0.782235
    128          1           0       24.843819    0.735168    1.686361
    129          1           0       23.902276   -0.941848   -0.591231
    130          1           0       24.314689    0.732094   -1.052424
    131          1           0       23.155566    0.480870    0.228302
    132          1           0       25.638554   -0.566233    3.363611
    133          1           0       26.726692   -1.770437    3.011213
    134          1           0       25.131266   -3.414880    3.341492
    135          1           0       23.942449   -2.447444    2.499514
    136          1           0       26.307722    5.500216   -1.222291
    137          1           0       26.714061    6.313783    0.343916
    138          1           0       25.689318    4.893794    0.343507
    139          1           0       31.513067    6.587973   -0.121915
    140          1           0       30.961649    7.722869   -1.296248
    141          1           0       31.344767    6.001572   -1.842711
    142          1           0       33.623216    2.915085    0.643893
    143          1           0       34.676480    0.653880   -1.104596
    144          1           0       34.540603    4.231597   -0.924337
    145          1           0       33.632275    3.476024   -2.290205
    146          1           0       35.186990    2.811650   -1.720533
    147          1           0       34.185553   -0.222978    1.564345
    148          1           0       35.149016    1.256225    1.581471
    149          1           0       35.755644   -1.367826    0.765852
    150          1           0       36.780705   -0.224296    1.648587
    151          1           0       36.671448   -0.314900   -0.179397
    152          1           0       32.987148   -4.406725    0.553651
    153          1           0       33.166376   -4.092939   -1.118822
    154          1           0       32.040413   -5.361702   -0.594434
    155          1           0       27.333937   -4.294431    1.672509
    156          1           0       24.329501   -6.485861   -0.235249
    157          1           0       24.557975   -5.267787   -1.580573
    158          1           0       23.658181   -4.913630   -0.097158
 ---------------------------------------------------------------------

 SCF Done:  E(RPBE1PBE) =  -4067.37931029     A.U. after   16 cycles

 Excitation energies and oscillator strengths:

 Excited State   1:      Singlet-A      1.8605 eV  666.39 nm  f=0.3815  <S**2>=0.000
     309 -> 315       -0.17790
     311 -> 313        0.69231
     311 <- 313       -0.11025
 This state for optimization and/or second-order correction.
 Total Energy, E(TD-HF/TD-DFT) =  -4067.31093654
 Copying the excited state density for this state as the 1-particle RhoCI density.

 Excited State   2:      Singlet-A      1.8776 eV  660.35 nm  f=0.3991  <S**2>=0.000
     310 -> 316       -0.17172
     312 -> 314        0.69334
     312 <- 314       -0.11026

 Excited State   3:      Singlet-A      1.9614 eV  632.11 nm  f=0.0000  <S**2>=0.000
     312 -> 313        0.70711

 Excited State   4:      Singlet-A      2.0451 eV  606.26 nm  f=0.0000  <S**2>=0.000
     311 -> 314        0.70711

 Excited State   5:      Singlet-A      2.2058 eV  562.09 nm  f=0.1670  <S**2>=0.000
     310 -> 314        0.67014
     312 -> 316        0.21435

 The electronic state is 1-A.
 Alpha  occ. eigenvalues --  -46.93059 -46.92507 -19.25696 -19.25258 -19.20335
 Alpha  occ. eigenvalues --  -19.19508 -19.19050 -19.18924 -19.18749 -19.18599
 Alpha  occ. eigenvalues --  -14.41873 -14.41626 -14.41498 -14.41046 -14.39463
 Alpha  occ. eigenvalues --  -14.39181 -14.39154 -14.38874 -10.36512 -10.35919
 Alpha  occ. eigenvalues --  -10.32446 -10.32354 -10.31781 -10.31735 -10.29268
 Alpha  occ. eigenvalues --  -10.29144 -10.29039 -10.28865 -10.28853 -10.28825
 Alpha  occ. eigenvalues --  -10.28768 -10.28621 -10.28530 -10.28201 -10.27790
 Alpha  occ. eigenvalues --  -10.27693 -10.27693 -10.27682 -10.27478 -10.27113
 Alpha  occ. eigenvalues --  -10.26743 -10.26325 -10.26304 -10.26296 -10.26200
 Alpha  occ. eigenvalues --  -10.26144 -10.26116 -10.26062 -10.25997 -10.25981
 Alpha  occ. eigenvalues --  -10.25952 -10.25932 -10.25914 -10.25821 -10.25796
 Alpha  occ. eigenvalues --  -10.25752 -10.25657 -10.25471 -10.25454 -10.25370
 Alpha  occ. eigenvalues --  -10.25357 -10.25145 -10.25142 -10.25068 -10.24619
 Alpha  occ. eigenvalues --  -10.24486 -10.24458 -10.24366 -10.24354 -10.24295
 Alpha  occ. eigenvalues --  -10.24276 -10.23949 -10.23892 -10.23887 -10.23632
 Alpha  occ. eigenvalues --  -10.23553 -10.23406 -10.23352 -10.23348 -10.23304
 Alpha  occ. eigenvalues --  -10.23204 -10.22831 -10.22530 -10.22455 -10.22419
 Alpha  occ. eigenvalues --  -10.22389  -3.14968  -3.14695  -1.87821  -1.87519
 Alpha  occ. eigenvalues --   -1.87337  -1.87183  -1.87030  -1.86968  -1.10616
 Alpha  occ. eigenvalues --   -1.10426  -1.04788  -1.04749  -1.04716  -1.04135
 Alpha  occ. eigenvalues --   -1.02260  -1.00623  -1.00191  -1.00096  -0.99328
 Alpha  occ. eigenvalues --   -0.98783  -0.98705  -0.98478  -0.98134  -0.97306
 Alpha  occ. eigenvalues --   -0.88273  -0.86996  -0.83807  -0.83382  -0.83323
 Alpha  occ. eigenvalues --   -0.82687  -0.82538  -0.82460  -0.82241  -0.82176
 Alpha  occ. eigenvalues --   -0.81696  -0.81237  -0.80741  -0.80552  -0.79713
 Alpha  occ. eigenvalues --   -0.78899  -0.78585  -0.78043  -0.77325  -0.76939
 Alpha  occ. eigenvalues --   -0.76470  -0.76011  -0.75825  -0.75499  -0.75086
 Alpha  occ. eigenvalues --   -0.74610  -0.72672  -0.72520  -0.71928  -0.71805
 Alpha  occ. eigenvalues --   -0.71409  -0.70867  -0.70783  -0.70552  -0.69853
 Alpha  occ. eigenvalues --   -0.69533  -0.68018  -0.67932  -0.66870  -0.65995
 Alpha  occ. eigenvalues --   -0.64324  -0.64025  -0.63660  -0.63654  -0.62566
 Alpha  occ. eigenvalues --   -0.62544  -0.61767  -0.61540  -0.60553  -0.60326
 Alpha  occ. eigenvalues --   -0.60057  -0.60043  -0.59687  -0.59421  -0.59241
 Alpha  occ. eigenvalues --   -0.58772  -0.57234  -0.56848  -0.55051  -0.54728
 Alpha  occ. eigenvalues --   -0.54508  -0.54413  -0.53703  -0.53657  -0.53505
 Alpha  occ. eigenvalues --   -0.52874  -0.52823  -0.52616  -0.52444  -0.51891
 Alpha  occ. eigenvalues --   -0.50939  -0.50854  -0.50653  -0.50092  -0.49870
 Alpha  occ. eigenvalues --   -0.49592  -0.49365  -0.49337  -0.48915  -0.48611
 Alpha  occ. eigenvalues --   -0.48226  -0.47986  -0.47863  -0.47772  -0.47238
 Alpha  occ. eigenvalues --   -0.47163  -0.47127  -0.46902  -0.46762  -0.46718
 Alpha  occ. eigenvalues --   -0.46623  -0.46514  -0.46349  -0.46099  -0.45993
 Alpha  occ. eigenvalues --   -0.45847  -0.45392  -0.45068  -0.45004  -0.44824
 Alpha  occ. eigenvalues --   -0.44720  -0.44534  -0.44471  -0.44243  -0.44155
 Alpha  occ. eigenvalues --   -0.44074  -0.43878  -0.43709  -0.43676  -0.43668
 Alpha  occ. eigenvalues --   -0.43421  -0.43377  -0.43173  -0.43032  -0.42945
 Alpha  occ. eigenvalues --   -0.42817  -0.42533  -0.42203  -0.42139  -0.41823
 Alpha  occ. eigenvalues --   -0.41604  -0.41595  -0.41512  -0.41416  -0.41329
 Alpha  occ. eigenvalues --   -0.41212  -0.40938  -0.40831  -0.40726  -0.40677
 Alpha  occ. eigenvalues --   -0.40616  -0.40525  -0.40227  -0.40103  -0.40087
 Alpha  occ. eigenvalues --   -0.39788  -0.39764  -0.39487  -0.39297  -0.39237
 Alpha  occ. eigenvalues --   -0.38842  -0.38780  -0.38698  -0.38448  -0.38399
 Alpha  occ. eigenvalues --   -0.38262  -0.38208  -0.37975  -0.37966  -0.37785
 Alpha  occ. eigenvalues --   -0.37743  -0.37126  -0.37032  -0.36876  -0.36794
 Alpha  occ. eigenvalues --   -0.36783  -0.36675  -0.36578  -0.36376  -0.36368
 Alpha  occ. eigenvalues --   -0.36189  -0.36007  -0.35875  -0.35471  -0.35203
 Alpha  occ. eigenvalues --   -0.34965  -0.34755  -0.34644  -0.34480  -0.33439
 Alpha  occ. eigenvalues --   -0.33258  -0.33213  -0.33169  -0.32962  -0.32418
 Alpha  occ. eigenvalues --   -0.32328  -0.32240  -0.31674  -0.31144  -0.31118
 Alpha  occ. eigenvalues --   -0.30686  -0.30582  -0.29806  -0.29748  -0.29550
 Alpha  occ. eigenvalues --   -0.29037  -0.28646  -0.28004  -0.27436  -0.26988
 Alpha  occ. eigenvalues --   -0.26541  -0.26413  -0.26127  -0.25917  -0.25557
 Alpha  occ. eigenvalues --   -0.25495  -0.25399  -0.25086  -0.21502  -0.20830
 Alpha  occ. eigenvalues --   -0.19207  -0.19076
 Alpha virt. eigenvalues --   -0.11644  -0.11469  -0.05760  -0.04785  -0.04399
 Alpha virt. eigenvalues --   -0.03942  -0.02096  -0.01933  -0.00977  -0.00419
 Alpha virt. eigenvalues --   -0.00207   0.00155   0.00488   0.01381   0.01813

 Mulliken charges:
               1
     1  Mg  12.000008
     2  C    5.999819
     3  C    6.000107
     4  C    6.000151
     5  C    5.999982
     6  N    6.999910
     7  C    6.000296
     8  C    5.999926
     9  C    6.000101
    10  C    5.999735
    11  C    6.000036
    12  C    5.999970
    13  C    5.999991
    14  H    1.000043
    15  N    7.000032
    16  C    5.999685
    17  C    5.999878
    18  C    5.999867
    19  C    5.999741
    20  C    5.999999
    21  C    5.999879
    22  O    7.999749
    23  C    6.000040
    24  N    7.000152
    25  C    5.999686
    26  C    6.000091
    27  C    5.999902
    28  C    6.000192
    29  C    5.999994
    30  C    5.999978
    31  C    5.999955
    32  N    6.999979
    33  C    6.000239
    34  C    6.000234
    35  C    6.000028
    36  C    6.000194
    37  C    5.999986
    38  C    6.000167
    39  O    8.000235
    40  C    6.000080
    41  C    6.000018
    42  O    8.000043
    43  O    8.000035
    44  C    5.999984
    45  H    0.999880
    46  H    0.999979
    47  H    1.000122
    48  H    0.999984
    49  H    0.999976
    50  H    0.999965
    51  H    0.999887
    52  H    0.999998
    53  H    1.000085
    54  H    0.999970
    55  H    1.000021
    56  H    0.999965
    57  H    0.999870
    58  H    0.999887
    59  H    0.999812
    60  H    0.999952
    61  H    0.999912
    62  H    0.999888
    63  H    1.000021
    64  H    1.000024
    65  H    0.999929
    66  H    0.999987
    67  H    1.000032
    68  H    1.000087
    69  H    1.000006
    70  H    1.000082
    71  H    0.999991
    72  H    1.000009
    73  H    1.000125
    74  H    1.000148
    75  H    1.000148
    76  H    1.000056
    77  H    1.000044
    78  H    1.000004
    79  H    1.000040
    80  Mg  12.002443
    81  C    6.001304
    82  C    5.973995
    83  C    5.992420
    84  C    6.022765
    85  N    6.986425
    86  C    5.981394
    87  C    6.007206
    88  C    5.990871
    89  C    6.037958
    90  C    5.999549
    91  C    6.000718
    92  C    6.002502
    93  H    0.990855
    94  N    6.998225
    95  C    6.041985
    96  C    6.023116
    97  C    6.010489
    98  C    6.033442
    99  C    5.995751
   100  C    6.009883
   101  O    8.017108
   102  C    5.997761
   103  N    7.008001
   104  C    6.026508
   105  C    5.990347
   106  C    6.008890
   107  C    5.966489
   108  C    5.996554
   109  C    6.002254
   110  C    5.997637
   111  N    6.997328
   112  C    5.969688
   113  C    5.970444
   114  C    5.996314
   115  C    5.981536
   116  C    5.998859
   117  C    5.982664
   118  O    7.968583
   119  C    5.995748
   120  C    5.998903
   121  O    7.989041
   122  O    7.998105
   123  C    6.003439
   124  H    1.005067
   125  H    1.011294
   126  H    0.994298
   127  H    1.001723
   128  H    0.999197
   129  H    1.011130
   130  H    0.995703
   131  H    1.001282
   132  H    0.989279
   133  H    1.005979
   134  H    1.004662
   135  H    0.996387
   136  H    1.021036
   137  H    1.016732
   138  H    1.020773
   139  H    1.009422
   140  H    1.012147
   141  H    1.007494
   142  H    0.999484
   143  H    0.999375
   144  H    0.999203
   145  H    0.998997
   146  H    1.010992
   147  H    1.004824
   148  H    0.990835
   149  H    1.007268
   150  H    0.997397
   151  H    0.997450
   152  H    0.980863
   153  H    0.980763
   154  H    0.988909
   155  H    0.990547
   156  H    0.996088
   157  H    0.995626
   158  H    0.992276
 Sum of Mulliken charges = 624.00000

 Dipole moment (field-independent basis, Debye):
    X=             -1.5850    Y=             10.2487    Z=             -0.7654  Tot=             10.3988
 Quadrupole moment (field-independent basis, Debye-Ang):
   XX=            -98.4786   YY=             10.9310   ZZ=             -0.7575
   XY=            303.3337   XZ=            -23.3620   YZ=             -2.7686

 Normal termination of Gaussian 16 at Fri Oct 15 18:12:59 2021.
