 Gaussian 16, Revision A.03,
 Gaussian 16:  ES64L-G16RevA.03 25-Dec-2016

 --------------------------------------------------------
 #p PBE1PBE/Def2SVP td=(nstates=5) density=(transition=1)
 --------------------------------------------------------

 --------------------------------
 TDDFT excited states in gaussian
 --------------------------------
 Symbolic Z-matrix:
 Charge =  0 Multiplicity = 1

                         Standard orientation:
 ---------------------------------------------------------------------
 Center     Atomic      Atomic             Coordinates (Angstroms)
 Number     Number       Type             X           Y           Z
 ---------------------------------------------------------------------
      1         12           0       31.349264    0.310605   -0.164144
      2          6           0       28.190983   -1.186669    0.022154
      3          6           0       29.655363    3.301545   -0.545780
      4          6           0       34.295054    1.872187   -0.003560
      5          6           0       32.791030   -2.628868    1.061089
      6          7           0       29.019459    0.978641   -0.047275
      7          6           0       27.954908    0.154768   -0.090154
      8          6           0       26.632756    0.879686   -0.167819
      9          6           0       27.214537    2.264819   -0.644754
     10          6           0       28.714566    2.252070   -0.368916
     11          6           0       26.998082    2.432363   -2.172455
     12          6           0       25.861817    0.778864    1.154477
     13          6           0       26.618812    0.887082    2.494524
     14          1           0       26.028173    1.849725    3.517924
     15          7           0       31.901074    2.277609   -0.269760
     16          6           0       31.058847    3.321288   -0.548158
     17          6           0       31.853547    4.456061   -1.035876
     18          6           0       33.241581    4.142534   -0.746187
     19          6           0       33.174854    2.707106   -0.334453
     20          6           0       31.215524    5.850424   -1.402455
     21          6           0       34.440295    5.087952   -0.857273
     22          8           0       34.315805    6.177464   -1.343300
     23          6           0       35.797311    4.637479   -0.398953
     24          7           0       33.260142   -0.297062    0.675400
     25          6           0       34.409156    0.502081    0.528826
     26          6           0       35.734681   -0.224290    1.013239
     27          6           0       35.194282   -1.707741    1.288803
     28          6           0       33.640610   -1.561382    0.948786
     29          6           0       37.065121   -0.178426    0.107901
     30          6           0       35.474728   -2.338113    2.728582
     31          6           0       35.698438   -3.926634    2.616498
     32          7           0       30.694971   -1.594308    0.393227
     33          6           0       31.413479   -2.706252    0.782997
     34          6           0       30.507847   -3.842271    0.903685
     35          6           0       29.216099   -3.366611    0.560046
     36          6           0       29.371367   -1.952097    0.329431
     37          6           0       30.895322   -5.276674    1.151134
     38          6           0       27.747071   -3.640996    0.439664
     39          8           0       27.112754   -4.636814    0.708159
     40          6           0       27.097176   -2.248816    0.039199
     41          6           0       26.457309   -2.445949   -1.307564
     42          8           0       25.363095   -3.037369   -1.485669
     43          8           0       27.178019   -1.754820   -2.270727
     44          6           0       26.559935   -1.663763   -3.551232
     45          1           0       29.126454    4.233129   -0.757994
     46          1           0       35.325919    2.216439   -0.111804
     47          1           0       33.283160   -3.585505    1.249145
     48          1           0       26.024719    0.522484   -0.998749
     49          1           0       26.820436    3.169559   -0.183888
     50          1           0       27.855549    3.001161   -2.532882
     51          1           0       26.021180    2.869090   -2.375038
     52          1           0       27.078641    1.558573   -2.819825
     53          1           0       25.449573   -0.229486    1.175369
     54          1           0       25.055279    1.511816    1.131571
     55          1           0       27.626415    1.254158    2.300917
     56          1           0       26.607709   -0.094077    2.968314
     57          1           0       30.940803    6.471566   -0.549488
     58          1           0       30.335841    5.694937   -2.027109
     59          1           0       31.804864    6.488475   -2.059986
     60          1           0       36.518217    5.455657   -0.392269
     61          1           0       36.208729    3.829711   -1.004548
     62          1           0       35.610939    4.409458    0.650846
     63          1           0       35.899584    0.314815    1.945367
     64          1           0       35.592288   -2.410304    0.557184
     65          1           0       37.631134    0.699568    0.416935
     66          1           0       36.824878   -0.129839   -0.953823
     67          1           0       37.624866   -1.099298    0.272824
     68          1           0       34.592544   -2.268771    3.364913
     69          1           0       36.302495   -1.831245    3.225169
     70          1           0       34.941607   -4.468631    3.183696
     71          1           0       36.679005   -4.182680    3.016715
     72          1           0       35.585019   -4.409781    1.646644
     73          1           0       31.425736   -5.329466    2.101308
     74          1           0       31.564430   -5.616011    0.360117
     75          1           0       30.028730   -5.932110    1.236300
     76          1           0       26.274600   -2.133889    0.744724
     77          1           0       27.162139   -1.023066   -4.194997
     78          1           0       25.511228   -1.378975   -3.464574
     79          1           0       26.600391   -2.608563   -4.093215
     80         12           0      -31.443726    0.202900    0.378002
     81          6           0      -28.797622   -1.789406   -0.810200
     82          6           0      -32.177551    0.965759   -2.934118
     83          6           0      -33.713638    2.320767    1.556861
     84          6           0      -30.032046    0.011236    3.673592
     85          7           0      -30.583052   -0.321307   -1.610286
     86          6           0      -29.568404   -1.263717   -1.828972
     87          6           0      -29.625456   -1.730031   -3.271912
     88          6           0      -30.496046   -0.669282   -4.003756
     89          6           0      -31.134486    0.038121   -2.770542
     90          6           0      -29.756447    0.250955   -5.024979
     91          6           0      -30.113403   -3.207888   -3.463324
     92          6           0      -29.480767   -3.944905   -4.724792
     93          1           0      -28.535508   -3.141719   -5.622226
     94          7           0      -32.798523    1.328936   -0.535437
     95          6           0      -33.002053    1.456919   -1.898649
     96          6           0      -34.160707    2.259161   -2.166334
     97          6           0      -34.558260    2.775388   -0.891559
     98          6           0      -33.712734    2.116586    0.087969
     99          6           0      -34.672272    2.587064   -3.602294
    100          6           0      -35.619532    3.778714   -0.577891
    101          8           0      -35.751639    4.254426    0.575029
    102          6           0      -36.640835    4.460900   -1.535022
    103          7           0      -31.673908    1.270509    2.272531
    104          6           0      -32.767969    2.012799    2.527332
    105          6           0      -32.910298    2.264090    4.049586
    106          6           0      -31.733435    1.554278    4.728502
    107          6           0      -31.113783    0.840475    3.447247
    108          6           0      -33.128339    3.713923    4.358461
    109          6           0      -32.067090    0.580168    5.878772
    110          6           0      -33.001953   -0.595184    5.500934
    111          7           0      -29.716820   -0.642518    1.313201
    112          6           0      -29.405551   -0.755440    2.625505
    113          6           0      -28.326500   -1.737765    2.717079
    114          6           0      -28.031909   -2.225388    1.413089
    115          6           0      -28.884055   -1.482917    0.559864
    116          6           0      -27.712936   -2.268479    4.010053
    117          6           0      -27.216690   -3.114961    0.649207
    118          8           0      -26.410524   -3.994648    0.940092
    119          6           0      -27.659674   -2.808608   -0.926020
    120          6           0      -26.422014   -2.466615   -1.734030
    121          8           0      -25.898378   -1.369801   -1.730301
    122          8           0      -26.049919   -3.524516   -2.532066
    123          6           0      -24.700017   -3.550644   -3.085811
    124          1           0      -32.395439    1.033001   -4.001866
    125          1           0      -34.540234    2.950051    1.892464
    126          1           0      -29.745024   -0.102950    4.720703
    127          1           0      -28.622152   -1.707571   -3.697078
    128          1           0      -31.278760   -1.212845   -4.532120
    129          1           0      -29.991579    1.247157   -4.651792
    130          1           0      -30.217598    0.180180   -6.010819
    131          1           0      -28.674391    0.178187   -5.134090
    132          1           0      -31.183320   -3.250905   -3.664735
    133          1           0      -29.930309   -3.755579   -2.539764
    134          1           0      -30.298645   -4.176701   -5.407206
    135          1           0      -28.979195   -4.839687   -4.356962
    136          1           0      -35.012382    3.623361   -3.600061
    137          1           0      -35.525430    1.975087   -3.893105
    138          1           0      -34.027767    2.473039   -4.473780
    139          1           0      -37.223331    3.712028   -2.072415
    140          1           0      -36.165926    5.161738   -2.221547
    141          1           0      -37.504020    4.896444   -1.033115
    142          1           0      -33.887747    1.864873    4.317300
    143          1           0      -31.019430    2.350004    4.943825
    144          1           0      -34.169795    3.947430    4.580481
    145          1           0      -32.750174    4.328448    3.541325
    146          1           0      -32.551115    4.081733    5.207502
    147          1           0      -32.593613    1.213576    6.592974
    148          1           0      -31.148983    0.201854    6.329260
    149          1           0      -32.425242   -1.495908    5.710200
    150          1           0      -33.225110   -0.489552    4.439228
    151          1           0      -33.976447   -0.569301    5.988822
    152          1           0      -27.566004   -3.348008    3.992089
    153          1           0      -28.390007   -2.141799    4.854330
    154          1           0      -26.812736   -1.689745    4.218766
    155          1           0      -28.029460   -3.768042   -1.288645
    156          1           0      -24.468697   -2.527758   -3.384122
    157          1           0      -24.577846   -4.183357   -3.964998
    158          1           0      -24.071519   -3.965294   -2.297638
 ---------------------------------------------------------------------

 SCF Done:  E(RPBE1PBE) =  -4067.37722967     A.U. after   16 cycles

 Excitation energies and oscillator strengths:

 Excited State   1:      Singlet-A      1.8182 eV  681.90 nm  f=0.3846  <S**2>=0.000
     309 -> 316        0.16261
     312 -> 313        0.69667
     312 <- 313       -0.11885
 This state for optimization and/or second-order correction.
 Total Energy, E(TD-HF/TD-DFT) =  -4067.31041133
 Copying the excited state density for this state as the 1-particle RhoCI density.

 Excited State   2:      Singlet-A      1.8968 eV  653.64 nm  f=0.3487  <S**2>=0.000
     310 -> 315        0.18776
     311 -> 314        0.68734

 Excited State   3:      Singlet-A      1.9556 eV  633.98 nm  f=0.0000  <S**2>=0.000
     311 -> 313        0.70711

 Excited State   4:      Singlet-A      2.0723 eV  598.30 nm  f=0.0000  <S**2>=0.000
     312 -> 314        0.70711

 Excited State   5:      Singlet-A      2.1901 eV  566.10 nm  f=0.1407  <S**2>=0.000
     309 -> 313        0.66503
     312 -> 316       -0.22002

 The electronic state is 1-A.
 Alpha  occ. eigenvalues --  -46.93779 -46.92311 -19.26684 -19.24907 -19.20270
 Alpha  occ. eigenvalues --  -19.19872 -19.19671 -19.19444 -19.19101 -19.18512
 Alpha  occ. eigenvalues --  -14.41915 -14.41851 -14.41187 -14.41067 -14.40049
 Alpha  occ. eigenvalues --  -14.39871 -14.39214 -14.39123 -10.37012 -10.36097
 Alpha  occ. eigenvalues --  -10.33069 -10.32798 -10.32539 -10.32313 -10.30476
 Alpha  occ. eigenvalues --  -10.29291 -10.29175 -10.29079 -10.28726 -10.28620
 Alpha  occ. eigenvalues --  -10.28607 -10.28525 -10.28435 -10.28375 -10.28349
 Alpha  occ. eigenvalues --  -10.28208 -10.28049 -10.27999 -10.27717 -10.27698
 Alpha  occ. eigenvalues --  -10.27495 -10.27180 -10.27040 -10.26966 -10.26913
 Alpha  occ. eigenvalues --  -10.26860 -10.26793 -10.26228 -10.26213 -10.26134
 Alpha  occ. eigenvalues --  -10.26006 -10.26006 -10.25920 -10.25900 -10.25884
 Alpha  occ. eigenvalues --  -10.25867 -10.25689 -10.25570 -10.25551 -10.25493
 Alpha  occ. eigenvalues --  -10.25451 -10.25328 -10.25320 -10.25271 -10.25198
 Alpha  occ. eigenvalues --  -10.25116 -10.25088 -10.24949 -10.24678 -10.24472
 Alpha  occ. eigenvalues --  -10.24399 -10.24393 -10.23929 -10.23873 -10.23846
 Alpha  occ. eigenvalues --  -10.23805 -10.23790 -10.23667 -10.23594 -10.23512
 Alpha  occ. eigenvalues --  -10.23499 -10.23448 -10.23143 -10.23136 -10.23060
 Alpha  occ. eigenvalues --  -10.22371  -3.15726  -3.14460  -1.88526  -1.88118
 Alpha  occ. eigenvalues --   -1.87937  -1.87270  -1.86834  -1.86697  -1.11217
 Alpha  occ. eigenvalues --   -1.10197  -1.06134  -1.05515  -1.04262  -1.03026
 Alpha  occ. eigenvalues --   -1.02261  -1.01851  -0.99328  -0.98874  -0.98427
 Alpha  occ. eigenvalues --   -0.98052  -0.97873  -0.97675  -0.96867  -0.96622
 Alpha  occ. eigenvalues --   -0.86877  -0.86576  -0.83509  -0.83264  -0.82774
 Alpha  occ. eigenvalues --   -0.82583  -0.82397  -0.81996  -0.81711  -0.81690
 Alpha  occ. eigenvalues --   -0.80986  -0.80480  -0.79803  -0.79719  -0.79093
 Alpha  occ. eigenvalues --   -0.78049  -0.77655  -0.77654  -0.76860  -0.76442
 Alpha  occ. eigenvalues --   -0.76062  -0.75327  -0.75137  -0.74960  -0.74727
 Alpha  occ. eigenvalues --   -0.74117  -0.72852  -0.71832  -0.71592  -0.71273
 Alpha  occ. eigenvalues --   -0.71047  -0.70916  -0.70703  -0.70138  -0.69646
 Alpha  occ. eigenvalues --   -0.69328  -0.67299  -0.67022  -0.66460  -0.65492
 Alpha  occ. eigenvalues --   -0.64242  -0.64238  -0.63764  -0.63529  -0.62834
 Alpha  occ. eigenvalues --   -0.62746  -0.61900  -0.61534  -0.60333  -0.59749
 Alpha  occ. eigenvalues --   -0.59419  -0.59311  -0.59287  -0.59155  -0.58737
 Alpha  occ. eigenvalues --   -0.58605  -0.58289  -0.56227  -0.55394  -0.54556
 Alpha  occ. eigenvalues --   -0.54052  -0.53868  -0.53453  -0.53366  -0.52811
 Alpha  occ. eigenvalues --   -0.52736  -0.52291  -0.52023  -0.51901  -0.51447
 Alpha  occ. eigenvalues --   -0.50762  -0.50610  -0.50477  -0.50278  -0.50057
 Alpha  occ. eigenvalues --   -0.49621  -0.49356  -0.49316  -0.48826  -0.48475
 Alpha  occ. eigenvalues --   -0.48338  -0.48000  -0.47785  -0.47691  -0.47488
 Alpha  occ. eigenvalues --   -0.47304  -0.47297  -0.47140  -0.46690  -0.46528
 Alpha  occ. eigenvalues --   -0.46494  -0.46164  -0.46013  -0.45901  -0.45735
 Alpha  occ. eigenvalues --   -0.45640  -0.45329  -0.45317  -0.45154  -0.44615
 Alpha  occ. eigenvalues --   -0.44533  -0.44455  -0.44316  -0.44132  -0.44114
 Alpha  occ. eigenvalues --   -0.43858  -0.43836  -0.43701  -0.43588  -0.43425
 Alpha  occ. eigenvalues --   -0.43353  -0.43196  -0.43049  -0.42819  -0.42464
 Alpha  occ. eigenvalues --   -0.42324  -0.42211  -0.42076  -0.41955  -0.41894
 Alpha  occ. eigenvalues --   -0.41578  -0.41400  -0.41335  -0.41068  -0.41061
 Alpha  occ. eigenvalues --   -0.40951  -0.40777  -0.40576  -0.40482  -0.40251
 Alpha  occ. eigenvalues --   -0.40166  -0.40106  -0.39953  -0.39942  -0.39607
 Alpha  occ. eigenvalues --   -0.39423  -0.39268  -0.39019  -0.38979  -0.38850
 Alpha  occ. eigenvalues --   -0.38794  -0.38792  -0.38661  -0.38426  -0.38199
 Alpha  occ. eigenvalues --   -0.38155  -0.37980  -0.37976  -0.37787  -0.37662
 Alpha  occ. eigenvalues --   -0.37626  -0.37451  -0.37272  -0.37183  -0.37030
 Alpha  occ. eigenvalues --   -0.36843  -0.36789  -0.36737  -0.36615  -0.36489
 Alpha  occ. eigenvalues --   -0.36285  -0.36137  -0.35561  -0.35418  -0.35261
 Alpha  occ. eigenvalues --   -0.34998  -0.34826  -0.34586  -0.34179  -0.34115
 Alpha  occ. eigenvalues --   -0.33880  -0.33646  -0.33134  -0.32800  -0.32622
 Alpha  occ. eigenvalues --   -0.32242  -0.32198  -0.31903  -0.31714  -0.31363
 Alpha  occ. eigenvalues --   -0.31357  -0.30862  -0.29784  -0.29440  -0.29194
 Alpha  occ. eigenvalues --   -0.28898  -0.28690  -0.28412  -0.27061  -0.26913
 Alpha  occ. eigenvalues --   -0.26280  -0.26173  -0.26056  -0.25803  -0.25752
 Alpha  occ. eigenvalues --   -0.25436  -0.25253  -0.24950  -0.21052  -0.20970
 Alpha  occ. eigenvalues --   -0.19021  -0.18979
 Alpha virt. eigenvalues --   -0.11623  -0.11150  -0.05527  -0.05014  -0.04267
 Alpha virt. eigenvalues --   -0.04119  -0.02389  -0.02308  -0.01969  -0.01264
 Alpha virt. eigenvalues --   -0.00115   0.00605   0.01078   0.01154   0.01842

 Mulliken charges:
               1
     1  Mg  11.999997
     2  C    5.999931
     3  C    5.999960
     4  C    6.000104
     5  C    6.000012
     6  N    7.000003
     7  C    6.000010
     8  C    6.000005
     9  C    6.000003
    10  C    6.000051
    11  C    5.999994
    12  C    6.000013
    13  C    6.000013
    14  H    0.999963
    15  N    7.000019
    16  C    6.000073
    17  C    6.000027
    18  C    6.000036
    19  C    5.999985
    20  C    5.999979
    21  C    6.000041
    22  O    8.000038
    23  C    5.999986
    24  N    7.000025
    25  C    6.000003
    26  C    5.999980
    27  C    5.999999
    28  C    5.999958
    29  C    5.999996
    30  C    6.000002
    31  C    6.000003
    32  N    6.999986
    33  C    5.999925
    34  C    5.999967
    35  C    5.999953
    36  C    6.000007
    37  C    6.000033
    38  C    5.999958
    39  O    7.999925
    40  C    6.000022
    41  C    5.999996
    42  O    7.999963
    43  O    8.000008
    44  C    6.000013
    45  H    1.000018
    46  H    1.000002
    47  H    0.999998
    48  H    0.999980
    49  H    0.999987
    50  H    0.999997
    51  H    0.999998
    52  H    1.000020
    53  H    0.999991
    54  H    0.999964
    55  H    1.000005
    56  H    1.000005
    57  H    1.000038
    58  H    1.000028
    59  H    1.000040
    60  H    1.000046
    61  H    1.000024
    62  H    1.000009
    63  H    1.000009
    64  H    1.000008
    65  H    1.000007
    66  H    1.000006
    67  H    1.000029
    68  H    0.999993
    69  H    0.999997
    70  H    0.999997
    71  H    1.000005
    72  H    1.000005
    73  H    0.999967
    74  H    0.999972
    75  H    0.999962
    76  H    0.999966
    77  H    0.999998
    78  H    0.999973
    79  H    0.999992
    80  Mg  12.000907
    81  C    5.979894
    82  C    5.997877
    83  C    6.018369
    84  C    5.996596
    85  N    6.988019
    86  C    6.032953
    87  C    5.991356
    88  C    6.011029
    89  C    5.977279
    90  C    5.998321
    91  C    5.997352
    92  C    5.999465
    93  H    1.004861
    94  N    7.003520
    95  C    5.968208
    96  C    5.975064
    97  C    5.987960
    98  C    5.972567
    99  C    6.001937
   100  C    5.991790
   101  O    7.968022
   102  C    6.003514
   103  N    7.008475
   104  C    5.969510
   105  C    6.004052
   106  C    5.992739
   107  C    6.020490
   108  C    6.002097
   109  C    5.995882
   110  C    5.995445
   111  N    6.998461
   112  C    6.029834
   113  C    6.038716
   114  C    5.997192
   115  C    6.035180
   116  C    5.998221
   117  C    6.012832
   118  O    8.023969
   119  C    6.004986
   120  C    6.003080
   121  O    8.005520
   122  O    8.001798
   123  C    5.998439
   124  H    0.986590
   125  H    0.996191
   126  H    1.009923
   127  H    0.998760
   128  H    0.997356
   129  H    1.004451
   130  H    0.997382
   131  H    0.987689
   132  H    1.011079
   133  H    0.992706
   134  H    1.004893
   135  H    0.996916
   136  H    0.985753
   137  H    0.980888
   138  H    0.982522
   139  H    0.992222
   140  H    0.991573
   141  H    0.986899
   142  H    1.001148
   143  H    1.003863
   144  H    1.002408
   145  H    1.003803
   146  H    0.991495
   147  H    1.008782
   148  H    0.995792
   149  H    0.995194
   150  H    1.006508
   151  H    1.007533
   152  H    1.017502
   153  H    1.019056
   154  H    1.021112
   155  H    1.008197
   156  H    1.004477
   157  H    1.005491
   158  H    1.000068
 Sum of Mulliken charges = 624.00000

 Dipole moment (field-independent basis, Debye):
    X=              7.5131    Y=             -5.5729    Z=              4.9054  Tot=             10.5625
 Quadrupole moment (field-independent basis, Debye-Ang):
   XX=           -467.7698   YY=             -3.1906   ZZ=              3.9190
   XY=            177.8474   XZ=           -152.8861   YZ=              1.2756

 Normal termination of Gaussian 16 at Thu Oct 14 22:29:34 2021.
