 Gaussian 16, Revision A.03,
 Gaussian 16:  ES64L-G16RevA.03 25-Dec-2016

 --------------------------------------------------------
 #p PBE1PBE/Def2SVP td=(nstates=5) density=(transition=1)
 --------------------------------------------------------

 --------------------------------
 TDDFT excited states in gaussian
 --------------------------------
 Symbolic Z-matrix:
 Charge =  0 Multiplicity = 1

                         Standard orientation:
 ---------------------------------------------------------------------
 Center     Atomic      Atomic             Coordinates (Angstroms)
 Number     Number       Type             X           Y           Z
 ---------------------------------------------------------------------
      1         12           0      -23.569867   -0.730328   -0.035903
      2          6           0      -22.543505    2.287921   -1.348425
      3          6           0      -23.307433    0.817325    3.183381
      4          6           0      -24.201331   -3.609922    1.364938
      5          6           0      -23.455345   -2.187048   -3.171195
      6          7           0      -22.765748    1.321686    0.804992
      7          6           0      -22.641667    2.398179    0.046925
      8          6           0      -22.734084    3.694405    0.900652
      9          6           0      -22.406584    3.104076    2.316704
     10          6           0      -22.842913    1.639512    2.151521
     11          6           0      -20.885803    3.237203    2.683769
     12          6           0      -24.183747    4.205876    0.746763
     13          6           0      -24.500918    5.567219    1.380466
     14          1           0      -23.506379    6.221984    2.318005
     15          7           0      -23.851406   -1.367200    1.922936
     16          6           0      -23.729097   -0.549246    3.098493
     17          6           0      -24.210833   -1.365262    4.204614
     18          6           0      -24.580093   -2.632892    3.655513
     19          6           0      -24.183887   -2.609929    2.248203
     20          6           0      -24.337853   -0.873677    5.694711
     21          6           0      -25.294950   -3.809979    4.397803
     22          8           0      -25.422524   -4.850742    3.813202
     23          6           0      -25.765985   -3.646276    5.806378
     24          7           0      -23.889077   -2.633580   -0.818573
     25          6           0      -24.145557   -3.705589   -0.035458
     26          6           0      -24.253164   -5.013309   -0.818899
     27          6           0      -24.150114   -4.518135   -2.280140
     28          6           0      -23.802283   -2.987489   -2.077242
     29          6           0      -23.183165   -6.110060   -0.463666
     30          6           0      -25.296521   -4.840927   -3.204214
     31          6           0      -26.765489   -4.610257   -2.774687
     32          7           0      -23.097018   -0.163381   -1.913946
     33          6           0      -23.099124   -0.836877   -3.101840
     34          6           0      -22.816490    0.130745   -4.140914
     35          6           0      -22.610669    1.418285   -3.536098
     36          6           0      -22.787201    1.152377   -2.150589
     37          6           0      -22.746877   -0.202111   -5.598650
     38          6           0      -22.255905    2.783065   -3.736648
     39          8           0      -21.960405    3.445102   -4.755331
     40          6           0      -21.942280    3.306414   -2.230717
     41          6           0      -22.439329    4.751356   -2.162319
     42          8           0      -23.516184    5.116318   -2.444189
     43          8           0      -21.395827    5.535770   -1.760548
     44          6           0      -21.693643    6.867576   -1.275129
     45          1           0      -23.160978    1.276002    4.163030
     46          1           0      -24.363211   -4.605717    1.782881
     47          1           0      -23.383608   -2.588922   -4.183275
     48          1           0      -21.958417    4.415140    0.642258
     49          1           0      -23.072801    3.656554    2.979732
     50          1           0      -20.758138    4.042085    3.406577
     51          1           0      -20.337334    3.433026    1.762191
     52          1           0      -20.478999    2.355534    3.179098
     53          1           0      -24.831628    3.500267    1.266180
     54          1           0      -24.533458    4.142898   -0.283236
     55          1           0      -25.533321    5.652008    1.720401
     56          1           0      -24.594798    6.240424    0.528155
     57          1           0      -23.868739   -1.560619    6.399709
     58          1           0      -25.405700   -0.739988    5.866966
     59          1           0      -23.918772    0.129380    5.783071
     60          1           0      -26.604754   -4.341848    5.841615
     61          1           0      -26.205924   -2.667046    5.991731
     62          1           0      -25.054054   -3.633872    6.631621
     63          1           0      -25.248465   -5.394441   -0.591488
     64          1           0      -23.246305   -4.861953   -2.783101
     65          1           0      -22.964617   -6.617510   -1.402881
     66          1           0      -23.733527   -6.754130    0.222490
     67          1           0      -22.345645   -5.665669    0.073996
     68          1           0      -25.253606   -5.929302   -3.180294
     69          1           0      -25.240539   -4.469808   -4.228110
     70          1           0      -27.427337   -5.473328   -2.716281
     71          1           0      -27.308582   -4.024412   -3.516228
     72          1           0      -26.780624   -4.147104   -1.787988
     73          1           0      -22.458307    0.723851   -6.095249
     74          1           0      -23.738961   -0.463481   -5.969268
     75          1           0      -22.138541   -1.070292   -5.850490
     76          1           0      -20.864378    3.190009   -2.116243
     77          1           0      -20.983562    7.308180   -1.975099
     78          1           0      -21.552393    6.986242   -0.200643
     79          1           0      -22.691860    7.226632   -1.526966
     80         12           0       23.877229   -0.697212   -0.040113
     81          6           0       21.834855    2.130714    0.967621
     82          6           0       26.227947    1.585701   -0.832152
     83          6           0       25.633882   -3.195103   -0.976859
     84          6           0       21.107528   -2.816314    0.572288
     85          7           0       23.991412    1.704597    0.107608
     86          6           0       23.098710    2.568202    0.621538
     87          6           0       23.711997    3.978731    0.710204
     88          6           0       24.917219    3.743510   -0.314804
     89          6           0       25.097710    2.283758   -0.304374
     90          6           0       24.894392    4.488849   -1.638782
     91          6           0       24.094214    4.260527    2.173562
     92          6           0       24.118958    5.780523    2.510660
     93          1           0       23.516009    6.900804    1.543014
     94          7           0       25.748679   -0.827936   -0.779887
     95          6           0       26.566698    0.227611   -1.134580
     96          6           0       27.776030   -0.324766   -1.737261
     97          6           0       27.650106   -1.735763   -1.716272
     98          6           0       26.292597   -1.957368   -1.142376
     99          6           0       28.881796    0.481483   -2.257061
    100          6           0       28.702692   -2.880806   -2.160120
    101          8           0       28.509423   -4.040312   -1.916001
    102          6           0       30.122987   -2.526624   -2.636108
    103          7           0       23.315290   -2.687655   -0.428379
    104          6           0       24.300834   -3.549152   -0.667164
    105          6           0       23.882003   -4.994603   -0.644260
    106          6           0       22.602555   -4.863050    0.217590
    107          6           0       22.256964   -3.355590   -0.037934
    108          6           0       23.563509   -5.610735   -2.085463
    109          6           0       22.745586   -5.258715    1.747054
    110          6           0       23.785256   -6.334362    2.176697
    111          7           0       21.866524   -0.445309    0.513516
    112          6           0       20.886206   -1.341819    0.785547
    113          6           0       19.769392   -0.733621    1.352937
    114          6           0       20.094058    0.592594    1.381471
    115          6           0       21.374026    0.762202    0.891805
    116          6           0       18.524219   -1.447001    1.872547
    117          6           0       19.544343    1.888333    1.807626
    118          8           0       18.426824    2.250110    2.144240
    119          6           0       20.740417    2.918088    1.607317
    120          6           0       20.228826    4.034116    0.831215
    121          8           0       20.035458    4.064660   -0.388289
    122          8           0       19.754692    4.939195    1.712608
    123          6           0       18.882954    5.918958    1.089533
    124          1           0       26.904660    2.332585   -1.252664
    125          1           0       26.248097   -4.019815   -1.342826
    126          1           0       20.316312   -3.520957    0.836003
    127          1           0       23.056888    4.729795    0.268623
    128          1           0       25.798835    4.158363    0.171907
    129          1           0       25.688797    5.231620   -1.705100
    130          1           0       23.934447    4.986824   -1.773953
    131          1           0       24.958936    3.842570   -2.514173
    132          1           0       25.127647    3.938896    2.304585
    133          1           0       23.504146    3.704784    2.902075
    134          1           0       25.109229    6.107043    2.829847
    135          1           0       23.657373    5.793472    3.497917
    136          1           0       28.916956    1.466868   -1.792917
    137          1           0       28.697730    0.555685   -3.328980
    138          1           0       29.867107    0.046105   -2.089161
    139          1           0       30.745386   -2.072317   -1.865219
    140          1           0       29.967670   -1.958287   -3.553414
    141          1           0       30.622373   -3.422336   -3.006379
    142          1           0       24.745174   -5.487065   -0.197104
    143          1           0       21.771008   -5.458705   -0.158218
    144          1           0       24.089433   -6.563824   -2.034459
    145          1           0       23.953758   -5.028506   -2.920957
    146          1           0       22.514512   -5.822232   -2.289229
    147          1           0       21.762239   -5.530969    2.127831
    148          1           0       23.147502   -4.330567    2.153779
    149          1           0       24.758571   -5.874860    2.347075
    150          1           0       23.725902   -7.071977    1.375621
    151          1           0       23.476723   -6.870619    3.073436
    152          1           0       18.884316   -2.425967    2.189751
    153          1           0       17.782534   -1.637176    1.097315
    154          1           0       18.119620   -0.865983    2.701098
    155          1           0       21.037896    3.239598    2.606228
    156          1           0       18.473793    6.643471    1.793062
    157          1           0       18.133614    5.535742    0.396707
    158          1           0       19.456673    6.571946    0.430943
 ---------------------------------------------------------------------

 SCF Done:  E(RPBE1PBE) =  -4067.34701554     A.U. after   16 cycles

 Excitation energies and oscillator strengths:

 Excited State   1:      Singlet-A      1.8859 eV  657.44 nm  f=0.3650  <S**2>=0.000
     309 -> 315       -0.19014
     312 -> 313        0.68805
     312 <- 313       -0.10014
 This state for optimization and/or second-order correction.
 Total Energy, E(TD-HF/TD-DFT) =  -4067.27771168
 Copying the excited state density for this state as the 1-particle RhoCI density.

 Excited State   2:      Singlet-A      1.9474 eV  636.65 nm  f=0.3565  <S**2>=0.000
     310 -> 316        0.18527
     311 -> 314        0.68730

 Excited State   3:      Singlet-A      2.0843 eV  594.84 nm  f=0.0000  <S**2>=0.000
     312 -> 314        0.70711

 Excited State   4:      Singlet-A      2.0902 eV  593.16 nm  f=0.0000  <S**2>=0.000
     311 -> 313        0.70711

 Excited State   5:      Singlet-A      2.2137 eV  560.07 nm  f=0.0893  <S**2>=0.000
     309 -> 313        0.64980
     312 -> 315        0.26391

 The electronic state is 1-A.
 Alpha  occ. eigenvalues --  -46.92752 -46.91631 -19.25564 -19.24991 -19.20500
 Alpha  occ. eigenvalues --  -19.20365 -19.19321 -19.19310 -19.19165 -19.19028
 Alpha  occ. eigenvalues --  -14.41219 -14.41142 -14.40773 -14.40735 -14.39432
 Alpha  occ. eigenvalues --  -14.38982 -14.38891 -14.38469 -10.35835 -10.35219
 Alpha  occ. eigenvalues --  -10.33939 -10.32431 -10.32180 -10.32123 -10.28632
 Alpha  occ. eigenvalues --  -10.28584 -10.28346 -10.28340 -10.28257 -10.28231
 Alpha  occ. eigenvalues --  -10.28217 -10.28125 -10.28114 -10.28033 -10.27782
 Alpha  occ. eigenvalues --  -10.27537 -10.27495 -10.27192 -10.26903 -10.26735
 Alpha  occ. eigenvalues --  -10.26665 -10.26662 -10.26512 -10.26248 -10.26229
 Alpha  occ. eigenvalues --  -10.26136 -10.25921 -10.25841 -10.25798 -10.25736
 Alpha  occ. eigenvalues --  -10.25601 -10.25591 -10.25374 -10.25289 -10.25283
 Alpha  occ. eigenvalues --  -10.25248 -10.25230 -10.25219 -10.25188 -10.25172
 Alpha  occ. eigenvalues --  -10.25170 -10.25119 -10.25082 -10.24817 -10.24436
 Alpha  occ. eigenvalues --  -10.24425 -10.24299 -10.24287 -10.24237 -10.24156
 Alpha  occ. eigenvalues --  -10.24051 -10.23914 -10.23785 -10.23722 -10.23581
 Alpha  occ. eigenvalues --  -10.23513 -10.23459 -10.23452 -10.23351 -10.23123
 Alpha  occ. eigenvalues --  -10.23109 -10.23019 -10.22903 -10.22659 -10.22607
 Alpha  occ. eigenvalues --  -10.21735  -3.14834  -3.13846  -1.87676  -1.87226
 Alpha  occ. eigenvalues --   -1.87043  -1.86687  -1.86236  -1.86060  -1.12312
 Alpha  occ. eigenvalues --   -1.11293  -1.07157  -1.06299  -1.04579  -1.04400
 Alpha  occ. eigenvalues --   -1.02641  -1.01458  -1.00439  -0.99844  -0.99759
 Alpha  occ. eigenvalues --   -0.99156  -0.98625  -0.98372  -0.97653  -0.96786
 Alpha  occ. eigenvalues --   -0.87305  -0.86797  -0.83629  -0.83217  -0.83021
 Alpha  occ. eigenvalues --   -0.82958  -0.82736  -0.82408  -0.81722  -0.81620
 Alpha  occ. eigenvalues --   -0.81244  -0.80674  -0.80170  -0.79917  -0.78586
 Alpha  occ. eigenvalues --   -0.78325  -0.77970  -0.77463  -0.76685  -0.76621
 Alpha  occ. eigenvalues --   -0.75931  -0.75896  -0.75699  -0.75076  -0.74575
 Alpha  occ. eigenvalues --   -0.74454  -0.72683  -0.72301  -0.71637  -0.71144
 Alpha  occ. eigenvalues --   -0.71042  -0.70977  -0.70147  -0.70106  -0.69865
 Alpha  occ. eigenvalues --   -0.69586  -0.67307  -0.67065  -0.66420  -0.66057
 Alpha  occ. eigenvalues --   -0.64604  -0.63966  -0.63263  -0.63155  -0.62470
 Alpha  occ. eigenvalues --   -0.62189  -0.61067  -0.60653  -0.59915  -0.59628
 Alpha  occ. eigenvalues --   -0.59532  -0.59389  -0.59130  -0.58789  -0.58598
 Alpha  occ. eigenvalues --   -0.58251  -0.56855  -0.56437  -0.55180  -0.55048
 Alpha  occ. eigenvalues --   -0.54165  -0.53997  -0.53834  -0.53686  -0.53344
 Alpha  occ. eigenvalues --   -0.52961  -0.52696  -0.52507  -0.52344  -0.52125
 Alpha  occ. eigenvalues --   -0.50998  -0.50728  -0.50554  -0.50212  -0.50012
 Alpha  occ. eigenvalues --   -0.49822  -0.49805  -0.49137  -0.48756  -0.48546
 Alpha  occ. eigenvalues --   -0.48246  -0.48212  -0.48038  -0.48029  -0.47635
 Alpha  occ. eigenvalues --   -0.47555  -0.47233  -0.46964  -0.46820  -0.46709
 Alpha  occ. eigenvalues --   -0.46568  -0.46228  -0.46072  -0.45928  -0.45742
 Alpha  occ. eigenvalues --   -0.45332  -0.45244  -0.45228  -0.44993  -0.44743
 Alpha  occ. eigenvalues --   -0.44739  -0.44597  -0.44273  -0.44237  -0.44086
 Alpha  occ. eigenvalues --   -0.43905  -0.43872  -0.43557  -0.43447  -0.43335
 Alpha  occ. eigenvalues --   -0.43318  -0.43298  -0.42884  -0.42872  -0.42760
 Alpha  occ. eigenvalues --   -0.42647  -0.42599  -0.42274  -0.42220  -0.42081
 Alpha  occ. eigenvalues --   -0.41725  -0.41508  -0.41449  -0.41389  -0.41220
 Alpha  occ. eigenvalues --   -0.40777  -0.40651  -0.40613  -0.40564  -0.40271
 Alpha  occ. eigenvalues --   -0.40205  -0.39903  -0.39831  -0.39661  -0.39491
 Alpha  occ. eigenvalues --   -0.39429  -0.39116  -0.38959  -0.38821  -0.38666
 Alpha  occ. eigenvalues --   -0.38665  -0.38409  -0.38159  -0.38133  -0.38066
 Alpha  occ. eigenvalues --   -0.38002  -0.37823  -0.37754  -0.37684  -0.37560
 Alpha  occ. eigenvalues --   -0.37557  -0.37394  -0.37190  -0.37149  -0.37056
 Alpha  occ. eigenvalues --   -0.36915  -0.36790  -0.36644  -0.36368  -0.36286
 Alpha  occ. eigenvalues --   -0.36274  -0.36164  -0.35801  -0.35344  -0.35067
 Alpha  occ. eigenvalues --   -0.34632  -0.34417  -0.34386  -0.34213  -0.33605
 Alpha  occ. eigenvalues --   -0.33299  -0.33170  -0.32986  -0.32772  -0.32505
 Alpha  occ. eigenvalues --   -0.32428  -0.32137  -0.31667  -0.31258  -0.30852
 Alpha  occ. eigenvalues --   -0.30849  -0.30695  -0.30101  -0.29414  -0.29098
 Alpha  occ. eigenvalues --   -0.28798  -0.28662  -0.27980  -0.26950  -0.26928
 Alpha  occ. eigenvalues --   -0.26569  -0.26153  -0.26005  -0.25593  -0.25522
 Alpha  occ. eigenvalues --   -0.25285  -0.25209  -0.24958  -0.20721  -0.20339
 Alpha  occ. eigenvalues --   -0.18877  -0.18701
 Alpha virt. eigenvalues --   -0.10912  -0.10763  -0.05316  -0.04636  -0.03979
 Alpha virt. eigenvalues --   -0.03614  -0.01821  -0.01777  -0.00437   0.00125
 Alpha virt. eigenvalues --    0.00311   0.01108   0.01321   0.01509   0.01859

 Mulliken charges:
               1
     1  Mg  11.997061
     2  C    6.004733
     3  C    5.976721
     4  C    5.987974
     5  C    6.013198
     6  N    6.995237
     7  C    5.977090
     8  C    6.004208
     9  C    5.991347
    10  C    6.035814
    11  C    5.997598
    12  C    6.006771
    13  C    5.998677
    14  H    0.994425
    15  N    6.992290
    16  C    6.051259
    17  C    6.010472
    18  C    6.018895
    19  C    6.025159
    20  C    6.000607
    21  C    6.014315
    22  O    8.025782
    23  C    5.995603
    24  N    7.002145
    25  C    6.034033
    26  C    5.990801
    27  C    6.004858
    28  C    5.970083
    29  C    5.998905
    30  C    6.006459
    31  C    6.001547
    32  N    7.002157
    33  C    5.968510
    34  C    5.967117
    35  C    5.996199
    36  C    5.978640
    37  C    6.000946
    38  C    5.982918
    39  O    7.967526
    40  C    6.000774
    41  C    5.994237
    42  O    7.995336
    43  O    7.998544
    44  C    6.000761
    45  H    1.008167
    46  H    1.006214
    47  H    0.994851
    48  H    1.001699
    49  H    1.001853
    50  H    1.004278
    51  H    1.013907
    52  H    0.996377
    53  H    0.987686
    54  H    1.007698
    55  H    0.996337
    56  H    1.003666
    57  H    1.013561
    58  H    1.013964
    59  H    1.015637
    60  H    1.013440
    61  H    1.006304
    62  H    1.009930
    63  H    0.999474
    64  H    1.002804
    65  H    1.010704
    66  H    0.997927
    67  H    1.000356
    68  H    0.992277
    69  H    1.005185
    70  H    0.996334
    71  H    1.003637
    72  H    0.990808
    73  H    0.988634
    74  H    0.977717
    75  H    0.979644
    76  H    0.993038
    77  H    0.998339
    78  H    0.992964
    79  H    0.996855
    80  Mg  12.000008
    81  C    5.999979
    82  C    6.000050
    83  C    6.000021
    84  C    5.999923
    85  N    6.999958
    86  C    6.000029
    87  C    6.000002
    88  C    5.999993
    89  C    5.999979
    90  C    6.000001
    91  C    5.999997
    92  C    5.999996
    93  H    1.000034
    94  N    6.999949
    95  C    5.999985
    96  C    5.999978
    97  C    5.999963
    98  C    6.000027
    99  C    6.000024
   100  C    5.999995
   101  O    7.999985
   102  C    6.000007
   103  N    7.000036
   104  C    5.999967
   105  C    5.999982
   106  C    6.000001
   107  C    6.000059
   108  C    6.000007
   109  C    5.999997
   110  C    6.000002
   111  N    7.000018
   112  C    6.000051
   113  C    5.999987
   114  C    6.000021
   115  C    6.000074
   116  C    5.999976
   117  C    6.000000
   118  O    8.000000
   119  C    5.999992
   120  C    6.000004
   121  O    8.000022
   122  O    7.999984
   123  C    5.999987
   124  H    0.999999
   125  H    0.999993
   126  H    1.000004
   127  H    1.000014
   128  H    0.999984
   129  H    1.000002
   130  H    1.000022
   131  H    1.000017
   132  H    0.999987
   133  H    0.999984
   134  H    0.999988
   135  H    0.999983
   136  H    0.999993
   137  H    1.000017
   138  H    0.999993
   139  H    0.999985
   140  H    1.000014
   141  H    0.999996
   142  H    0.999989
   143  H    1.000006
   144  H    0.999988
   145  H    1.000020
   146  H    1.000008
   147  H    0.999986
   148  H    0.999994
   149  H    0.999996
   150  H    1.000005
   151  H    0.999967
   152  H    0.999983
   153  H    1.000027
   154  H    0.999982
   155  H    0.999984
   156  H    0.999997
   157  H    1.000029
   158  H    1.000015
 Sum of Mulliken charges = 624.00000

 Dipole moment (field-independent basis, Debye):
    X=             -1.8671    Y=             -3.9161    Z=              9.1247  Tot=             10.1036
 Quadrupole moment (field-independent basis, Debye-Ang):
   XX=             88.2377   YY=              2.5693   ZZ=              0.1715
   XY=             93.8008   XZ=           -215.0908   YZ=             -5.5790

 Normal termination of Gaussian 16 at Thu Oct 14 07:43:41 2021.
