 Gaussian 16, Revision A.03,
 Gaussian 16:  ES64L-G16RevA.03 25-Dec-2016

 --------------------------------------------------------
 #p PBE1PBE/Def2SVP td=(nstates=5) density=(transition=1)
 --------------------------------------------------------

 --------------------------------
 TDDFT excited states in gaussian
 --------------------------------
 Symbolic Z-matrix:
 Charge =  0 Multiplicity = 1

                         Standard orientation:
 ---------------------------------------------------------------------
 Center     Atomic      Atomic             Coordinates (Angstroms)
 Number     Number       Type             X           Y           Z
 ---------------------------------------------------------------------
      1         12           0       29.010166    0.096697   -0.139595
      2          6           0       25.598525   -0.674322   -0.271927
      3          6           0       28.210967    2.911311   -1.983479
      4          6           0       32.173085    1.098928    0.225749
      5          6           0       29.430225   -2.292517    2.377465
      6          7           0       26.938120    1.118193   -0.881954
      7          6           0       25.727806    0.528025   -0.908672
      8          6           0       24.663900    1.361766   -1.581433
      9          6           0       25.648066    2.326488   -2.346455
     10          6           0       27.022708    2.186153   -1.700698
     11          6           0       25.759011    1.898769   -3.834253
     12          6           0       23.666903    1.924895   -0.560718
     13          6           0       24.172779    2.439620    0.802964
     14          1           0       23.665775    3.812994    1.226845
     15          7           0       30.043657    1.740037   -0.784640
     16          6           0       29.551943    2.703992   -1.624358
     17          6           0       30.678395    3.404596   -2.254741
     18          6           0       31.869136    3.016463   -1.519659
     19          6           0       31.374360    1.897939   -0.660281
     20          6           0       30.484139    4.616782   -3.243969
     21          6           0       33.265106    3.632995   -1.638940
     22          8           0       33.505241    4.440278   -2.492980
     23          6           0       34.361876    3.194023   -0.712186
     24          7           0       30.526231   -0.419435    1.330337
     25          6           0       31.844908    0.058873    1.217832
     26          6           0       32.838376   -0.613403    2.257235
     27          6           0       31.905414   -1.754252    2.887029
     28          6           0       30.524525   -1.510626    2.122360
     29          6           0       34.279028   -1.148046    1.777143
     30          6           0       31.756072   -1.789442    4.476193
     31          6           0       31.593988   -3.302736    4.995499
     32          7           0       27.813196   -1.292894    0.862279
     33          6           0       28.150124   -2.253933    1.793663
     34          6           0       26.983923   -3.085309    2.065805
     35          6           0       25.934867   -2.588002    1.250255
     36          6           0       26.476067   -1.429760    0.584133
     37          6           0       26.951247   -4.341418    2.896470
     38          6           0       24.490289   -2.649145    0.853675
     39          8           0       23.590531   -3.338074    1.280190
     40          6           0       24.290296   -1.450637   -0.168325
     41          6           0       23.874977   -2.066953   -1.475890
     42          8           0       22.718625   -2.497046   -1.713948
     43          8           0       24.906317   -1.945512   -2.395866
     44          6           0       24.571482   -2.278808   -3.740043
     45          1           0       27.977612    3.750704   -2.641955
     46          1           0       33.259258    1.201267    0.277387
     47          1           0       29.626699   -3.158329    3.013450
     48          1           0       24.146112    0.803125   -2.360896
     49          1           0       25.415051    3.390389   -2.355681
     50          1           0       26.781466    2.130050   -4.133895
     51          1           0       24.974481    2.367313   -4.426778
     52          1           0       25.734945    0.837975   -4.085698
     53          1           0       23.019978    1.089778   -0.293846
     54          1           0       23.085819    2.705511   -1.051864
     55          1           0       25.257871    2.531983    0.763782
     56          1           0       23.832765    1.746797    1.572158
     57          1           0       30.223535    5.563294   -2.769583
     58          1           0       29.720850    4.366262   -3.980747
     59          1           0       31.322187    4.834053   -3.905216
     60          1           0       35.250264    3.819410   -0.806120
     61          1           0       34.661572    2.156696   -0.862639
     62          1           0       33.938641    3.439662    0.262154
     63          1           0       32.961471    0.220692    2.947034
     64          1           0       32.241226   -2.745160    2.582722
     65          1           0       34.980415   -0.322580    1.892933
     66          1           0       34.253784   -1.492149    0.743561
     67          1           0       34.552913   -2.001692    2.397460
     68          1           0       30.819134   -1.330510    4.791631
     69          1           0       32.580441   -1.265168    4.960200
     70          1           0       30.636717   -3.442900    5.497747
     71          1           0       32.391346   -3.529571    5.702614
     72          1           0       31.540605   -4.109738    4.265560
     73          1           0       27.271687   -4.092242    3.907502
     74          1           0       27.646115   -5.071911    2.481620
     75          1           0       25.948152   -4.759893    2.977157
     76          1           0       23.408957   -0.932334    0.208781
     77          1           0       25.419950   -2.055679   -4.386489
     78          1           0       23.628705   -1.819684   -4.037999
     79          1           0       24.472599   -3.354920   -3.882288
     80         12           0      -28.844501    0.512503    0.183499
     81          6           0      -25.823062   -1.144466    0.077076
     82          6           0      -29.729084   -1.343779   -2.749012
     83          6           0      -31.603748    2.241561   -0.040272
     84          6           0      -27.731880    2.471779    2.808097
     85          7           0      -27.738811   -0.945530   -1.305147
     86          6           0      -26.638050   -1.597994   -0.971209
     87          6           0      -26.491022   -2.904186   -1.801775
     88          6           0      -27.440060   -2.563407   -3.003501
     89          6           0      -28.400205   -1.548128   -2.363230
     90          6           0      -26.663093   -1.961720   -4.228054
     91          6           0      -27.000586   -4.047166   -0.895822
     92          6           0      -26.825613   -5.475088   -1.430473
     93          1           0      -26.417721   -5.704807   -2.871881
     94          7           0      -30.504090    0.452737   -1.067146
     95          6           0      -30.674231   -0.419470   -2.196858
     96          6           0      -32.053568   -0.245762   -2.631262
     97          6           0      -32.642219    0.728050   -1.765278
     98          6           0      -31.567939    1.230014   -0.909717
     99          6           0      -32.734923   -1.049502   -3.800851
    100          6           0      -34.145371    1.158713   -1.714157
    101          8           0      -34.444347    2.079707   -1.004504
    102          6           0      -35.164570    0.463726   -2.557353
    103          7           0      -29.610527    2.087974    1.309523
    104          6           0      -30.803537    2.662092    1.034990
    105          6           0      -31.118781    3.857720    1.933092
    106          6           0      -29.934567    3.829967    2.927028
    107          6           0      -29.014185    2.705691    2.299389
    108          6           0      -31.273250    5.239656    1.198011
    109          6           0      -30.262415    3.704101    4.392985
    110          6           0      -31.276574    2.652020    4.903062
    111          7           0      -27.154324    0.711599    1.267806
    112          6           0      -26.826099    1.530307    2.310245
    113          6           0      -25.524227    1.112936    2.786460
    114          6           0      -25.056160    0.025036    1.972021
    115          6           0      -26.116424   -0.157421    1.042476
    116          6           0      -24.810555    1.748800    3.938407
    117          6           0      -23.985639   -0.868965    1.683147
    118          8           0      -22.853341   -1.032545    2.187600
    119          6           0      -24.392660   -1.472549    0.230527
    120          6           0      -23.950850   -2.936925    0.231025
    121          8           0      -24.239570   -3.736226    1.037266
    122          8           0      -23.130106   -3.128245   -0.843869
    123          6           0      -22.872778   -4.488644   -1.269464
    124          1           0      -29.964659   -1.863805   -3.679400
    125          1           0      -32.484929    2.883797   -0.099791
    126          1           0      -27.314696    3.066084    3.622783
    127          1           0      -25.480920   -3.035384   -2.189546
    128          1           0      -27.931139   -3.513885   -3.213534
    129          1           0      -26.572521   -2.719287   -5.005534
    130          1           0      -25.687005   -1.631123   -3.872486
    131          1           0      -27.183913   -1.134105   -4.709698
    132          1           0      -28.077769   -3.920044   -0.791202
    133          1           0      -26.644244   -3.947757    0.129020
    134          1           0      -27.602475   -6.159322   -1.088549
    135          1           0      -26.019883   -5.888116   -0.823300
    136          1           0      -33.235167   -0.396545   -4.516660
    137          1           0      -33.408760   -1.755052   -3.315068
    138          1           0      -31.990166   -1.676598   -4.292428
    139          1           0      -36.068802    0.591112   -1.961758
    140          1           0      -35.008703   -0.613483   -2.603400
    141          1           0      -35.209671    0.640618   -3.631923
    142          1           0      -32.059703    3.601625    2.419592
    143          1           0      -29.280420    4.696819    2.833704
    144          1           0      -30.867046    5.981208    1.885391
    145          1           0      -32.355592    5.329742    1.103381
    146          1           0      -30.840516    5.190544    0.198845
    147          1           0      -30.839673    4.617367    4.533313
    148          1           0      -29.429368    3.656305    5.095106
    149          1           0      -32.178067    3.004445    5.402514
    150          1           0      -30.854432    2.051882    5.709088
    151          1           0      -31.611533    2.042446    4.063696
    152          1           0      -23.844630    1.247713    3.994881
    153          1           0      -25.335253    1.529285    4.869218
    154          1           0      -24.765649    2.837248    3.916088
    155          1           0      -23.870929   -0.840002   -0.487951
    156          1           0      -21.795959   -4.324790   -1.225661
    157          1           0      -23.350991   -4.752577   -2.212972
    158          1           0      -23.134703   -5.248767   -0.532995
 ---------------------------------------------------------------------

 SCF Done:  E(RPBE1PBE) =  -4067.36559910     A.U. after   16 cycles

 Excitation energies and oscillator strengths:

 Excited State   1:      Singlet-A      1.8859 eV  657.44 nm  f=0.3686  <S**2>=0.000
     310 -> 316       -0.19013
     312 -> 314        0.68794
     312 <- 314       -0.10012
 This state for optimization and/or second-order correction.
 Total Energy, E(TD-HF/TD-DFT) =  -4067.29629494
 Copying the excited state density for this state as the 1-particle RhoCI density.

 Excited State   2:      Singlet-A      1.8968 eV  653.64 nm  f=0.3452  <S**2>=0.000
     309 -> 315        0.18776
     311 -> 313        0.68722

 Excited State   3:      Singlet-A      1.9955 eV  621.33 nm  f=0.0000  <S**2>=0.000
     312 -> 313        0.70711

 Excited State   4:      Singlet-A      2.1401 eV  579.34 nm  f=0.0000  <S**2>=0.000
     311 -> 314        0.70711

 Excited State   5:      Singlet-A      2.2138 eV  560.06 nm  f=0.0903  <S**2>=0.000
     310 -> 314        0.64980
     312 -> 316        0.26393

 The electronic state is 1-A.
 Alpha  occ. eigenvalues --  -46.93777 -46.91641 -19.26682 -19.24999 -19.20374
 Alpha  occ. eigenvalues --  -19.20268 -19.19869 -19.19331 -19.19174 -19.19100
 Alpha  occ. eigenvalues --  -14.41849 -14.41229 -14.41184 -14.41152 -14.40047
 Alpha  occ. eigenvalues --  -14.39211 -14.38993 -14.38901 -10.37010 -10.35844
 Alpha  occ. eigenvalues --  -10.33066 -10.32441 -10.32311 -10.32132 -10.30474
 Alpha  occ. eigenvalues --  -10.29289 -10.29173 -10.28723 -10.28640 -10.28432
 Alpha  occ. eigenvalues --  -10.28356 -10.28350 -10.28347 -10.28267 -10.28227
 Alpha  occ. eigenvalues --  -10.28135 -10.28047 -10.27696 -10.27493 -10.27202
 Alpha  occ. eigenvalues --  -10.27178 -10.27038 -10.26913 -10.26857 -10.26675
 Alpha  occ. eigenvalues --  -10.26257 -10.26239 -10.26226 -10.26211 -10.26146
 Alpha  occ. eigenvalues --  -10.26132 -10.26004 -10.26003 -10.25851 -10.25687
 Alpha  occ. eigenvalues --  -10.25611 -10.25602 -10.25568 -10.25491 -10.25449
 Alpha  occ. eigenvalues --  -10.25384 -10.25298 -10.25268 -10.25258 -10.25229
 Alpha  occ. eigenvalues --  -10.25196 -10.25093 -10.24470 -10.24308 -10.24297
 Alpha  occ. eigenvalues --  -10.24166 -10.24060 -10.23927 -10.23871 -10.23802
 Alpha  occ. eigenvalues --  -10.23796 -10.23787 -10.23734 -10.23592 -10.23523
 Alpha  occ. eigenvalues --  -10.23509 -10.23446 -10.23361 -10.23133 -10.22668
 Alpha  occ. eigenvalues --  -10.22617  -3.15724  -3.13856  -1.88524  -1.88116
 Alpha  occ. eigenvalues --   -1.87935  -1.86697  -1.86247  -1.86070  -1.12320
 Alpha  occ. eigenvalues --   -1.11215  -1.06309  -1.06132  -1.05513  -1.04588
 Alpha  occ. eigenvalues --   -1.02650  -1.01848  -0.99854  -0.99326  -0.98635
 Alpha  occ. eigenvalues --   -0.98424  -0.97672  -0.97663  -0.96797  -0.96620
 Alpha  occ. eigenvalues --   -0.87315  -0.86875  -0.83639  -0.83261  -0.83031
 Alpha  occ. eigenvalues --   -0.82746  -0.82581  -0.81993  -0.81688  -0.81630
 Alpha  occ. eigenvalues --   -0.80683  -0.80477  -0.79928  -0.79801  -0.79091
 Alpha  occ. eigenvalues --   -0.78335  -0.77980  -0.77652  -0.76858  -0.76695
 Alpha  occ. eigenvalues --   -0.76060  -0.75941  -0.75709  -0.75135  -0.74724
 Alpha  occ. eigenvalues --   -0.74585  -0.72311  -0.71830  -0.71647  -0.71590
 Alpha  occ. eigenvalues --   -0.71052  -0.70914  -0.70701  -0.70157  -0.69875
 Alpha  occ. eigenvalues --   -0.69644  -0.67296  -0.67075  -0.66458  -0.66431
 Alpha  occ. eigenvalues --   -0.64613  -0.64236  -0.63762  -0.63272  -0.62743
 Alpha  occ. eigenvalues --   -0.62480  -0.61532  -0.60663  -0.60331  -0.59638
 Alpha  occ. eigenvalues --   -0.59416  -0.59398  -0.59309  -0.59152  -0.58798
 Alpha  occ. eigenvalues --   -0.58608  -0.58287  -0.56864  -0.55059  -0.54554
 Alpha  occ. eigenvalues --   -0.54175  -0.53866  -0.53696  -0.53451  -0.53354
 Alpha  occ. eigenvalues --   -0.52809  -0.52706  -0.52353  -0.52289  -0.51898
 Alpha  occ. eigenvalues --   -0.50760  -0.50738  -0.50608  -0.50563  -0.50222
 Alpha  occ. eigenvalues --   -0.50054  -0.49832  -0.49619  -0.48824  -0.48766
 Alpha  occ. eigenvalues --   -0.48336  -0.48256  -0.48048  -0.47782  -0.47644
 Alpha  occ. eigenvalues --   -0.47485  -0.47302  -0.46975  -0.46718  -0.46578
 Alpha  occ. eigenvalues --   -0.46526  -0.46237  -0.46162  -0.46010  -0.45733
 Alpha  occ. eigenvalues --   -0.45341  -0.45327  -0.45238  -0.45152  -0.44749
 Alpha  occ. eigenvalues --   -0.44613  -0.44607  -0.44531  -0.44313  -0.44247
 Alpha  occ. eigenvalues --   -0.44111  -0.44095  -0.43915  -0.43882  -0.43586
 Alpha  occ. eigenvalues --   -0.43351  -0.43328  -0.43047  -0.42894  -0.42771
 Alpha  occ. eigenvalues --   -0.42610  -0.42285  -0.42209  -0.41953  -0.41892
 Alpha  occ. eigenvalues --   -0.41576  -0.41518  -0.41399  -0.41333  -0.41231
 Alpha  occ. eigenvalues --   -0.41065  -0.40775  -0.40660  -0.40623  -0.40479
 Alpha  occ. eigenvalues --   -0.40249  -0.40214  -0.40103  -0.39940  -0.39913
 Alpha  occ. eigenvalues --   -0.39671  -0.39605  -0.39501  -0.39016  -0.38792
 Alpha  occ. eigenvalues --   -0.38676  -0.38658  -0.38423  -0.38169  -0.38153
 Alpha  occ. eigenvalues --   -0.38143  -0.37978  -0.37785  -0.37764  -0.37694
 Alpha  occ. eigenvalues --   -0.37623  -0.37570  -0.37199  -0.37181  -0.37028
 Alpha  occ. eigenvalues --   -0.36924  -0.36841  -0.36800  -0.36653  -0.36613
 Alpha  occ. eigenvalues --   -0.36378  -0.36284  -0.36134  -0.35811  -0.35258
 Alpha  occ. eigenvalues --   -0.35077  -0.34823  -0.34426  -0.34396  -0.34176
 Alpha  occ. eigenvalues --   -0.33878  -0.33308  -0.33132  -0.32781  -0.32515
 Alpha  occ. eigenvalues --   -0.32240  -0.32195  -0.32147  -0.31712  -0.31360
 Alpha  occ. eigenvalues --   -0.31267  -0.30859  -0.30111  -0.29781  -0.29437
 Alpha  occ. eigenvalues --   -0.29108  -0.28808  -0.28688  -0.26938  -0.26911
 Alpha  occ. eigenvalues --   -0.26171  -0.26054  -0.26015  -0.25751  -0.25603
 Alpha  occ. eigenvalues --   -0.25433  -0.25219  -0.24968  -0.20967  -0.20732
 Alpha  occ. eigenvalues --   -0.19019  -0.18711
 Alpha virt. eigenvalues --   -0.11148  -0.10922  -0.05525  -0.05326  -0.04117
 Alpha virt. eigenvalues --   -0.03989  -0.02387  -0.01969  -0.01787  -0.00113
 Alpha virt. eigenvalues --    0.00300   0.01156   0.01312   0.01500   0.01849

 Mulliken charges:
               1
     1  Mg  12.000018
     2  C    5.999793
     3  C    6.000121
     4  C    6.000346
     5  C    5.999906
     6  N    6.999850
     7  C    6.000430
     8  C    5.999865
     9  C    6.000045
    10  C    5.999536
    11  C    6.000056
    12  C    5.999940
    13  C    5.999882
    14  H    1.000174
    15  N    7.000166
    16  C    5.999284
    17  C    5.999753
    18  C    5.999665
    19  C    5.999497
    20  C    6.000015
    21  C    5.999790
    22  O    7.999686
    23  C    6.000029
    24  N    7.000158
    25  C    5.999284
    26  C    6.000153
    27  C    5.999886
    28  C    6.000419
    29  C    6.000025
    30  C    5.999961
    31  C    5.999994
    32  N    6.999994
    33  C    6.000520
    34  C    6.000464
    35  C    6.000072
    36  C    6.000504
    37  C    6.000033
    38  C    6.000356
    39  O    8.000479
    40  C    6.000049
    41  C    5.999972
    42  O    8.000194
    43  O    7.999982
    44  C    5.999944
    45  H    0.999833
    46  H    0.999866
    47  H    1.000151
    48  H    1.000036
    49  H    1.000022
    50  H    1.000118
    51  H    0.999900
    52  H    0.999794
    53  H    0.999937
    54  H    1.000149
    55  H    1.000110
    56  H    0.999908
    57  H    0.999681
    58  H    0.999725
    59  H    0.999746
    60  H    0.999775
    61  H    0.999827
    62  H    0.999887
    63  H    1.000000
    64  H    1.000008
    65  H    1.000037
    66  H    0.999974
    67  H    0.999843
    68  H    0.999997
    69  H    1.000163
    70  H    0.999944
    71  H    1.000079
    72  H    0.999961
    73  H    1.000298
    74  H    1.000298
    75  H    1.000244
    76  H    1.000153
    77  H    1.000115
    78  H    1.000103
    79  H    1.000030
    80  Mg  11.997047
    81  C    6.004711
    82  C    5.976657
    83  C    5.987927
    84  C    6.013216
    85  N    6.995315
    86  C    5.977104
    87  C    6.004203
    88  C    5.991317
    89  C    6.035773
    90  C    5.997609
    91  C    6.006798
    92  C    5.998671
    93  H    0.994427
    94  N    6.992300
    95  C    6.051271
    96  C    6.010448
    97  C    6.018937
    98  C    6.025122
    99  C    6.000610
   100  C    6.014401
   101  O    8.025684
   102  C    5.995611
   103  N    7.002139
   104  C    6.034068
   105  C    5.990813
   106  C    6.004860
   107  C    5.970078
   108  C    5.998888
   109  C    6.006456
   110  C    6.001549
   111  N    7.002134
   112  C    5.968504
   113  C    5.967103
   114  C    5.996285
   115  C    5.978580
   116  C    6.000921
   117  C    5.982970
   118  O    7.967519
   119  C    6.000713
   120  C    5.994163
   121  O    7.995444
   122  O    7.998492
   123  C    6.000767
   124  H    1.008188
   125  H    1.006233
   126  H    0.994858
   127  H    1.001700
   128  H    1.001866
   129  H    1.004286
   130  H    1.013912
   131  H    0.996380
   132  H    0.987683
   133  H    1.007700
   134  H    0.996342
   135  H    1.003665
   136  H    1.013567
   137  H    1.013963
   138  H    1.015629
   139  H    1.013432
   140  H    1.006289
   141  H    1.009926
   142  H    0.999478
   143  H    1.002807
   144  H    1.010707
   145  H    0.997931
   146  H    1.000362
   147  H    0.992277
   148  H    1.005186
   149  H    0.996338
   150  H    1.003639
   151  H    0.990807
   152  H    0.988653
   153  H    0.977726
   154  H    0.979648
   155  H    0.993045
   156  H    0.998338
   157  H    0.992968
   158  H    0.996865
 Sum of Mulliken charges = 624.00000

 Dipole moment (field-independent basis, Debye):
    X=             -8.6848    Y=              0.0929    Z=             -5.2588  Tot=             10.1533
 Quadrupole moment (field-independent basis, Debye-Ang):
   XX=            487.9925   YY=             -1.3982   ZZ=             -1.0985
   XY=            -12.2852   XZ=            154.5395   YZ=             -2.4842

 Normal termination of Gaussian 16 at Thu Oct 14 22:17:45 2021.
