 Gaussian 16, Revision A.03,
 Gaussian 16:  ES64L-G16RevA.03 25-Dec-2016

 --------------------------------------------------------
 #p PBE1PBE/Def2SVP td=(nstates=5) density=(transition=1)
 --------------------------------------------------------

 --------------------------------
 TDDFT excited states in gaussian
 --------------------------------
 Symbolic Z-matrix:
 Charge =  0 Multiplicity = 1

                         Standard orientation:
 ---------------------------------------------------------------------
 Center     Atomic      Atomic             Coordinates (Angstroms)
 Number     Number       Type             X           Y           Z
 ---------------------------------------------------------------------
      1         12           0        8.683352    0.654561    0.297714
      2          6           0        7.326377   -0.963121   -2.368657
      3          6           0        7.517199    3.704223   -1.061749
      4          6           0        9.035613    2.028240    3.321470
      5          6           0        9.349369   -2.531406    1.862533
      6          7           0        7.597350    1.237671   -1.494534
      7          6           0        7.124542    0.492835   -2.438141
      8          6           0        6.635037    1.308404   -3.687286
      9          6           0        6.984390    2.806926   -3.345881
     10          6           0        7.443801    2.626024   -1.858105
     11          6           0        7.894200    3.535694   -4.335819
     12          6           0        5.060888    1.008024   -4.046083
     13          6           0        4.149342    0.484156   -2.948173
     14          1           0        2.630612    0.601909   -3.076478
     15          7           0        8.312400    2.601780    1.018162
     16          6           0        7.911933    3.714419    0.318128
     17          6           0        7.792602    4.801257    1.189870
     18          6           0        8.189690    4.352880    2.508478
     19          6           0        8.505686    2.909493    2.344064
     20          6           0        7.488672    6.191968    0.663599
     21          6           0        8.222191    5.255239    3.755277
     22          8           0        7.880786    6.451456    3.617779
     23          6           0        8.609262    4.846463    5.074566
     24          7           0        8.990581   -0.187527    2.409563
     25          6           0        9.274774    0.663442    3.354199
     26          6           0        9.820601   -0.016801    4.641877
     27          6           0        9.975451   -1.477739    4.165788
     28          6           0        9.425700   -1.471098    2.682220
     29          6           0       11.109361    0.536140    5.133876
     30          6           0        9.233688   -2.525322    5.122771
     31          6           0       10.170397   -3.486835    5.963707
     32          7           0        8.534880   -1.355454   -0.135350
     33          6           0        8.859162   -2.540522    0.536849
     34          6           0        8.562406   -3.696765   -0.365048
     35          6           0        7.932764   -3.096910   -1.464879
     36          6           0        7.902144   -1.682860   -1.279366
     37          6           0        8.790925   -5.112561   -0.147290
     38          6           0        7.292569   -3.440153   -2.650878
     39          8           0        7.081207   -4.514547   -3.232292
     40          6           0        6.953360   -2.086938   -3.338073
     41          6           0        7.621071   -2.075610   -4.733750
     42          8           0        7.087604   -1.868666   -5.810380
     43          8           0        8.973383   -2.332376   -4.665756
     44          6           0        9.719304   -2.388295   -5.928580
     45          1           0        7.078595    4.583396   -1.538004
     46          1           0        9.322607    2.447554    4.287833
     47          1           0        9.713004   -3.473883    2.276949
     48          1           0        7.321869    1.061499   -4.497294
     49          1           0        6.091422    3.425146   -3.248517
     50          1           0        8.842384    3.774286   -3.854423
     51          1           0        7.464958    4.480208   -4.672103
     52          1           0        8.085041    3.015387   -5.274458
     53          1           0        5.164965    0.333801   -4.896524
     54          1           0        4.479853    1.877811   -4.353385
     55          1           0        4.482050    1.039429   -2.071590
     56          1           0        4.455114   -0.551102   -2.795961
     57          1           0        8.173187    7.013931    0.874768
     58          1           0        6.473358    6.459454    0.957262
     59          1           0        7.436581    6.153148   -0.424292
     60          1           0        9.627572    4.485385    5.217579
     61          1           0        8.054512    3.957647    5.373481
     62          1           0        8.360916    5.572278    5.848288
     63          1           0        9.214964    0.016705    5.547422
     64          1           0       11.014135   -1.776415    4.023750
     65          1           0       11.032009    1.172552    6.015269
     66          1           0       11.511945    1.260857    4.425289
     67          1           0       11.811699   -0.271894    5.337924
     68          1           0        8.661759   -3.207844    4.492688
     69          1           0        8.626302   -2.070176    5.903922
     70          1           0        9.824713   -3.522126    6.996075
     71          1           0       11.154661   -3.022495    6.025996
     72          1           0       10.030859   -4.471491    5.517136
     73          1           0        9.679421   -5.147189    0.483601
     74          1           0        8.995628   -5.618865   -1.091292
     75          1           0        7.860325   -5.512140    0.254638
     76          1           0        5.927804   -2.035794   -3.703024
     77          1           0       10.609269   -2.998461   -5.773271
     78          1           0       10.116591   -1.457691   -6.333519
     79          1           0        9.129803   -2.747394   -6.772677
     80         12           0       -8.900850   -0.104421   -0.113236
     81          6           0       -6.215044   -2.344137   -0.037281
     82          6           0       -7.061075    2.083840   -1.724596
     83          6           0      -11.282244    2.292701    0.508510
     84          6           0      -10.694452   -2.240887    2.051025
     85          7           0       -6.932537   -0.214650   -0.858168
     86          6           0       -5.990853   -1.218498   -0.801237
     87          6           0       -4.782891   -0.910945   -1.676709
     88          6           0       -5.009612    0.600357   -2.001819
     89          6           0       -6.430174    0.812670   -1.609001
     90          6           0       -4.036229    1.633740   -1.477261
     91          6           0       -4.604856   -1.857050   -2.906924
     92          6           0       -3.376298   -1.571342   -3.777434
     93          1           0       -2.469358   -2.759432   -4.062739
     94          7           0       -9.114340    2.030931   -0.520801
     95          6           0       -8.276785    2.698414   -1.341584
     96          6           0       -8.806691    4.009936   -1.592722
     97          6           0       -9.995529    4.121996   -0.851353
     98          6           0      -10.163642    2.778098   -0.234476
     99          6           0       -8.116532    5.048758   -2.451266
    100          6           0      -10.964664    5.255148   -0.763582
    101          8           0      -11.937881    5.342991    0.032025
    102          6           0      -10.852812    6.433165   -1.723654
    103          7           0      -10.675836    0.007913    1.107976
    104          6           0      -11.429594    1.124653    1.235985
    105          6           0      -12.793221    0.770221    2.041109
    106          6           0      -12.743242   -0.797315    2.089248
    107          6           0      -11.334545   -1.073362    1.671463
    108          6           0      -12.762569    1.488529    3.446607
    109          6           0      -13.674654   -1.420445    0.986209
    110          6           0      -13.537812   -0.954069   -0.454807
    111          7           0       -8.584309   -2.008069    0.819755
    112          6           0       -9.422790   -2.701706    1.648544
    113          6           0       -8.775677   -3.883857    1.984760
    114          6           0       -7.479134   -3.854590    1.395154
    115          6           0       -7.408426   -2.681700    0.690499
    116          6           0       -9.227082   -4.973155    2.892500
    117          6           0       -6.173049   -4.529364    1.219637
    118          8           0       -5.687858   -5.560271    1.671489
    119          6           0       -5.335078   -3.597692    0.183145
    120          6           0       -3.941676   -3.403487    0.665322
    121          8           0       -3.606152   -3.289700    1.881634
    122          8           0       -3.146099   -3.547501   -0.385920
    123          6           0       -1.768529   -3.850421   -0.047970
    124          1           0       -6.537910    2.804512   -2.356757
    125          1           0      -12.066545    3.032328    0.686304
    126          1           0      -11.327277   -2.930570    2.611734
    127          1           0       -3.930080   -1.144538   -1.039049
    128          1           0       -5.011091    0.809163   -3.072183
    129          1           0       -3.051946    1.274853   -1.176513
    130          1           0       -4.501404    2.174158   -0.652408
    131          1           0       -4.022990    2.450327   -2.199413
    132          1           0       -5.508213   -1.837774   -3.517116
    133          1           0       -4.535863   -2.885815   -2.554905
    134          1           0       -2.605361   -1.045224   -3.214726
    135          1           0       -3.650302   -1.034259   -4.685968
    136          1           0       -7.111249    4.780479   -2.775909
    137          1           0       -7.860340    5.982849   -1.951921
    138          1           0       -8.677877    5.313485   -3.347849
    139          1           0       -9.950793    6.987770   -1.466548
    140          1           0      -11.589557    7.206645   -1.507961
    141          1           0      -10.946741    6.145475   -2.771424
    142          1           0      -13.650573    1.172045    1.501099
    143          1           0      -12.912491   -1.049911    3.135961
    144          1           0      -11.993369    2.256933    3.525947
    145          1           0      -12.568575    0.819731    4.285322
    146          1           0      -13.673106    2.041293    3.673350
    147          1           0      -14.641027   -1.141132    1.406105
    148          1           0      -13.648698   -2.508249    0.929656
    149          1           0      -12.915407   -0.060241   -0.502191
    150          1           0      -14.463917   -0.832735   -1.015635
    151          1           0      -13.083300   -1.820343   -0.935587
    152          1           0      -10.202857   -5.390613    2.642854
    153          1           0       -9.323129   -4.501329    3.869956
    154          1           0       -8.496869   -5.777313    2.977158
    155          1           0       -5.295912   -4.198402   -0.725177
    156          1           0       -1.387097   -4.634197   -0.703617
    157          1           0       -1.589075   -4.223513    0.960062
    158          1           0       -1.209506   -2.931376   -0.226898
 ---------------------------------------------------------------------

 SCF Done:  E(RPBE1PBE) =  -4067.35506688     A.U. after   18 cycles

 Excitation energies and oscillator strengths:

 Excited State   1:      Singlet-A      1.7408 eV  712.23 nm  f=0.0000  <S**2>=0.000
     312 -> 313        0.70708
 This state for optimization and/or second-order correction.
 Total Energy, E(TD-HF/TD-DFT) =  -4067.29109400
 Copying the excited state density for this state as the 1-particle RhoCI density.

 Excited State   2:      Singlet-A      1.8488 eV  670.60 nm  f=0.1378  <S**2>=0.000
     309 -> 315       -0.10246
     310 -> 316        0.11777
     311 -> 313        0.45304
     312 -> 314        0.52921

 Excited State   3:      Singlet-A      1.8571 eV  667.64 nm  f=0.6307  <S**2>=0.000
     309 -> 315       -0.12160
     310 -> 316       -0.10220
     311 -> 313        0.52981
     312 -> 314       -0.45250

 Excited State   4:      Singlet-A      1.9120 eV  648.46 nm  f=0.0000  <S**2>=0.000
     311 -> 314        0.70710

 Excited State   5:      Singlet-A      2.1939 eV  565.13 nm  f=0.0000  <S**2>=0.000
     310 -> 313        0.70707

 The electronic state is 1-A.
 Alpha  occ. eigenvalues --  -46.93819 -46.92656 -19.27147 -19.25612 -19.20456
 Alpha  occ. eigenvalues --  -19.19247 -19.19139 -19.19012 -19.18791 -19.17943
 Alpha  occ. eigenvalues --  -14.42819 -14.42227 -14.41501 -14.41274 -14.40218
 Alpha  occ. eigenvalues --  -14.39708 -14.39135 -14.37763 -10.36874 -10.36153
 Alpha  occ. eigenvalues --  -10.32571 -10.32084 -10.31772 -10.31671 -10.30679
 Alpha  occ. eigenvalues --  -10.29483 -10.29355 -10.29032 -10.28949 -10.28814
 Alpha  occ. eigenvalues --  -10.28803 -10.28745 -10.28694 -10.28660 -10.28596
 Alpha  occ. eigenvalues --  -10.28072 -10.27951 -10.27931 -10.27870 -10.27255
 Alpha  occ. eigenvalues --  -10.27245 -10.27158 -10.27074 -10.26959 -10.26543
 Alpha  occ. eigenvalues --  -10.26474 -10.26351 -10.26326 -10.26198 -10.26168
 Alpha  occ. eigenvalues --  -10.26120 -10.26058 -10.25972 -10.25855 -10.25712
 Alpha  occ. eigenvalues --  -10.25601 -10.25584 -10.25474 -10.25458 -10.25152
 Alpha  occ. eigenvalues --  -10.25149 -10.25111 -10.24920 -10.24907 -10.24891
 Alpha  occ. eigenvalues --  -10.24863 -10.24824 -10.24643 -10.24508 -10.24414
 Alpha  occ. eigenvalues --  -10.24206 -10.24131 -10.24116 -10.24087 -10.23746
 Alpha  occ. eigenvalues --  -10.23636 -10.23580 -10.23569 -10.23185 -10.23137
 Alpha  occ. eigenvalues --  -10.23124 -10.23059 -10.22779 -10.22674 -10.22441
 Alpha  occ. eigenvalues --  -10.22179  -3.15808  -3.14629  -1.88624  -1.88215
 Alpha  occ. eigenvalues --   -1.87996  -1.87477  -1.86972  -1.86865  -1.12773
 Alpha  occ. eigenvalues --   -1.10988  -1.03721  -1.03619  -1.02751  -1.02606
 Alpha  occ. eigenvalues --   -1.02282  -1.00619  -0.99789  -0.99704  -0.99226
 Alpha  occ. eigenvalues --   -0.98821  -0.98310  -0.97991  -0.97232  -0.97112
 Alpha  occ. eigenvalues --   -0.87357  -0.86171  -0.84147  -0.83784  -0.83692
 Alpha  occ. eigenvalues --   -0.83460  -0.83443  -0.82554  -0.82490  -0.82255
 Alpha  occ. eigenvalues --   -0.82032  -0.81341  -0.80116  -0.79877  -0.79122
 Alpha  occ. eigenvalues --   -0.78966  -0.78481  -0.77944  -0.77383  -0.77058
 Alpha  occ. eigenvalues --   -0.76894  -0.75926  -0.75799  -0.75520  -0.74749
 Alpha  occ. eigenvalues --   -0.74679  -0.72939  -0.72836  -0.71834  -0.71807
 Alpha  occ. eigenvalues --   -0.71528  -0.71437  -0.70742  -0.70375  -0.69814
 Alpha  occ. eigenvalues --   -0.69471  -0.67952  -0.67167  -0.66543  -0.66025
 Alpha  occ. eigenvalues --   -0.64090  -0.64056  -0.63476  -0.63314  -0.62929
 Alpha  occ. eigenvalues --   -0.62499  -0.62135  -0.61493  -0.60482  -0.60284
 Alpha  occ. eigenvalues --   -0.59726  -0.59659  -0.59515  -0.59230  -0.59159
 Alpha  occ. eigenvalues --   -0.58965  -0.57961  -0.57212  -0.55500  -0.55306
 Alpha  occ. eigenvalues --   -0.54687  -0.54148  -0.53761  -0.53679  -0.53267
 Alpha  occ. eigenvalues --   -0.53045  -0.52798  -0.52006  -0.51807  -0.51756
 Alpha  occ. eigenvalues --   -0.51118  -0.50677  -0.50401  -0.50377  -0.50151
 Alpha  occ. eigenvalues --   -0.50116  -0.49901  -0.49815  -0.49457  -0.49069
 Alpha  occ. eigenvalues --   -0.48787  -0.48531  -0.48104  -0.47903  -0.47845
 Alpha  occ. eigenvalues --   -0.47611  -0.47385  -0.47258  -0.47189  -0.46964
 Alpha  occ. eigenvalues --   -0.46891  -0.46205  -0.46205  -0.46030  -0.45821
 Alpha  occ. eigenvalues --   -0.45624  -0.45470  -0.45377  -0.45104  -0.44965
 Alpha  occ. eigenvalues --   -0.44745  -0.44629  -0.44570  -0.44332  -0.43988
 Alpha  occ. eigenvalues --   -0.43944  -0.43775  -0.43582  -0.43547  -0.43391
 Alpha  occ. eigenvalues --   -0.43382  -0.43154  -0.43132  -0.42903  -0.42811
 Alpha  occ. eigenvalues --   -0.42615  -0.42517  -0.42172  -0.42014  -0.41889
 Alpha  occ. eigenvalues --   -0.41655  -0.41553  -0.41464  -0.41356  -0.41109
 Alpha  occ. eigenvalues --   -0.41036  -0.40911  -0.40786  -0.40621  -0.40591
 Alpha  occ. eigenvalues --   -0.40544  -0.40204  -0.40073  -0.39976  -0.39892
 Alpha  occ. eigenvalues --   -0.39675  -0.39479  -0.39449  -0.39261  -0.39103
 Alpha  occ. eigenvalues --   -0.38885  -0.38707  -0.38647  -0.38514  -0.38425
 Alpha  occ. eigenvalues --   -0.38062  -0.37893  -0.37714  -0.37603  -0.37464
 Alpha  occ. eigenvalues --   -0.37340  -0.37330  -0.37184  -0.36971  -0.36910
 Alpha  occ. eigenvalues --   -0.36885  -0.36473  -0.36358  -0.36149  -0.36023
 Alpha  occ. eigenvalues --   -0.35999  -0.35768  -0.35679  -0.35535  -0.35206
 Alpha  occ. eigenvalues --   -0.35066  -0.34806  -0.34392  -0.34097  -0.34072
 Alpha  occ. eigenvalues --   -0.33787  -0.33539  -0.33183  -0.32995  -0.32728
 Alpha  occ. eigenvalues --   -0.32187  -0.32063  -0.31879  -0.31718  -0.31442
 Alpha  occ. eigenvalues --   -0.31440  -0.31175  -0.29902  -0.29742  -0.29420
 Alpha  occ. eigenvalues --   -0.29175  -0.29087  -0.28109  -0.27265  -0.27257
 Alpha  occ. eigenvalues --   -0.26497  -0.26244  -0.25986  -0.25515  -0.25135
 Alpha  occ. eigenvalues --   -0.25125  -0.24940  -0.24304  -0.21917  -0.20881
 Alpha  occ. eigenvalues --   -0.19430  -0.19207
 Alpha virt. eigenvalues --   -0.12049  -0.11647  -0.05539  -0.04800  -0.04314
 Alpha virt. eigenvalues --   -0.04001  -0.02462  -0.02143  -0.01933  -0.00922
 Alpha virt. eigenvalues --   -0.00095   0.00335   0.00698   0.00711   0.01077

 Mulliken charges:
               1
     1  Mg  12.000000
     2  C    6.000000
     3  C    5.999999
     4  C    6.000001
     5  C    6.000002
     6  N    7.000000
     7  C    5.999999
     8  C    6.000000
     9  C    6.000000
    10  C    6.000001
    11  C    6.000000
    12  C    6.000000
    13  C    6.000001
    14  H    1.000003
    15  N    7.000000
    16  C    6.000001
    17  C    6.000000
    18  C    6.000001
    19  C    6.000001
    20  C    6.000000
    21  C    6.000000
    22  O    8.000001
    23  C    6.000000
    24  N    7.000001
    25  C    6.000000
    26  C    6.000000
    27  C    6.000000
    28  C    5.999999
    29  C    6.000000
    30  C    6.000000
    31  C    6.000000
    32  N    7.000000
    33  C    5.999999
    34  C    6.000001
    35  C    6.000000
    36  C    6.000000
    37  C    6.000000
    38  C    6.000000
    39  O    8.000000
    40  C    6.000000
    41  C    6.000000
    42  O    8.000000
    43  O    8.000000
    44  C    6.000000
    45  H    1.000000
    46  H    1.000001
    47  H    1.000000
    48  H    1.000000
    49  H    1.000000
    50  H    1.000000
    51  H    1.000000
    52  H    1.000000
    53  H    1.000000
    54  H    1.000000
    55  H    1.000000
    56  H    1.000001
    57  H    1.000000
    58  H    1.000000
    59  H    1.000000
    60  H    1.000000
    61  H    1.000000
    62  H    1.000000
    63  H    1.000000
    64  H    1.000000
    65  H    1.000000
    66  H    1.000000
    67  H    1.000000
    68  H    1.000000
    69  H    1.000000
    70  H    1.000000
    71  H    1.000000
    72  H    1.000000
    73  H    1.000000
    74  H    1.000000
    75  H    1.000000
    76  H    1.000000
    77  H    1.000000
    78  H    1.000000
    79  H    1.000000
    80  Mg  12.000000
    81  C    6.000001
    82  C    5.999998
    83  C    5.999999
    84  C    6.000000
    85  N    7.000001
    86  C    6.000000
    87  C    5.999997
    88  C    6.000000
    89  C    6.000001
    90  C    5.999996
    91  C    6.000001
    92  C    5.999997
    93  H    0.999999
    94  N    7.000000
    95  C    6.000003
    96  C    6.000000
    97  C    6.000000
    98  C    6.000000
    99  C    6.000000
   100  C    6.000001
   101  O    8.000001
   102  C    6.000000
   103  N    7.000000
   104  C    6.000000
   105  C    6.000000
   106  C    6.000001
   107  C    5.999997
   108  C    6.000000
   109  C    6.000000
   110  C    6.000000
   111  N    7.000000
   112  C    5.999997
   113  C    5.999997
   114  C    6.000000
   115  C    5.999997
   116  C    6.000000
   117  C    5.999999
   118  O    7.999998
   119  C    6.000000
   120  C    5.999999
   121  O    8.000000
   122  O    8.000000
   123  C    6.000000
   124  H    1.000001
   125  H    1.000000
   126  H    0.999999
   127  H    1.000000
   128  H    1.000000
   129  H    1.000006
   130  H    1.000000
   131  H    1.000000
   132  H    0.999999
   133  H    1.000000
   134  H    1.000007
   135  H    1.000000
   136  H    1.000001
   137  H    1.000001
   138  H    1.000001
   139  H    1.000000
   140  H    1.000001
   141  H    1.000001
   142  H    1.000000
   143  H    1.000000
   144  H    1.000000
   145  H    1.000001
   146  H    1.000000
   147  H    0.999999
   148  H    1.000000
   149  H    0.999999
   150  H    1.000000
   151  H    1.000000
   152  H    0.999999
   153  H    0.999999
   154  H    0.999999
   155  H    1.000000
   156  H    1.000000
   157  H    1.000000
   158  H    1.000001
 Sum of Mulliken charges = 624.00000

 Dipole moment (field-independent basis, Debye):
    X=              0.0009    Y=              0.0008    Z=             -0.0002  Tot=              0.0012
 Quadrupole moment (field-independent basis, Debye-Ang):
   XX=             -0.0028   YY=              0.0001   ZZ=              0.0003
   XY=             -0.0036   XZ=              0.0035   YZ=              0.0005

 Normal termination of Gaussian 16 at Thu Oct 14 04:57:34 2021.
