 Gaussian 16, Revision A.03,
 Gaussian 16:  ES64L-G16RevA.03 25-Dec-2016

 --------------------------------------------------------
 #p PBE1PBE/Def2SVP td=(nstates=5) density=(transition=1)
 --------------------------------------------------------

 --------------------------------
 TDDFT excited states in gaussian
 --------------------------------
 Symbolic Z-matrix:
 Charge =  0 Multiplicity = 1

                         Standard orientation:
 ---------------------------------------------------------------------
 Center     Atomic      Atomic             Coordinates (Angstroms)
 Number     Number       Type             X           Y           Z
 ---------------------------------------------------------------------
      1         12           0      -20.689147   -0.549221   -0.128195
      2          6           0      -19.830761    2.852409   -0.681635
      3          6           0      -20.148280    0.127076    3.301397
      4          6           0      -21.100559   -3.725100    0.495405
      5          6           0      -20.868997   -1.008418   -3.571069
      6          7           0      -20.038743    1.317801    1.188905
      7          6           0      -19.860788    2.580880    0.679929
      8          6           0      -19.652081    3.634706    1.754275
      9          6           0      -19.633458    2.684556    3.027504
     10          6           0      -19.999292    1.289765    2.497034
     11          6           0      -18.321598    2.823375    3.794292
     12          6           0      -20.816835    4.649026    1.759536
     13          6           0      -20.500292    6.158738    2.083713
     14          1           0      -19.185004    6.483311    2.830361
     15          7           0      -20.711474   -1.652105    1.662596
     16          6           0      -20.386540   -1.197713    2.941053
     17          6           0      -20.517384   -2.328324    3.873743
     18          6           0      -20.897197   -3.447558    3.063338
     19          6           0      -20.951166   -2.922719    1.685423
     20          6           0      -20.213372   -2.235276    5.272817
     21          6           0      -21.170489   -4.884416    3.496360
     22          8           0      -21.396853   -5.772758    2.659487
     23          6           0      -21.347277   -5.222655    4.924526
     24          7           0      -20.846083   -2.163803   -1.372312
     25          6           0      -21.112928   -3.370797   -0.866493
     26          6           0      -21.232454   -4.441170   -1.999583
     27          6           0      -21.351297   -3.536773   -3.267208
     28          6           0      -20.995184   -2.173666   -2.762401
     29          6           0      -20.073486   -5.501869   -2.012685
     30          6           0      -22.868740   -3.613605   -3.687539
     31          6           0      -23.886839   -2.536640   -3.176668
     32          7           0      -20.520781    0.646435   -1.803178
     33          6           0      -20.609283    0.293934   -3.162080
     34          6           0      -20.310996    1.499266   -3.974835
     35          6           0      -19.956575    2.466021   -3.041137
     36          6           0      -20.109640    1.980788   -1.759607
     37          6           0      -20.131085    1.388913   -5.412151
     38          6           0      -19.388703    3.809477   -2.959335
     39          8           0      -19.053588    4.543157   -3.882434
     40          6           0      -19.250905    4.126931   -1.396627
     41          6           0      -17.847114    4.439374   -1.034027
     42          8           0      -17.014327    3.644204   -0.608242
     43          8           0      -17.616422    5.813103   -1.237333
     44          6           0      -16.313388    6.400718   -1.022545
     45          1           0      -20.244387    0.297580    4.376078
     46          1           0      -21.265407   -4.795892    0.634827
     47          1           0      -20.998273   -1.266813   -4.623869
     48          1           0      -18.710592    4.172239    1.638396
     49          1           0      -20.366038    3.100731    3.718503
     50          1           0      -18.429625    3.082087    4.847036
     51          1           0      -17.597847    3.528242    3.385017
     52          1           0      -17.875470    1.828322    3.820929
     53          1           0      -21.600639    4.335352    2.448896
     54          1           0      -21.192040    4.520466    0.743662
     55          1           0      -21.252188    6.565994    2.758828
     56          1           0      -20.718667    6.696454    1.161081
     57          1           0      -21.086762   -2.620209    5.799633
     58          1           0      -19.799566   -1.257639    5.518098
     59          1           0      -19.338297   -2.884197    5.320167
     60          1           0      -20.418254   -5.203370    5.495103
     61          1           0      -21.724198   -6.241668    5.009853
     62          1           0      -21.949873   -4.435431    5.376662
     63          1           0      -22.155990   -4.913244   -1.664346
     64          1           0      -20.751942   -3.916509   -4.095041
     65          1           0      -20.387922   -6.404181   -1.488053
     66          1           0      -19.191410   -5.004709   -1.610404
     67          1           0      -19.892356   -5.730160   -3.062874
     68          1           0      -23.216414   -4.642183   -3.589283
     69          1           0      -22.845700   -3.297182   -4.730770
     70          1           0      -24.755793   -3.130195   -2.894052
     71          1           0      -24.194749   -1.837057   -3.954831
     72          1           0      -23.586726   -1.971690   -2.294798
     73          1           0      -19.458418    0.556161   -5.613445
     74          1           0      -19.638449    2.307720   -5.731889
     75          1           0      -21.089626    1.414548   -5.929749
     76          1           0      -19.861837    5.021323   -1.270582
     77          1           0      -15.724868    6.493673   -1.934966
     78          1           0      -15.829797    5.983704   -0.139047
     79          1           0      -16.597470    7.379382   -0.634691
     80         12           0       19.855867   -0.811911   -0.136769
     81          6           0       21.484263    2.212309   -0.390417
     82          6           0       17.583586    0.720980    2.155669
     83          6           0       18.471539   -3.730332    0.436927
     84          6           0       22.199857   -2.299837   -2.247533
     85          7           0       19.633337    1.244839    0.719885
     86          6           0       20.386825    2.314162    0.447159
     87          6           0       19.779003    3.559302    1.171626
     88          6           0       18.604445    2.972244    2.081036
     89          6           0       18.627944    1.489924    1.660802
     90          6           0       18.823856    2.982890    3.581664
     91          6           0       19.360825    4.706998    0.240189
     92          6           0       19.945401    6.032918    0.697246
     93          1           0       19.250202    7.361626    0.366564
     94          7           0       18.199079   -1.386022    1.066490
     95          6           0       17.380493   -0.648789    1.872687
     96          6           0       16.359262   -1.414327    2.434781
     97          6           0       16.639446   -2.774657    2.060169
     98          6           0       17.815681   -2.683151    1.127617
     99          6           0       15.252743   -0.848599    3.313098
    100          6           0       15.955881   -4.052885    2.517574
    101          8           0       16.467587   -5.144648    2.202040
    102          6           0       14.785932   -4.035593    3.414382
    103          7           0       20.274587   -2.674760   -0.837115
    104          6           0       19.516995   -3.781975   -0.514766
    105          6           0       20.016392   -5.127766   -1.160092
    106          6           0       21.038045   -4.536901   -2.223006
    107          6           0       21.205785   -3.085167   -1.738388
    108          6           0       20.675540   -6.267566   -0.287276
    109          6           0       20.741394   -4.764942   -3.774568
    110          6           0       19.689053   -3.869170   -4.372797
    111          7           0       21.560815   -0.281648   -1.017650
    112          6           0       22.441711   -0.946501   -1.849293
    113          6           0       23.488596   -0.118247   -2.289754
    114          6           0       23.115186    1.124469   -1.765133
    115          6           0       21.925139    0.999737   -0.990588
    116          6           0       24.530032   -0.592855   -3.211225
    117          6           0       23.628209    2.436691   -1.668532
    118          8           0       24.707224    2.856930   -2.091087
    119          6           0       22.571790    3.270272   -0.771816
    120          6           0       23.262058    3.830003    0.376857
    121          8           0       23.634576    3.233387    1.361171
    122          8           0       23.547954    5.108918    0.166013
    123          6           0       24.337987    5.813502    1.129974
    124          1           0       16.926637    1.184914    2.893764
    125          1           0       18.121475   -4.760242    0.529394
    126          1           0       22.912885   -2.805482   -2.902104
    127          1           0       20.616182    3.831216    1.813715
    128          1           0       17.756411    3.637693    1.915598
    129          1           0       19.731546    3.494210    3.903612
    130          1           0       18.933459    1.964264    3.952836
    131          1           0       17.918730    3.324223    4.084905
    132          1           0       18.285046    4.824917    0.109042
    133          1           0       19.720713    4.465351   -0.759630
    134          1           0       20.896992    6.133130    0.173944
    135          1           0       20.050790    5.955228    1.779190
    136          1           0       15.226119    0.240503    3.276311
    137          1           0       15.493726   -1.056336    4.355862
    138          1           0       14.301935   -1.341150    3.112934
    139          1           0       14.674773   -4.992699    3.925231
    140          1           0       13.905606   -3.918110    2.781701
    141          1           0       14.886363   -3.241142    4.153488
    142          1           0       19.261268   -5.585265   -1.800092
    143          1           0       21.977159   -5.081996   -2.136501
    144          1           0       20.672167   -5.933304    0.749451
    145          1           0       21.747671   -6.286626   -0.486907
    146          1           0       20.271427   -7.277443   -0.363315
    147          1           0       20.333818   -5.772393   -3.854745
    148          1           0       21.632240   -4.769087   -4.401483
    149          1           0       19.963679   -3.715404   -5.415782
    150          1           0       19.443793   -2.909142   -3.920331
    151          1           0       18.747638   -4.413888   -4.301070
    152          1           0       24.276307   -1.368693   -3.933137
    153          1           0       25.504646   -0.795814   -2.768979
    154          1           0       24.739325    0.320473   -3.767539
    155          1           0       22.176775    4.076138   -1.390096
    156          1           0       23.728780    6.275904    1.907444
    157          1           0       24.824143    6.632339    0.599955
    158          1           0       25.041691    5.128844    1.603654
 ---------------------------------------------------------------------

 SCF Done:  E(RPBE1PBE) =  -4067.39126763     A.U. after   16 cycles

 Excitation energies and oscillator strengths:

 Excited State   1:      Singlet-A      1.8104 eV  684.83 nm  f=0.0000  <S**2>=0.000
     312 -> 313        0.70711
 This state for optimization and/or second-order correction.
 Total Energy, E(TD-HF/TD-DFT) =  -4067.32473546
 Copying the excited state density for this state as the 1-particle RhoCI density.

 Excited State   2:      Singlet-A      1.8680 eV  663.71 nm  f=0.3910  <S**2>=0.000
     309 -> 316       -0.16566
     311 -> 313        0.69315
     311 <- 313       -0.11111

 Excited State   3:      Singlet-A      1.8853 eV  657.63 nm  f=0.3701  <S**2>=0.000
     310 -> 315        0.18508
     312 -> 314        0.68858
     312 <- 314       -0.10055

 Excited State   4:      Singlet-A      2.1913 eV  565.81 nm  f=0.0000  <S**2>=0.000
     311 -> 314        0.70711

 Excited State   5:      Singlet-A      2.2397 eV  553.57 nm  f=0.1484  <S**2>=0.000
     309 -> 313        0.65947
     311 -> 316        0.23490

 The electronic state is 1-A.
 Alpha  occ. eigenvalues --  -46.91939 -46.91095 -19.25407 -19.24681 -19.20110
 Alpha  occ. eigenvalues --  -19.19682 -19.18903 -19.18839 -19.18794 -19.18411
 Alpha  occ. eigenvalues --  -14.41831 -14.41669 -14.41467 -14.41007 -14.39325
 Alpha  occ. eigenvalues --  -14.39231 -14.38744 -14.38664 -10.36483 -10.35213
 Alpha  occ. eigenvalues --  -10.32663 -10.32281 -10.31932 -10.31689 -10.29213
 Alpha  occ. eigenvalues --  -10.28913 -10.28893 -10.28713 -10.28576 -10.28433
 Alpha  occ. eigenvalues --  -10.28403 -10.28377 -10.28136 -10.28053 -10.27933
 Alpha  occ. eigenvalues --  -10.27889 -10.27798 -10.27164 -10.26980 -10.26790
 Alpha  occ. eigenvalues --  -10.26783 -10.26777 -10.26565 -10.26384 -10.26380
 Alpha  occ. eigenvalues --  -10.26197 -10.26125 -10.25977 -10.25894 -10.25870
 Alpha  occ. eigenvalues --  -10.25829 -10.25786 -10.25502 -10.25491 -10.25470
 Alpha  occ. eigenvalues --  -10.25190 -10.25151 -10.25136 -10.25048 -10.25047
 Alpha  occ. eigenvalues --  -10.25038 -10.25004 -10.24985 -10.24820 -10.24799
 Alpha  occ. eigenvalues --  -10.24691 -10.24462 -10.24442 -10.24281 -10.24154
 Alpha  occ. eigenvalues --  -10.24152 -10.23910 -10.23819 -10.23676 -10.23651
 Alpha  occ. eigenvalues --  -10.23513 -10.23279 -10.23217 -10.23162 -10.23041
 Alpha  occ. eigenvalues --  -10.22796 -10.22759 -10.22723 -10.22595 -10.22442
 Alpha  occ. eigenvalues --  -10.22373  -3.14064  -3.13453  -1.86912  -1.86451
 Alpha  occ. eigenvalues --   -1.86295  -1.86273  -1.85846  -1.85681  -1.12685
 Alpha  occ. eigenvalues --   -1.09418  -1.04533  -1.03794  -1.03643  -1.03154
 Alpha  occ. eigenvalues --   -1.02562  -1.02085  -0.99307  -0.99278  -0.98622
 Alpha  occ. eigenvalues --   -0.98360  -0.97926  -0.97793  -0.97202  -0.96212
 Alpha  occ. eigenvalues --   -0.86438  -0.86405  -0.83983  -0.83657  -0.83017
 Alpha  occ. eigenvalues --   -0.82944  -0.82760  -0.82609  -0.81938  -0.81883
 Alpha  occ. eigenvalues --   -0.81619  -0.81145  -0.81061  -0.80661  -0.78856
 Alpha  occ. eigenvalues --   -0.78363  -0.78121  -0.77645  -0.77221  -0.76708
 Alpha  occ. eigenvalues --   -0.76514  -0.76281  -0.75549  -0.75219  -0.74966
 Alpha  occ. eigenvalues --   -0.74844  -0.73116  -0.72594  -0.71655  -0.71494
 Alpha  occ. eigenvalues --   -0.71229  -0.71215  -0.70265  -0.70118  -0.69620
 Alpha  occ. eigenvalues --   -0.69160  -0.67915  -0.66660  -0.65879  -0.65791
 Alpha  occ. eigenvalues --   -0.63994  -0.63679  -0.63298  -0.63233  -0.62385
 Alpha  occ. eigenvalues --   -0.62161  -0.61463  -0.61068  -0.59846  -0.59422
 Alpha  occ. eigenvalues --   -0.59374  -0.59220  -0.59138  -0.59028  -0.58887
 Alpha  occ. eigenvalues --   -0.58800  -0.56892  -0.56150  -0.54936  -0.54792
 Alpha  occ. eigenvalues --   -0.54584  -0.53956  -0.53605  -0.53575  -0.53154
 Alpha  occ. eigenvalues --   -0.52826  -0.52606  -0.52483  -0.52202  -0.51782
 Alpha  occ. eigenvalues --   -0.51124  -0.50850  -0.50602  -0.50099  -0.49818
 Alpha  occ. eigenvalues --   -0.49657  -0.49158  -0.48915  -0.48837  -0.48456
 Alpha  occ. eigenvalues --   -0.48217  -0.48111  -0.47836  -0.47791  -0.47736
 Alpha  occ. eigenvalues --   -0.47383  -0.47301  -0.46923  -0.46911  -0.46789
 Alpha  occ. eigenvalues --   -0.46635  -0.46378  -0.46353  -0.46193  -0.46001
 Alpha  occ. eigenvalues --   -0.45867  -0.45357  -0.45176  -0.44921  -0.44783
 Alpha  occ. eigenvalues --   -0.44509  -0.44491  -0.44339  -0.44282  -0.44111
 Alpha  occ. eigenvalues --   -0.44068  -0.43894  -0.43739  -0.43689  -0.43540
 Alpha  occ. eigenvalues --   -0.43484  -0.43142  -0.43072  -0.43005  -0.42816
 Alpha  occ. eigenvalues --   -0.42714  -0.42437  -0.42256  -0.42089  -0.41998
 Alpha  occ. eigenvalues --   -0.41664  -0.41625  -0.41303  -0.41235  -0.41113
 Alpha  occ. eigenvalues --   -0.40934  -0.40796  -0.40778  -0.40228  -0.40225
 Alpha  occ. eigenvalues --   -0.40201  -0.39870  -0.39756  -0.39695  -0.39425
 Alpha  occ. eigenvalues --   -0.39309  -0.39206  -0.39089  -0.38998  -0.38833
 Alpha  occ. eigenvalues --   -0.38784  -0.38666  -0.38506  -0.38401  -0.38278
 Alpha  occ. eigenvalues --   -0.38255  -0.38183  -0.38062  -0.37780  -0.37537
 Alpha  occ. eigenvalues --   -0.37520  -0.37376  -0.36861  -0.36836  -0.36681
 Alpha  occ. eigenvalues --   -0.36333  -0.36315  -0.36099  -0.36079  -0.35939
 Alpha  occ. eigenvalues --   -0.35936  -0.35853  -0.35445  -0.35389  -0.35234
 Alpha  occ. eigenvalues --   -0.34839  -0.34248  -0.34126  -0.33806  -0.33479
 Alpha  occ. eigenvalues --   -0.33113  -0.32738  -0.32734  -0.32447  -0.32198
 Alpha  occ. eigenvalues --   -0.32173  -0.31734  -0.31616  -0.31338  -0.31159
 Alpha  occ. eigenvalues --   -0.31068  -0.30761  -0.29434  -0.29314  -0.29099
 Alpha  occ. eigenvalues --   -0.28863  -0.28718  -0.28460  -0.27100  -0.26634
 Alpha  occ. eigenvalues --   -0.25881  -0.25855  -0.25801  -0.25699  -0.25490
 Alpha  occ. eigenvalues --   -0.25423  -0.25264  -0.25140  -0.21087  -0.20799
 Alpha  occ. eigenvalues --   -0.19086  -0.18471
 Alpha virt. eigenvalues --   -0.11491  -0.10708  -0.05193  -0.05027  -0.04009
 Alpha virt. eigenvalues --   -0.03706  -0.02214  -0.01899   0.00227   0.00257
 Alpha virt. eigenvalues --    0.00511   0.01054   0.01247   0.01590   0.01777

 Mulliken charges:
               1
     1  Mg  12.000000
     2  C    6.000000
     3  C    6.000000
     4  C    6.000000
     5  C    6.000000
     6  N    7.000000
     7  C    6.000000
     8  C    6.000000
     9  C    6.000000
    10  C    6.000000
    11  C    6.000000
    12  C    6.000000
    13  C    6.000000
    14  H    1.000000
    15  N    7.000000
    16  C    6.000000
    17  C    6.000000
    18  C    6.000000
    19  C    6.000000
    20  C    6.000000
    21  C    6.000000
    22  O    8.000000
    23  C    6.000000
    24  N    7.000000
    25  C    6.000000
    26  C    6.000000
    27  C    6.000000
    28  C    6.000000
    29  C    6.000000
    30  C    6.000000
    31  C    6.000000
    32  N    7.000000
    33  C    6.000000
    34  C    6.000000
    35  C    6.000000
    36  C    6.000000
    37  C    6.000000
    38  C    6.000000
    39  O    8.000000
    40  C    6.000000
    41  C    6.000000
    42  O    8.000000
    43  O    8.000000
    44  C    6.000000
    45  H    1.000000
    46  H    1.000000
    47  H    1.000000
    48  H    1.000000
    49  H    1.000000
    50  H    1.000000
    51  H    1.000000
    52  H    1.000000
    53  H    1.000000
    54  H    1.000000
    55  H    1.000000
    56  H    1.000000
    57  H    1.000000
    58  H    1.000000
    59  H    1.000000
    60  H    1.000000
    61  H    1.000000
    62  H    1.000000
    63  H    1.000000
    64  H    1.000000
    65  H    1.000000
    66  H    1.000000
    67  H    1.000000
    68  H    1.000000
    69  H    1.000000
    70  H    1.000000
    71  H    1.000000
    72  H    1.000000
    73  H    1.000000
    74  H    1.000000
    75  H    1.000000
    76  H    1.000000
    77  H    1.000000
    78  H    1.000000
    79  H    1.000000
    80  Mg  12.000000
    81  C    6.000000
    82  C    6.000000
    83  C    6.000000
    84  C    6.000000
    85  N    7.000000
    86  C    6.000000
    87  C    6.000000
    88  C    6.000000
    89  C    6.000000
    90  C    6.000000
    91  C    6.000000
    92  C    6.000000
    93  H    1.000000
    94  N    7.000000
    95  C    6.000000
    96  C    6.000000
    97  C    6.000000
    98  C    6.000000
    99  C    6.000000
   100  C    6.000000
   101  O    8.000000
   102  C    6.000000
   103  N    7.000000
   104  C    6.000000
   105  C    6.000000
   106  C    6.000000
   107  C    6.000000
   108  C    6.000000
   109  C    6.000000
   110  C    6.000000
   111  N    7.000000
   112  C    6.000000
   113  C    6.000000
   114  C    6.000000
   115  C    6.000000
   116  C    6.000000
   117  C    6.000000
   118  O    8.000000
   119  C    6.000000
   120  C    6.000000
   121  O    8.000000
   122  O    8.000000
   123  C    6.000000
   124  H    1.000000
   125  H    1.000000
   126  H    1.000000
   127  H    1.000000
   128  H    1.000000
   129  H    1.000000
   130  H    1.000000
   131  H    1.000000
   132  H    1.000000
   133  H    1.000000
   134  H    1.000000
   135  H    1.000000
   136  H    1.000000
   137  H    1.000000
   138  H    1.000000
   139  H    1.000000
   140  H    1.000000
   141  H    1.000000
   142  H    1.000000
   143  H    1.000000
   144  H    1.000000
   145  H    1.000000
   146  H    1.000000
   147  H    1.000000
   148  H    1.000000
   149  H    1.000000
   150  H    1.000000
   151  H    1.000000
   152  H    1.000000
   153  H    1.000000
   154  H    1.000000
   155  H    1.000000
   156  H    1.000000
   157  H    1.000000
   158  H    1.000000
 Sum of Mulliken charges = 624.00000

 Dipole moment (field-independent basis, Debye):
    X=              0.0000    Y=              0.0000    Z=             -0.0000  Tot=              0.0000
 Quadrupole moment (field-independent basis, Debye-Ang):
   XX=              0.0000   YY=             -0.0000   ZZ=             -0.0000
   XY=              0.0000   XZ=             -0.0000   YZ=              0.0000

 Normal termination of Gaussian 16 at Thu Oct 14 12:13:17 2021.
