 Gaussian 16, Revision A.03,
 Gaussian 16:  ES64L-G16RevA.03 25-Dec-2016

 --------------------------------------------------------
 #p PBE1PBE/Def2SVP td=(nstates=5) density=(transition=1)
 --------------------------------------------------------

 --------------------------------
 TDDFT excited states in gaussian
 --------------------------------
 Symbolic Z-matrix:
 Charge =  0 Multiplicity = 1

                         Standard orientation:
 ---------------------------------------------------------------------
 Center     Atomic      Atomic             Coordinates (Angstroms)
 Number     Number       Type             X           Y           Z
 ---------------------------------------------------------------------
      1         12           0       11.002962    0.184931   -0.057984
      2          6           0        7.818428    0.160910    1.765141
      3          6           0       10.500936   -3.223649   -0.388489
      4          6           0       13.094381    0.293423   -2.462993
      5          6           0       10.808442    3.763915    0.196583
      6          7           0        9.174152   -1.346876    0.545171
      7          6           0        8.023326   -1.137651    1.273242
      8          6           0        7.182189   -2.465764    1.310333
      9          6           0        8.171087   -3.561038    0.874831
     10          6           0        9.346761   -2.674822    0.312438
     11          6           0        8.735256   -4.553851    1.974341
     12          6           0        5.863850   -2.400717    0.465564
     13          6           0        4.647494   -3.073873    1.064019
     14          1           0        4.266396   -4.474229    0.489276
     15          7           0       11.794232   -1.248249   -1.170275
     16          6           0       11.568183   -2.596683   -1.114110
     17          6           0       12.424327   -3.293900   -2.112458
     18          6           0       13.161831   -2.251693   -2.732259
     19          6           0       12.664313   -1.004561   -2.156864
     20          6           0       12.429146   -4.795045   -2.444503
     21          6           0       14.093435   -2.333853   -3.944899
     22          8           0       14.331727   -3.451341   -4.394948
     23          6           0       14.719433   -1.229884   -4.558551
     24          7           0       11.636482    1.867667   -1.183135
     25          6           0       12.733392    1.577711   -1.970042
     26          6           0       13.368685    2.941968   -2.443874
     27          6           0       12.417987    4.027142   -1.822585
     28          6           0       11.638252    3.168147   -0.798355
     29          6           0       14.864421    3.150786   -2.080292
     30          6           0       11.480341    4.862896   -2.784177
     31          6           0       12.099100    6.045251   -3.549966
     32          7           0        9.679405    1.732252    0.816039
     33          6           0        9.824871    3.100248    0.931817
     34          6           0        8.835619    3.673965    1.811612
     35          6           0        8.023985    2.536604    2.180452
     36          6           0        8.503349    1.348259    1.526479
     37          6           0        8.722326    5.137117    2.110490
     38          6           0        6.875345    2.174293    2.883064
     39          8           0        6.010642    2.855907    3.416780
     40          6           0        6.601256    0.677089    2.559076
     41          6           0        6.532555    0.003837    3.909922
     42          8           0        5.622367   -0.759045    4.243328
     43          8           0        7.702581    0.176050    4.753958
     44          6           0        7.733088   -0.773188    5.865507
     45          1           0       10.407007   -4.309608   -0.446254
     46          1           0       13.936912    0.470505   -3.134728
     47          1           0       10.933812    4.847311    0.249672
     48          1           0        6.997383   -2.726923    2.353301
     49          1           0        7.801500   -4.123072    0.017152
     50          1           0        8.220366   -5.495050    1.782801
     51          1           0        8.450377   -4.234808    2.976497
     52          1           0        9.819838   -4.657992    2.003125
     53          1           0        5.908046   -2.927807   -0.487840
     54          1           0        5.567708   -1.363803    0.305333
     55          1           0        3.830573   -2.354043    1.012827
     56          1           0        4.853088   -3.240307    2.121916
     57          1           0       13.452853   -5.133577   -2.606459
     58          1           0       11.784892   -4.869144   -3.320524
     59          1           0       12.054880   -5.382062   -1.606894
     60          1           0       15.437368   -0.814033   -3.850911
     61          1           0       14.037120   -0.481470   -4.961691
     62          1           0       15.142725   -1.704096   -5.444679
     63          1           0       13.336053    3.089216   -3.522869
     64          1           0       12.972135    4.732620   -1.203929
     65          1           0       14.889475    4.074311   -1.501702
     66          1           0       15.426226    3.273992   -3.005670
     67          1           0       15.118719    2.246252   -1.526442
     68          1           0       10.705938    5.237816   -2.114176
     69          1           0       11.089158    4.237966   -3.587279
     70          1           0       13.107221    6.046589   -3.134496
     71          1           0       11.663308    6.993467   -3.231983
     72          1           0       12.126442    5.973787   -4.637008
     73          1           0        8.606493    5.619007    1.140571
     74          1           0        9.638217    5.571510    2.510770
     75          1           0        7.799611    5.394102    2.630875
     76          1           0        5.613112    0.629920    2.101827
     77          1           0        8.816662   -0.757063    5.988573
     78          1           0        7.208268   -1.699266    5.630994
     79          1           0        7.315882   -0.248651    6.725190
     80         12           0      -10.433942    0.135682   -0.639335
     81          6           0       -7.999636   -1.753972    0.879606
     82          6           0       -9.625632    2.781882    1.597601
     83          6           0      -13.122683    1.918589   -1.650069
     84          6           0      -11.411302   -2.468723   -2.513497
     85          7           0       -8.971146    0.463380    1.054475
     86          6           0       -8.089943   -0.494204    1.479768
     87          6           0       -7.157496    0.057513    2.560551
     88          6           0       -7.867459    1.453071    2.881070
     89          6           0       -8.886470    1.585791    1.787378
     90          6           0       -8.432428    1.567561    4.344423
     91          6           0       -5.648046    0.240478    2.072841
     92          6           0       -4.464298   -0.156676    2.921604
     93          1           0       -4.447301    0.256865    4.350330
     94          7           0      -11.264428    2.123092   -0.153053
     95          6           0      -10.702746    3.078307    0.620106
     96          6           0      -11.389320    4.320276    0.495289
     97          6           0      -12.411638    4.110769   -0.483289
     98          6           0      -12.327248    2.642343   -0.742020
     99          6           0      -10.965887    5.462672    1.361115
    100          6           0      -13.486733    5.073851   -0.957181
    101          8           0      -14.478039    4.698792   -1.590997
    102          6           0      -13.380436    6.555230   -0.640245
    103          7           0      -12.164177   -0.274317   -1.811586
    104          6           0      -13.060649    0.677588   -2.182037
    105          6           0      -13.997033    0.145054   -3.265376
    106          6           0      -13.310191   -1.218488   -3.656247
    107          6           0      -12.221434   -1.335955   -2.607930
    108          6           0      -15.534008    0.054234   -3.031596
    109          6           0      -12.814085   -1.363857   -5.155299
    110          6           0      -11.391738   -1.005504   -5.530613
    111          7           0       -9.929693   -1.745102   -0.743895
    112          6           0      -10.281768   -2.718993   -1.643594
    113          6           0       -9.617109   -3.952266   -1.427974
    114          6           0       -8.664522   -3.615246   -0.471488
    115          6           0       -8.881839   -2.261414   -0.107479
    116          6           0       -9.717972   -5.321029   -2.088470
    117          6           0       -7.606806   -4.080087    0.314191
    118          8           0       -7.149863   -5.206919    0.370789
    119          6           0       -7.084778   -2.890337    1.299440
    120          6           0       -7.258386   -3.341172    2.674742
    121          8           0       -8.346946   -3.576470    3.235685
    122          8           0       -6.084631   -3.547498    3.328638
    123          6           0       -6.098816   -4.294095    4.591629
    124          1           0       -9.233453    3.545207    2.272318
    125          1           0      -13.816952    2.557603   -2.199334
    126          1           0      -11.446544   -3.190618   -3.331186
    127          1           0       -7.113223   -0.664678    3.376769
    128          1           0       -7.159480    2.280371    2.828862
    129          1           0       -7.939818    2.413300    4.822947
    130          1           0       -8.254806    0.585562    4.783204
    131          1           0       -9.482372    1.852585    4.417916
    132          1           0       -5.613390    1.316336    1.900392
    133          1           0       -5.522598   -0.114548    1.050488
    134          1           0       -3.536910    0.116729    2.418365
    135          1           0       -4.516443   -1.242145    2.998002
    136          1           0      -10.932078    6.320665    0.690687
    137          1           0       -9.948280    5.316833    1.724327
    138          1           0      -11.603041    5.680943    2.218821
    139          1           0      -12.377197    6.964574   -0.762406
    140          1           0      -13.891559    6.766068    0.300117
    141          1           0      -13.975451    7.034863   -1.418015
    142          1           0      -13.942269    0.915795   -4.034480
    143          1           0      -14.002854   -2.059125   -3.640870
    144          1           0      -15.840984   -0.987552   -2.940280
    145          1           0      -16.001407    0.482876   -3.917952
    146          1           0      -15.728593    0.632182   -2.128818
    147          1           0      -13.477280   -0.745906   -5.759087
    148          1           0      -12.934566   -2.396376   -5.483934
    149          1           0      -11.356448   -0.309398   -6.368973
    150          1           0      -10.775485   -1.869680   -5.782212
    151          1           0      -10.979363   -0.537415   -4.636760
    152          1           0      -10.445333   -5.271868   -2.899704
    153          1           0      -10.009017   -6.058452   -1.339979
    154          1           0       -8.737451   -5.586844   -2.482465
    155          1           0       -6.022619   -2.892503    1.052954
    156          1           0       -5.147692   -4.765250    4.839956
    157          1           0       -6.931114   -4.985487    4.719923
    158          1           0       -6.148252   -3.528415    5.365988
 ---------------------------------------------------------------------

 SCF Done:  E(RPBE1PBE) =  -4067.35054747     A.U. after   16 cycles

 Excitation energies and oscillator strengths:

 Excited State   1:      Singlet-A      1.8699 eV  663.06 nm  f=0.2030  <S**2>=0.000
     309 -> 315        0.18681
     311 -> 313        0.67032
     312 -> 314       -0.14979
 This state for optimization and/or second-order correction.
 Total Energy, E(TD-HF/TD-DFT) =  -4067.28183098
 Copying the excited state density for this state as the 1-particle RhoCI density.

 Excited State   2:      Singlet-A      1.8775 eV  660.38 nm  f=0.5239  <S**2>=0.000
     310 -> 316        0.16721
     311 -> 313        0.14800
     312 -> 314        0.67701
     312 <- 314       -0.10776

 Excited State   3:      Singlet-A      1.8782 eV  660.11 nm  f=0.0000  <S**2>=0.000
     312 -> 313        0.70709

 Excited State   4:      Singlet-A      1.9654 eV  630.83 nm  f=0.0000  <S**2>=0.000
     311 -> 314        0.70710

 Excited State   5:      Singlet-A      2.2051 eV  562.26 nm  f=0.1700  <S**2>=0.000
     310 -> 314        0.66950
     312 -> 316       -0.21314

 The electronic state is 1-A.
 Alpha  occ. eigenvalues --  -46.94192 -46.92351 -19.25491 -19.24444 -19.20401
 Alpha  occ. eigenvalues --  -19.18976 -19.18915 -19.18762 -19.18560 -19.18254
 Alpha  occ. eigenvalues --  -14.42133 -14.41692 -14.41460 -14.40896 -14.40378
 Alpha  occ. eigenvalues --  -14.39026 -14.39002 -14.38969 -10.36528 -10.35729
 Alpha  occ. eigenvalues --  -10.32311 -10.32017 -10.31570 -10.30775 -10.29983
 Alpha  occ. eigenvalues --  -10.29612 -10.29519 -10.29129 -10.28923 -10.28841
 Alpha  occ. eigenvalues --  -10.28652 -10.28640 -10.28360 -10.28064 -10.28056
 Alpha  occ. eigenvalues --  -10.27645 -10.27542 -10.27537 -10.27532 -10.27302
 Alpha  occ. eigenvalues --  -10.27208 -10.27182 -10.26721 -10.26719 -10.26695
 Alpha  occ. eigenvalues --  -10.26584 -10.26250 -10.26182 -10.26077 -10.26056
 Alpha  occ. eigenvalues --  -10.26036 -10.26022 -10.25852 -10.25782 -10.25733
 Alpha  occ. eigenvalues --  -10.25732 -10.25630 -10.25614 -10.25600 -10.25244
 Alpha  occ. eigenvalues --  -10.25195 -10.25124 -10.25099 -10.25018 -10.24994
 Alpha  occ. eigenvalues --  -10.24710 -10.24587 -10.24469 -10.24454 -10.24223
 Alpha  occ. eigenvalues --  -10.24151 -10.24146 -10.24123 -10.23995 -10.23824
 Alpha  occ. eigenvalues --  -10.23772 -10.23760 -10.23554 -10.23363 -10.23347
 Alpha  occ. eigenvalues --  -10.23279 -10.23144 -10.23089 -10.22682 -10.22340
 Alpha  occ. eigenvalues --  -10.22263  -3.16185  -3.14540  -1.88966  -1.88610
 Alpha  occ. eigenvalues --   -1.88371  -1.87363  -1.86875  -1.86812  -1.10416
 Alpha  occ. eigenvalues --   -1.08737  -1.05150  -1.04554  -1.04001  -1.03871
 Alpha  occ. eigenvalues --   -1.01250  -1.00432  -0.99940  -0.99620  -0.99176
 Alpha  occ. eigenvalues --   -0.98628  -0.98062  -0.97968  -0.97950  -0.95900
 Alpha  occ. eigenvalues --   -0.87377  -0.86828  -0.83306  -0.83248  -0.83176
 Alpha  occ. eigenvalues --   -0.82829  -0.82405  -0.82244  -0.82013  -0.81548
 Alpha  occ. eigenvalues --   -0.81325  -0.81172  -0.80577  -0.80411  -0.79287
 Alpha  occ. eigenvalues --   -0.78404  -0.78179  -0.77975  -0.77893  -0.76889
 Alpha  occ. eigenvalues --   -0.76756  -0.75846  -0.75589  -0.75330  -0.74455
 Alpha  occ. eigenvalues --   -0.74296  -0.72569  -0.72522  -0.71725  -0.71656
 Alpha  occ. eigenvalues --   -0.71364  -0.71222  -0.70373  -0.70196  -0.69691
 Alpha  occ. eigenvalues --   -0.69667  -0.67861  -0.67400  -0.66439  -0.65832
 Alpha  occ. eigenvalues --   -0.63892  -0.63560  -0.63492  -0.63102  -0.62358
 Alpha  occ. eigenvalues --   -0.62208  -0.61430  -0.61358  -0.60067  -0.59889
 Alpha  occ. eigenvalues --   -0.59834  -0.59528  -0.59528  -0.59096  -0.58665
 Alpha  occ. eigenvalues --   -0.58609  -0.56666  -0.56469  -0.54936  -0.54581
 Alpha  occ. eigenvalues --   -0.54486  -0.54248  -0.53829  -0.53569  -0.53488
 Alpha  occ. eigenvalues --   -0.52696  -0.52270  -0.51912  -0.51749  -0.51599
 Alpha  occ. eigenvalues --   -0.51282  -0.50700  -0.50332  -0.49693  -0.49437
 Alpha  occ. eigenvalues --   -0.49420  -0.49192  -0.48786  -0.48481  -0.48434
 Alpha  occ. eigenvalues --   -0.48358  -0.48170  -0.47913  -0.47685  -0.47589
 Alpha  occ. eigenvalues --   -0.47524  -0.47172  -0.47075  -0.46995  -0.46655
 Alpha  occ. eigenvalues --   -0.46581  -0.46462  -0.46458  -0.45970  -0.45830
 Alpha  occ. eigenvalues --   -0.45649  -0.45299  -0.45234  -0.44909  -0.44616
 Alpha  occ. eigenvalues --   -0.44575  -0.44551  -0.44320  -0.44108  -0.43994
 Alpha  occ. eigenvalues --   -0.43934  -0.43680  -0.43679  -0.43511  -0.43360
 Alpha  occ. eigenvalues --   -0.43284  -0.43200  -0.43090  -0.43001  -0.42908
 Alpha  occ. eigenvalues --   -0.42692  -0.42661  -0.42460  -0.42358  -0.41990
 Alpha  occ. eigenvalues --   -0.41918  -0.41674  -0.41519  -0.41461  -0.41183
 Alpha  occ. eigenvalues --   -0.41015  -0.40968  -0.40780  -0.40659  -0.40585
 Alpha  occ. eigenvalues --   -0.40452  -0.40221  -0.39940  -0.39807  -0.39556
 Alpha  occ. eigenvalues --   -0.39555  -0.39330  -0.39205  -0.39062  -0.38997
 Alpha  occ. eigenvalues --   -0.38789  -0.38685  -0.38636  -0.38536  -0.38268
 Alpha  occ. eigenvalues --   -0.38105  -0.38047  -0.37819  -0.37579  -0.37466
 Alpha  occ. eigenvalues --   -0.37413  -0.37201  -0.36932  -0.36898  -0.36797
 Alpha  occ. eigenvalues --   -0.36618  -0.36435  -0.36424  -0.36222  -0.36166
 Alpha  occ. eigenvalues --   -0.36007  -0.35814  -0.35297  -0.35241  -0.35109
 Alpha  occ. eigenvalues --   -0.34901  -0.34834  -0.34604  -0.34310  -0.34250
 Alpha  occ. eigenvalues --   -0.33858  -0.33303  -0.33064  -0.32939  -0.32613
 Alpha  occ. eigenvalues --   -0.32211  -0.32108  -0.31479  -0.31392  -0.30933
 Alpha  occ. eigenvalues --   -0.30383  -0.30325  -0.29731  -0.29589  -0.29285
 Alpha  occ. eigenvalues --   -0.28489  -0.28477  -0.27819  -0.27165  -0.26830
 Alpha  occ. eigenvalues --   -0.26708  -0.26389  -0.26123  -0.25984  -0.25413
 Alpha  occ. eigenvalues --   -0.25239  -0.25236  -0.24503  -0.21440  -0.20673
 Alpha  occ. eigenvalues --   -0.19167  -0.18920
 Alpha virt. eigenvalues --   -0.11390  -0.11315  -0.06167  -0.04632  -0.04434
 Alpha virt. eigenvalues --   -0.03785  -0.02477  -0.02207  -0.01779  -0.00818
 Alpha virt. eigenvalues --    0.00038   0.00072   0.00340   0.01352   0.01978

 Mulliken charges:
               1
     1  Mg  12.003171
     2  C    5.985433
     3  C    5.999333
     4  C    6.027885
     5  C    5.989370
     6  N    6.990496
     7  C    6.026376
     8  C    5.994835
     9  C    6.003947
    10  C    5.974379
    11  C    6.006746
    12  C    5.998531
    13  C    5.998835
    14  H    1.007560
    15  N    7.007220
    16  C    5.967250
    17  C    5.975802
    18  C    5.997119
    19  C    5.963756
    20  C    6.000866
    21  C    5.987335
    22  O    7.983792
    23  C    6.003732
    24  N    7.001030
    25  C    5.963130
    26  C    6.010202
    27  C    5.994774
    28  C    6.031695
    29  C    6.000653
    30  C    5.997001
    31  C    6.001205
    32  N    6.996711
    33  C    6.026736
    34  C    6.035857
    35  C    5.993230
    36  C    6.036838
    37  C    5.999383
    38  C    6.016400
    39  O    8.027243
    40  C    5.998233
    41  C    6.003635
    42  O    8.008855
    43  O    7.996608
    44  C    5.998671
    45  H    0.988624
    46  H    0.993945
    47  H    1.008182
    48  H    0.998927
    49  H    0.999748
    50  H    0.994227
    51  H    0.987185
    52  H    1.002773
    53  H    1.007897
    54  H    0.993327
    55  H    0.997396
    56  H    0.999183
    57  H    0.986554
    58  H    0.983948
    59  H    0.985661
    60  H    0.992149
    61  H    0.990222
    62  H    0.989721
    63  H    0.996551
    64  H    0.997531
    65  H    0.990201
    66  H    0.999594
    67  H    1.002917
    68  H    0.993548
    69  H    1.008664
    70  H    1.004264
    71  H    0.999034
    72  H    1.005191
    73  H    1.019049
    74  H    1.019371
    75  H    1.013178
    76  H    1.007154
    77  H    1.004094
    78  H    1.006141
    79  H    1.001994
    80  Mg  12.000330
    81  C    5.995470
    82  C    6.000378
    83  C    6.005819
    84  C    6.001802
    85  N    6.998199
    86  C    6.006066
    87  C    5.997939
    88  C    6.002766
    89  C    5.993552
    90  C    6.000903
    91  C    5.999255
    92  C    6.000113
    93  H    1.000751
    94  N    7.000692
    95  C    5.992403
    96  C    5.995752
    97  C    5.996253
    98  C    5.992931
    99  C    6.000992
   100  C    5.997435
   101  O    7.993461
   102  C    6.001369
   103  N    7.003482
   104  C    5.992193
   105  C    6.001967
   106  C    5.997851
   107  C    6.004317
   108  C    5.999910
   109  C    5.999341
   110  C    5.998967
   111  N    6.999938
   112  C    6.005631
   113  C    6.006654
   114  C    6.000120
   115  C    6.005677
   116  C    5.999828
   117  C    6.003475
   118  O    8.006661
   119  C    6.001471
   120  C    6.000728
   121  O    8.001352
   122  O    8.000283
   123  C    5.999381
   124  H    0.996733
   125  H    0.999884
   126  H    1.003138
   127  H    0.999505
   128  H    0.998910
   129  H    0.998804
   130  H    0.996985
   131  H    1.000695
   132  H    1.001885
   133  H    0.999159
   134  H    0.999285
   135  H    0.999194
   136  H    0.996468
   137  H    0.996461
   138  H    0.995535
   139  H    0.998410
   140  H    0.997988
   141  H    0.997117
   142  H    1.000776
   143  H    1.000855
   144  H    0.998310
   145  H    0.999844
   146  H    1.001201
   147  H    1.002578
   148  H    1.000098
   149  H    1.002164
   150  H    0.999609
   151  H    1.000007
   152  H    1.003484
   153  H    1.003861
   154  H    1.003725
   155  H    1.000994
   156  H    1.000788
   157  H    1.000505
   158  H    1.001190
 Sum of Mulliken charges = 624.00000

 Dipole moment (field-independent basis, Debye):
    X=             -4.1750    Y=              4.7215    Z=              4.1860  Tot=              7.5661
 Quadrupole moment (field-independent basis, Debye-Ang):
   XX=           -110.7121   YY=              2.1659   ZZ=              0.0353
   XY=             95.4997   XZ=             54.8426   YZ=             -0.0059

 Normal termination of Gaussian 16 at Fri Oct 15 09:02:37 2021.
