 Gaussian 16, Revision A.03,
 Gaussian 16:  ES64L-G16RevA.03 25-Dec-2016

 --------------------------------------------------------
 #p PBE1PBE/Def2SVP td=(nstates=5) density=(transition=1)
 --------------------------------------------------------

 --------------------------------
 TDDFT excited states in gaussian
 --------------------------------
 Symbolic Z-matrix:
 Charge =  0 Multiplicity = 1

                         Standard orientation:
 ---------------------------------------------------------------------
 Center     Atomic      Atomic             Coordinates (Angstroms)
 Number     Number       Type             X           Y           Z
 ---------------------------------------------------------------------
      1         12           0      -31.385050    0.446605    0.436735
      2          6           0      -28.761847   -1.883069    0.232712
      3          6           0      -29.127278    2.941143   -0.271709
      4          6           0      -33.984249    2.421807   -0.100193
      5          6           0      -33.649532   -2.250466    0.901243
      6          7           0      -29.274383    0.475376   -0.214387
      7          6           0      -28.361716   -0.610896   -0.226891
      8          6           0      -26.955276   -0.175809   -0.278358
      9          6           0      -27.095221    1.406359   -0.341319
     10          6           0      -28.593172    1.644579   -0.234202
     11          6           0      -26.193201    2.124321    0.691594
     12          6           0      -26.210585   -0.607340   -1.504793
     13          6           0      -26.997387   -0.616475   -2.823892
     14          1           0      -26.312364   -0.231965   -4.192864
     15          7           0      -31.572820    2.449747   -0.082479
     16          6           0      -30.530271    3.294276   -0.198769
     17          6           0      -31.043697    4.630696   -0.367111
     18          6           0      -32.452017    4.532533   -0.248597
     19          6           0      -32.749997    3.098593   -0.103424
     20          6           0      -30.225325    5.862491   -0.646778
     21          6           0      -33.433030    5.704104   -0.280834
     22          8           0      -33.041992    6.845478   -0.428550
     23          6           0      -34.931525    5.639232   -0.259909
     24          7           0      -33.492339    0.097272    0.149779
     25          6           0      -34.391311    1.117053   -0.015304
     26          6           0      -35.858882    0.630683    0.221709
     27          6           0      -35.690515   -0.918913    0.227895
     28          6           0      -34.200118   -1.041794    0.457725
     29          6           0      -36.517023    1.116134    1.535825
     30          6           0      -35.944762   -1.659823   -1.168823
     31          6           0      -36.792745   -2.879468   -1.136658
     32          7           0      -31.291593   -1.562694    0.647977
     33          6           0      -32.236273   -2.442518    1.006733
     34          6           0      -31.595215   -3.705934    1.533709
     35          6           0      -30.208455   -3.463797    1.275425
     36          6           0      -30.094078   -2.213110    0.605072
     37          6           0      -32.220359   -4.954659    2.138809
     38          6           0      -28.927139   -4.108681    1.283350
     39          8           0      -28.605725   -5.234333    1.629972
     40          6           0      -27.926284   -3.075243    0.625340
     41          6           0      -27.462615   -3.682627   -0.682411
     42          8           0      -28.103755   -3.869387   -1.663252
     43          8           0      -26.102889   -3.892150   -0.593134
     44          6           0      -25.469434   -4.206211   -1.877823
     45          1           0      -28.384281    3.740712   -0.298593
     46          1           0      -34.850028    3.086113   -0.098279
     47          1           0      -34.394242   -2.999407    1.178597
     48          1           0      -26.455339   -0.572051    0.605465
     49          1           0      -26.920323    1.863887   -1.315010
     50          1           0      -25.729496    2.878534    0.055546
     51          1           0      -25.498285    1.378805    1.078282
     52          1           0      -26.759479    2.638964    1.468105
     53          1           0      -25.626174   -1.517864   -1.369822
     54          1           0      -25.367160    0.028983   -1.773701
     55          1           0      -27.851001    0.037405   -2.642141
     56          1           0      -27.389104   -1.633589   -2.845020
     57          1           0      -30.665700    6.450532   -1.452681
     58          1           0      -29.189589    5.582519   -0.838663
     59          1           0      -30.279574    6.430211    0.282429
     60          1           0      -35.392965    5.177565   -1.132264
     61          1           0      -35.185514    6.694082   -0.365292
     62          1           0      -35.336486    5.374584    0.717440
     63          1           0      -36.465532    0.994636   -0.607417
     64          1           0      -36.244703   -1.411949    1.026995
     65          1           0      -36.654513    0.256686    2.191738
     66          1           0      -37.360612    1.779389    1.345337
     67          1           0      -35.813887    1.768111    2.052879
     68          1           0      -35.003166   -1.890321   -1.666656
     69          1           0      -36.439766   -0.901643   -1.775888
     70          1           0      -37.650591   -2.820102   -1.806171
     71          1           0      -37.144470   -3.139270   -0.137946
     72          1           0      -36.250048   -3.758188   -1.484079
     73          1           0      -31.910406   -5.788651    1.509114
     74          1           0      -33.283945   -4.758233    2.279601
     75          1           0      -31.704759   -5.105648    3.087121
     76          1           0      -27.088256   -2.836526    1.279805
     77          1           0      -25.978597   -3.750536   -2.726955
     78          1           0      -25.536428   -5.292819   -1.932531
     79          1           0      -24.409415   -3.992610   -1.743287
     80         12           0       31.549211   -0.170311    0.256254
     81          6           0       28.176475    0.846154    0.135675
     82          6           0       30.471454   -3.295475   -0.306269
     83          6           0       34.712225   -0.903698   -0.115365
     84          6           0       32.367656    3.306027    0.131008
     85          7           0       29.539610   -1.086212   -0.092865
     86          6           0       28.301468   -0.541791   -0.026904
     87          6           0       27.183364   -1.550532   -0.195071
     88          6           0       28.002992   -2.895610   -0.053983
     89          6           0       29.445994   -2.449347   -0.167219
     90          6           0       27.738090   -3.701431    1.284232
     91          6           0       26.248171   -1.559694   -1.482013
     92          6           0       26.634428   -0.787428   -2.771402
     93          1           0       26.203998   -1.401386   -4.155798
     94          7           0       32.444394   -1.953990   -0.031095
     95          6           0       31.859950   -3.101798   -0.347290
     96          6           0       32.911169   -4.108780   -0.657280
     97          6           0       34.205061   -3.405922   -0.427093
     98          6           0       33.806141   -2.018299   -0.189830
     99          6           0       32.633079   -5.564560   -0.918557
    100          6           0       35.575389   -4.015154   -0.568793
    101          8           0       35.663917   -5.214015   -0.822183
    102          6           0       36.936380   -3.230673   -0.482622
    103          7           0       33.363327    1.070476   -0.082187
    104          6           0       34.480345    0.431832   -0.022800
    105          6           0       35.647608    1.515943    0.013724
    106          6           0       34.843601    2.806340   -0.158382
    107          6           0       33.392470    2.379765   -0.048031
    108          6           0       36.608406    1.542194    1.214119
    109          6           0       34.980923    3.464549   -1.627604
    110          6           0       35.700383    4.823541   -1.706165
    111          7           0       30.564037    1.704928    0.091334
    112          6           0       30.995819    3.002193    0.176144
    113          6           0       29.849190    3.923012    0.389187
    114          6           0       28.674368    3.130407    0.254024
    115          6           0       29.214132    1.773559    0.186578
    116          6           0       29.896576    5.463746    0.494130
    117          6           0       27.250842    3.088747    0.208595
    118          8           0       26.359181    3.951647    0.136054
    119          6           0       26.852606    1.590872    0.206557
    120          6           0       25.985094    1.361817    1.447634
    121          8           0       24.804970    1.186986    1.597191
    122          8           0       26.843876    1.163892    2.534298
    123          6           0       26.227594    0.803241    3.848823
    124          1           0       30.092526   -4.301718   -0.497903
    125          1           0       35.758794   -1.204867   -0.204782
    126          1           0       32.643826    4.338138    0.355087
    127          1           0       26.578359   -1.439771    0.704637
    128          1           0       27.727094   -3.570323   -0.864511
    129          1           0       27.055628   -3.158348    1.937136
    130          1           0       28.708708   -3.629275    1.773717
    131          1           0       27.408969   -4.712694    1.044514
    132          1           0       25.266982   -1.213630   -1.156778
    133          1           0       26.071881   -2.593834   -1.779882
    134          1           0       27.721885   -0.714880   -2.753334
    135          1           0       26.128312    0.171489   -2.878553
    136          1           0       33.523226   -6.190397   -0.858339
    137          1           0       32.079078   -5.605675   -1.857119
    138          1           0       31.881433   -5.819266   -0.170666
    139          1           0       37.164055   -2.588993    0.369396
    140          1           0       36.972427   -2.529544   -1.316426
    141          1           0       37.796883   -3.897459   -0.529569
    142          1           0       36.350185    1.371605   -0.806346
    143          1           0       35.045741    3.645776    0.507802
    144          1           0       36.381853    0.754352    1.932683
    145          1           0       36.626800    2.520983    1.694597
    146          1           0       37.645119    1.339986    0.944959
    147          1           0       34.007278    3.646024   -2.080717
    148          1           0       35.507942    2.723176   -2.228590
    149          1           0       35.341123    5.501350   -2.480906
    150          1           0       36.730461    4.584115   -1.970056
    151          1           0       35.541713    5.246520   -0.714116
    152          1           0       30.840102    5.918220    0.193729
    153          1           0       29.734076    5.659117    1.553810
    154          1           0       29.032782    5.865960   -0.034619
    155          1           0       26.272034    1.373549   -0.689388
    156          1           0       25.228920    1.175572    4.076067
    157          1           0       26.884508    1.289178    4.569986
    158          1           0       26.225815   -0.243682    4.152904
 ---------------------------------------------------------------------

 SCF Done:  E(RPBE1PBE) =  -4067.35178742     A.U. after   16 cycles

 Excitation energies and oscillator strengths:

 Excited State   1:      Singlet-A      1.8294 eV  677.74 nm  f=0.3609  <S**2>=0.000
     310 -> 316        0.16664
     312 -> 314        0.69540
     312 <- 314       -0.11481
 This state for optimization and/or second-order correction.
 Total Energy, E(TD-HF/TD-DFT) =  -4067.28455892
 Copying the excited state density for this state as the 1-particle RhoCI density.

 Excited State   2:      Singlet-A      1.9112 eV  648.73 nm  f=0.3973  <S**2>=0.000
     309 -> 315        0.17693
     311 -> 313        0.69115
     311 <- 313       -0.10569

 Excited State   3:      Singlet-A      1.9172 eV  646.68 nm  f=0.0000  <S**2>=0.000
     312 -> 313        0.70711

 Excited State   4:      Singlet-A      2.1099 eV  587.62 nm  f=0.0000  <S**2>=0.000
     311 -> 314        0.70711

 Excited State   5:      Singlet-A      2.2680 eV  546.66 nm  f=0.0978  <S**2>=0.000
     309 -> 313        0.65272
     311 -> 315       -0.25842

 The electronic state is 1-A.
 Alpha  occ. eigenvalues --  -46.93461 -46.91952 -19.25246 -19.25215 -19.20580
 Alpha  occ. eigenvalues --  -19.20579 -19.19526 -19.19348 -19.18972 -19.18414
 Alpha  occ. eigenvalues --  -14.41872 -14.41832 -14.41400 -14.41306 -14.40013
 Alpha  occ. eigenvalues --  -14.39886 -14.39239 -14.39109 -10.36858 -10.36227
 Alpha  occ. eigenvalues --  -10.32920 -10.32667 -10.32126 -10.31716 -10.29112
 Alpha  occ. eigenvalues --  -10.29066 -10.28987 -10.28733 -10.28681 -10.28652
 Alpha  occ. eigenvalues --  -10.28605 -10.28553 -10.28508 -10.28479 -10.28427
 Alpha  occ. eigenvalues --  -10.28342 -10.28056 -10.27943 -10.27802 -10.27635
 Alpha  occ. eigenvalues --  -10.27631 -10.27575 -10.27063 -10.26861 -10.26745
 Alpha  occ. eigenvalues --  -10.26598 -10.26488 -10.26478 -10.26319 -10.26135
 Alpha  occ. eigenvalues --  -10.26107 -10.25924 -10.25922 -10.25895 -10.25784
 Alpha  occ. eigenvalues --  -10.25755 -10.25629 -10.25591 -10.25472 -10.25341
 Alpha  occ. eigenvalues --  -10.25227 -10.25147 -10.25051 -10.24944 -10.24780
 Alpha  occ. eigenvalues --  -10.24709 -10.24461 -10.24434 -10.24385 -10.24146
 Alpha  occ. eigenvalues --  -10.24112 -10.24070 -10.24045 -10.24039 -10.24037
 Alpha  occ. eigenvalues --  -10.24032 -10.23998 -10.23955 -10.23678 -10.23584
 Alpha  occ. eigenvalues --  -10.23214 -10.23017 -10.22903 -10.22886 -10.22787
 Alpha  occ. eigenvalues --  -10.22769  -3.15521  -3.14174  -1.88349  -1.87893
 Alpha  occ. eigenvalues --   -1.87747  -1.86976  -1.86553  -1.86415  -1.11982
 Alpha  occ. eigenvalues --   -1.10757  -1.05107  -1.04691  -1.04455  -1.03890
 Alpha  occ. eigenvalues --   -1.03768  -1.02065  -1.01403  -0.99432  -0.99201
 Alpha  occ. eigenvalues --   -0.98707  -0.98671  -0.98033  -0.97900  -0.97249
 Alpha  occ. eigenvalues --   -0.87850  -0.87525  -0.84175  -0.84132  -0.83728
 Alpha  occ. eigenvalues --   -0.83185  -0.82877  -0.82687  -0.82632  -0.81830
 Alpha  occ. eigenvalues --   -0.81110  -0.80624  -0.80097  -0.79896  -0.79195
 Alpha  occ. eigenvalues --   -0.78995  -0.78450  -0.78196  -0.77176  -0.76983
 Alpha  occ. eigenvalues --   -0.76029  -0.75880  -0.75143  -0.75118  -0.74794
 Alpha  occ. eigenvalues --   -0.74788  -0.72839  -0.72280  -0.71988  -0.71785
 Alpha  occ. eigenvalues --   -0.71338  -0.71119  -0.70947  -0.70343  -0.69792
 Alpha  occ. eigenvalues --   -0.69494  -0.67744  -0.67157  -0.66890  -0.66078
 Alpha  occ. eigenvalues --   -0.64015  -0.63925  -0.63587  -0.63276  -0.63069
 Alpha  occ. eigenvalues --   -0.63018  -0.62074  -0.61512  -0.61315  -0.60281
 Alpha  occ. eigenvalues --   -0.60169  -0.60001  -0.59608  -0.59416  -0.59048
 Alpha  occ. eigenvalues --   -0.58888  -0.57665  -0.56643  -0.55133  -0.54895
 Alpha  occ. eigenvalues --   -0.54504  -0.54063  -0.54049  -0.53509  -0.53392
 Alpha  occ. eigenvalues --   -0.53184  -0.52745  -0.52677  -0.51996  -0.51673
 Alpha  occ. eigenvalues --   -0.51099  -0.51025  -0.50520  -0.50416  -0.50145
 Alpha  occ. eigenvalues --   -0.49954  -0.49654  -0.49610  -0.49183  -0.49065
 Alpha  occ. eigenvalues --   -0.48673  -0.48514  -0.48278  -0.47599  -0.47554
 Alpha  occ. eigenvalues --   -0.47536  -0.47374  -0.46875  -0.46758  -0.46620
 Alpha  occ. eigenvalues --   -0.46609  -0.46305  -0.46246  -0.46099  -0.45931
 Alpha  occ. eigenvalues --   -0.45761  -0.45752  -0.45639  -0.45521  -0.45213
 Alpha  occ. eigenvalues --   -0.44661  -0.44606  -0.44422  -0.44214  -0.44078
 Alpha  occ. eigenvalues --   -0.43983  -0.43925  -0.43714  -0.43510  -0.43485
 Alpha  occ. eigenvalues --   -0.43411  -0.43225  -0.43185  -0.43148  -0.43059
 Alpha  occ. eigenvalues --   -0.42910  -0.42608  -0.42325  -0.42214  -0.42180
 Alpha  occ. eigenvalues --   -0.41892  -0.41875  -0.41794  -0.41695  -0.41590
 Alpha  occ. eigenvalues --   -0.41443  -0.41353  -0.41098  -0.41088  -0.40777
 Alpha  occ. eigenvalues --   -0.40682  -0.40589  -0.40587  -0.40235  -0.40235
 Alpha  occ. eigenvalues --   -0.40124  -0.39960  -0.39666  -0.39466  -0.39153
 Alpha  occ. eigenvalues --   -0.39022  -0.38830  -0.38811  -0.38686  -0.38403
 Alpha  occ. eigenvalues --   -0.38400  -0.38144  -0.38020  -0.37919  -0.37693
 Alpha  occ. eigenvalues --   -0.37644  -0.37362  -0.37157  -0.37051  -0.37027
 Alpha  occ. eigenvalues --   -0.36991  -0.36970  -0.36853  -0.36706  -0.36310
 Alpha  occ. eigenvalues --   -0.36146  -0.36054  -0.35815  -0.35643  -0.35599
 Alpha  occ. eigenvalues --   -0.35257  -0.34903  -0.34779  -0.34114  -0.34022
 Alpha  occ. eigenvalues --   -0.33824  -0.33409  -0.33270  -0.32823  -0.32700
 Alpha  occ. eigenvalues --   -0.32238  -0.32077  -0.31976  -0.31542  -0.31441
 Alpha  occ. eigenvalues --   -0.31318  -0.30730  -0.30060  -0.29894  -0.29420
 Alpha  occ. eigenvalues --   -0.29397  -0.29096  -0.28655  -0.27439  -0.26986
 Alpha  occ. eigenvalues --   -0.26586  -0.26154  -0.26074  -0.25899  -0.25492
 Alpha  occ. eigenvalues --   -0.25237  -0.25119  -0.25070  -0.21420  -0.21213
 Alpha  occ. eigenvalues --   -0.19189  -0.18690
 Alpha virt. eigenvalues --   -0.11433  -0.11224  -0.05534  -0.05305  -0.04782
 Alpha virt. eigenvalues --   -0.03989  -0.02658  -0.01893  -0.01455  -0.01313
 Alpha virt. eigenvalues --    0.00171   0.00517   0.00897   0.01028   0.01250

 Mulliken charges:
               1
     1  Mg  12.002018
     2  C    6.027554
     3  C    5.992335
     4  C    5.978692
     5  C    6.007280
     6  N    7.006572
     7  C    5.960451
     8  C    6.013882
     9  C    5.991486
    10  C    6.029126
    11  C    5.998145
    12  C    6.003500
    13  C    6.005652
    14  H    0.991543
    15  N    6.991894
    16  C    6.039819
    17  C    6.021694
    18  C    6.005670
    19  C    6.042735
    20  C    5.997254
    21  C    6.010592
    22  O    8.018516
    23  C    5.996361
    24  N    6.996104
    25  C    6.032651
    26  C    5.993690
    27  C    6.005464
    28  C    5.976624
    29  C    6.000171
    30  C    6.007175
    31  C    6.000255
    32  N    7.001161
    33  C    5.965752
    34  C    5.961137
    35  C    6.005134
    36  C    5.962745
    37  C    6.000406
    38  C    5.985049
    39  O    7.975040
    40  C    5.998017
    41  C    5.997293
    42  O    7.996311
    43  O    7.997966
    44  C    6.001224
    45  H    1.012220
    46  H    1.007566
    47  H    0.988907
    48  H    0.998700
    49  H    0.998142
    50  H    1.000129
    51  H    1.012241
    52  H    0.998199
    53  H    1.003501
    54  H    0.991449
    55  H    0.990515
    56  H    1.006635
    57  H    1.015902
    58  H    1.017135
    59  H    1.017457
    60  H    1.010469
    61  H    1.010667
    62  H    1.011118
    63  H    0.999620
    64  H    1.000260
    65  H    1.012028
    66  H    1.000089
    67  H    0.995353
    68  H    1.000769
    69  H    0.986125
    70  H    0.994720
    71  H    0.999433
    72  H    1.002951
    73  H    0.981717
    74  H    0.982664
    75  H    0.981361
    76  H    0.990262
    77  H    0.996043
    78  H    0.998631
    79  H    0.994885
    80  Mg  12.000008
    81  C    5.999948
    82  C    5.999992
    83  C    6.000043
    84  C    6.000009
    85  N    6.999979
    86  C    6.000009
    87  C    6.000003
    88  C    5.999995
    89  C    6.000016
    90  C    6.000000
    91  C    5.999999
    92  C    6.000004
    93  H    0.999997
    94  N    7.000009
    95  C    6.000047
    96  C    5.999997
    97  C    6.000022
    98  C    5.999997
    99  C    6.000003
   100  C    6.000022
   101  O    8.000023
   102  C    5.999996
   103  N    7.000004
   104  C    5.999993
   105  C    5.999993
   106  C    6.000006
   107  C    5.999971
   108  C    5.999999
   109  C    6.000010
   110  C    6.000003
   111  N    6.999991
   112  C    5.999968
   113  C    5.999991
   114  C    5.999996
   115  C    6.000008
   116  C    5.999991
   117  C    5.999967
   118  O    7.999957
   119  C    6.000015
   120  C    5.999999
   121  O    7.999993
   122  O    8.000001
   123  C    6.000002
   124  H    1.000029
   125  H    0.999998
   126  H    0.999971
   127  H    1.000005
   128  H    1.000012
   129  H    1.000022
   130  H    0.999991
   131  H    1.000019
   132  H    1.000009
   133  H    1.000003
   134  H    0.999990
   135  H    1.000000
   136  H    1.000028
   137  H    1.000033
   138  H    1.000037
   139  H    1.000011
   140  H    1.000007
   141  H    1.000016
   142  H    0.999998
   143  H    0.999996
   144  H    1.000001
   145  H    1.000006
   146  H    0.999996
   147  H    1.000005
   148  H    0.999984
   149  H    0.999991
   150  H    0.999986
   151  H    0.999999
   152  H    0.999964
   153  H    0.999968
   154  H    0.999969
   155  H    0.999991
   156  H    0.999998
   157  H    0.999993
   158  H    1.000000
 Sum of Mulliken charges = 624.00000

 Dipole moment (field-independent basis, Debye):
    X=             -0.9011    Y=             10.0481    Z=             -1.5070  Tot=             10.2004
 Quadrupole moment (field-independent basis, Debye-Ang):
   XX=             55.5399   YY=              9.3662   ZZ=             -3.3318
   XY=           -315.8739   XZ=             47.9780   YZ=              4.3985

 Normal termination of Gaussian 16 at Thu Oct 14 00:24:18 2021.
