 Gaussian 16, Revision A.03,
 Gaussian 16:  ES64L-G16RevA.03 25-Dec-2016

 --------------------------------------------------------
 #p PBE1PBE/Def2SVP td=(nstates=5) density=(transition=1)
 --------------------------------------------------------

 --------------------------------
 TDDFT excited states in gaussian
 --------------------------------
 Symbolic Z-matrix:
 Charge =  0 Multiplicity = 1

                         Standard orientation:
 ---------------------------------------------------------------------
 Center     Atomic      Atomic             Coordinates (Angstroms)
 Number     Number       Type             X           Y           Z
 ---------------------------------------------------------------------
      1         12           0      -21.210051    0.133338   -0.143619
      2          6           0      -17.667345    0.259653   -0.141794
      3          6           0      -21.000561   -2.327568   -2.473357
      4          6           0      -24.486506   -0.531520    0.474598
      5          6           0      -21.184261    2.265127    2.589062
      6          7           0      -19.430894   -0.955942   -1.012317
      7          6           0      -18.084814   -0.705085   -0.977374
      8          6           0      -17.332668   -1.568263   -1.920852
      9          6           0      -18.477994   -2.138388   -2.883072
     10          6           0      -19.700672   -1.815196   -2.094137
     11          6           0      -18.436342   -1.492480   -4.258591
     12          6           0      -16.544855   -2.585183   -1.080110
     13          6           0      -14.979834   -2.683466   -1.322937
     14          1           0      -14.298351   -4.039941   -1.675444
     15          7           0      -22.611756   -1.183256   -0.886825
     16          6           0      -22.324379   -2.072982   -1.931248
     17          6           0      -23.561296   -2.653626   -2.360009
     18          6           0      -24.616848   -2.185706   -1.506496
     19          6           0      -23.929721   -1.198464   -0.631423
     20          6           0      -23.608452   -3.592967   -3.558262
     21          6           0      -26.082306   -2.559378   -1.514121
     22          8           0      -26.406488   -3.306068   -2.482541
     23          6           0      -27.173955   -2.238153   -0.454437
     24          7           0      -22.678815    0.779819    1.333817
     25          6           0      -23.970114    0.382076    1.349900
     26          6           0      -24.783584    0.994069    2.520988
     27          6           0      -23.733959    1.985091    3.132411
     28          6           0      -22.409481    1.607988    2.316050
     29          6           0      -26.033200    1.664739    1.979136
     30          6           0      -23.505741    1.850182    4.607025
     31          6           0      -23.992941    3.026769    5.408401
     32          7           0      -19.843808    1.209677    0.898861
     33          6           0      -19.927882    2.102408    1.974839
     34          6           0      -18.742747    2.761571    2.191707
     35          6           0      -17.822924    2.097538    1.354684
     36          6           0      -18.525118    1.119038    0.654764
     37          6           0      -18.616322    4.001668    3.051082
     38          6           0      -16.412235    2.119053    0.884544
     39          8           0      -15.524270    2.850912    1.194999
     40          6           0      -16.326558    0.843418   -0.036158
     41          6           0      -15.478242    1.218807   -1.231600
     42          8           0      -14.307489    0.874988   -1.394608
     43          8           0      -16.238537    1.974981   -2.156481
     44          6           0      -15.500373    2.255739   -3.387547
     45          1           0      -20.965243   -2.952097   -3.368721
     46          1           0      -25.560425   -0.639359    0.644057
     47          1           0      -21.069879    2.754507    3.557877
     48          1           0      -16.626340   -0.959019   -2.484929
     49          1           0      -18.313908   -3.208421   -3.007542
     50          1           0      -18.178686   -0.434667   -4.229224
     51          1           0      -19.443013   -1.515992   -4.677251
     52          1           0      -17.802650   -2.018560   -4.972540
     53          1           0      -16.986644   -3.563665   -1.267955
     54          1           0      -16.708222   -2.490218   -0.006612
     55          1           0      -14.620345   -2.363633   -0.344547
     56          1           0      -14.637505   -1.871143   -1.962981
     57          1           0      -22.863334   -4.383236   -3.466617
     58          1           0      -23.349941   -2.986601   -4.426276
     59          1           0      -24.521820   -4.169481   -3.711162
     60          1           0      -27.317862   -1.163972   -0.566282
     61          1           0      -26.780849   -2.481649    0.532686
     62          1           0      -28.088368   -2.811881   -0.607720
     63          1           0      -25.120486    0.264853    3.257333
     64          1           0      -23.957169    3.003515    2.815503
     65          1           0      -26.541508    0.945537    1.336673
     66          1           0      -25.725402    2.531977    1.394082
     67          1           0      -26.737467    2.123775    2.671930
     68          1           0      -22.454061    1.766219    4.880935
     69          1           0      -23.933456    0.972621    5.091443
     70          1           0      -24.664628    2.650562    6.179041
     71          1           0      -24.604386    3.713053    4.822525
     72          1           0      -23.196939    3.642360    5.828718
     73          1           0      -17.674474    4.470198    2.763784
     74          1           0      -18.596833    3.767637    4.115217
     75          1           0      -19.493035    4.599403    2.802701
     76          1           0      -15.667492    0.195586    0.542966
     77          1           0      -16.187862    2.391519   -4.222535
     78          1           0      -14.923223    1.390673   -3.711042
     79          1           0      -14.818393    3.101317   -3.293963
     80         12           0       20.590341   -0.806100    0.266725
     81          6           0       21.446519    2.342637   -1.069907
     82          6           0       17.488635    0.455984    1.040015
     83          6           0       19.723538   -3.750527    1.630368
     84          6           0       23.916545   -1.855776   -0.012082
     85          7           0       19.638096    1.119730   -0.140324
     86          6           0       20.068228    2.261092   -0.670482
     87          6           0       19.043949    3.411948   -0.753862
     88          6           0       17.942199    2.759549    0.213990
     89          6           0       18.413945    1.342115    0.428443
     90          6           0       17.767455    3.496943    1.519382
     91          6           0       18.476844    3.697555   -2.252657
     92          6           0       18.007530    5.141622   -2.452318
     93          1           0       18.783092    5.914487   -3.550066
     94          7           0       18.772345   -1.636359    1.078814
     95          6           0       17.601855   -0.885562    1.350564
     96          6           0       16.567695   -1.837031    1.689603
     97          6           0       17.179693   -3.077265    1.847318
     98          6           0       18.623141   -2.888786    1.499860
     99          6           0       15.144002   -1.448961    2.041657
    100          6           0       16.619579   -4.433593    2.209821
    101          8           0       17.335850   -5.391861    2.207587
    102          6           0       15.167304   -4.641384    2.503519
    103          7           0       21.678864   -2.479987    0.928770
    104          6           0       21.085675   -3.615382    1.398586
    105          6           0       22.219110   -4.666523    1.557277
    106          6           0       23.299083   -4.275521    0.564452
    107          6           0       23.004904   -2.759721    0.471800
    108          6           0       22.784375   -4.590359    2.974852
    109          6           0       23.240794   -4.994614   -0.732281
    110          6           0       21.914639   -5.125845   -1.439512
    111          7           0       22.353038    0.006259   -0.422989
    112          6           0       23.635324   -0.506881   -0.476928
    113          6           0       24.522870    0.498486   -1.081588
    114          6           0       23.691079    1.601216   -1.342715
    115          6           0       22.428454    1.262083   -0.939297
    116          6           0       25.968519    0.367680   -1.298229
    117          6           0       23.601271    2.882658   -1.989815
    118          8           0       24.473149    3.561620   -2.607720
    119          6           0       22.086755    3.382743   -1.844190
    120          6           0       22.137680    4.668223   -1.059797
    121          8           0       22.766176    4.788443   -0.050222
    122          8           0       21.335264    5.726858   -1.565116
    123          6           0       21.131017    6.872180   -0.626850
    124          1           0       16.517114    0.852445    1.340444
    125          1           0       19.510085   -4.682918    2.157878
    126          1           0       24.924008   -2.175080   -0.287852
    127          1           0       19.503807    4.345294   -0.426671
    128          1           0       17.022513    2.808314   -0.370326
    129          1           0       16.900963    4.144533    1.386495
    130          1           0       18.675825    4.004775    1.844223
    131          1           0       17.415926    2.727508    2.206691
    132          1           0       17.625701    3.046976   -2.456038
    133          1           0       19.222995    3.432706   -3.002072
    134          1           0       18.126855    5.547359   -1.447497
    135          1           0       16.935469    5.203095   -2.638444
    136          1           0       15.028223   -0.450851    1.620898
    137          1           0       15.183965   -1.350585    3.126099
    138          1           0       14.408048   -2.127594    1.609983
    139          1           0       14.765017   -4.522389    1.497338
    140          1           0       14.722429   -3.887641    3.152616
    141          1           0       15.001149   -5.640991    2.906579
    142          1           0       21.911581   -5.704317    1.433539
    143          1           0       24.321882   -4.461093    0.890711
    144          1           0       23.731236   -4.080675    3.153402
    145          1           0       22.884325   -5.613042    3.338342
    146          1           0       22.033683   -4.117961    3.609438
    147          1           0       23.681183   -5.989743   -0.665669
    148          1           0       23.898464   -4.415086   -1.379870
    149          1           0       21.997755   -4.509311   -2.335003
    150          1           0       20.959328   -4.854529   -0.989236
    151          1           0       21.819892   -6.153729   -1.789268
    152          1           0       26.459866    0.392655   -0.325633
    153          1           0       26.207403    1.204730   -1.954166
    154          1           0       26.221171   -0.599130   -1.735670
    155          1           0       21.726188    3.458660   -2.870187
    156          1           0       22.016144    7.507950   -0.608178
    157          1           0       20.902413    6.557298    0.392351
    158          1           0       20.356440    7.585738   -0.906395
 ---------------------------------------------------------------------

 SCF Done:  E(RPBE1PBE) =  -4067.36951647     A.U. after   16 cycles

 Excitation energies and oscillator strengths:

 Excited State   1:      Singlet-A      1.8249 eV  679.39 nm  f=0.3653  <S**2>=0.000
     310 -> 316        0.17184
     312 -> 314        0.69441
     312 <- 314       -0.10916
 This state for optimization and/or second-order correction.
 Total Energy, E(TD-HF/TD-DFT) =  -4067.30245104
 Copying the excited state density for this state as the 1-particle RhoCI density.

 Excited State   2:      Singlet-A      1.8485 eV  670.72 nm  f=0.3370  <S**2>=0.000
     309 -> 315       -0.16641
     311 -> 313        0.69415
     311 <- 313       -0.11257

 Excited State   3:      Singlet-A      1.8556 eV  668.17 nm  f=0.0000  <S**2>=0.000
     312 -> 313        0.70710

 Excited State   4:      Singlet-A      2.0679 eV  599.58 nm  f=0.0000  <S**2>=0.000
     311 -> 314        0.70711

 Excited State   5:      Singlet-A      2.1782 eV  569.21 nm  f=0.1122  <S**2>=0.000
     310 -> 314        0.65715
     312 -> 316       -0.25112

 The electronic state is 1-A.
 Alpha  occ. eigenvalues --  -46.92468 -46.92006 -19.26350 -19.25156 -19.21326
 Alpha  occ. eigenvalues --  -19.20232 -19.20157 -19.19015 -19.18707 -19.18571
 Alpha  occ. eigenvalues --  -14.42692 -14.41982 -14.41738 -14.41045 -14.39759
 Alpha  occ. eigenvalues --  -14.39217 -14.38867 -14.38784 -10.37480 -10.36440
 Alpha  occ. eigenvalues --  -10.32885 -10.32736 -10.32093 -10.32035 -10.29739
 Alpha  occ. eigenvalues --  -10.29320 -10.29007 -10.28963 -10.28963 -10.28920
 Alpha  occ. eigenvalues --  -10.28799 -10.28588 -10.28488 -10.28355 -10.28338
 Alpha  occ. eigenvalues --  -10.28336 -10.28243 -10.27924 -10.27473 -10.26847
 Alpha  occ. eigenvalues --  -10.26705 -10.26697 -10.26653 -10.26386 -10.26357
 Alpha  occ. eigenvalues --  -10.26296 -10.26238 -10.26236 -10.26190 -10.26097
 Alpha  occ. eigenvalues --  -10.26087 -10.26071 -10.26026 -10.25938 -10.25870
 Alpha  occ. eigenvalues --  -10.25801 -10.25551 -10.25487 -10.25372 -10.25357
 Alpha  occ. eigenvalues --  -10.25224 -10.25095 -10.24891 -10.24875 -10.24851
 Alpha  occ. eigenvalues --  -10.24725 -10.24692 -10.24683 -10.24560 -10.24500
 Alpha  occ. eigenvalues --  -10.24402 -10.24114 -10.24008 -10.23825 -10.23756
 Alpha  occ. eigenvalues --  -10.23639 -10.23617 -10.23328 -10.23053 -10.22957
 Alpha  occ. eigenvalues --  -10.22856 -10.22794 -10.22669 -10.22555 -10.22387
 Alpha  occ. eigenvalues --  -10.21885  -3.14610  -3.14084  -1.87431  -1.86990
 Alpha  occ. eigenvalues --   -1.86947  -1.86838  -1.86435  -1.86323  -1.10406
 Alpha  occ. eigenvalues --   -1.10345  -1.06915  -1.06606  -1.02864  -1.02363
 Alpha  occ. eigenvalues --   -1.02218  -1.01546  -0.99934  -0.99807  -0.99007
 Alpha  occ. eigenvalues --   -0.98050  -0.97950  -0.97816  -0.97461  -0.96393
 Alpha  occ. eigenvalues --   -0.87753  -0.87394  -0.84252  -0.84238  -0.83696
 Alpha  occ. eigenvalues --   -0.83691  -0.83422  -0.82967  -0.82249  -0.81969
 Alpha  occ. eigenvalues --   -0.81473  -0.81273  -0.80776  -0.80293  -0.79156
 Alpha  occ. eigenvalues --   -0.78868  -0.78673  -0.77880  -0.76994  -0.76802
 Alpha  occ. eigenvalues --   -0.76536  -0.76154  -0.75476  -0.75073  -0.74891
 Alpha  occ. eigenvalues --   -0.74203  -0.72958  -0.72200  -0.71807  -0.71651
 Alpha  occ. eigenvalues --   -0.71481  -0.71245  -0.70860  -0.70555  -0.69925
 Alpha  occ. eigenvalues --   -0.69313  -0.68047  -0.66985  -0.66731  -0.65730
 Alpha  occ. eigenvalues --   -0.64033  -0.63838  -0.63432  -0.63271  -0.62280
 Alpha  occ. eigenvalues --   -0.62183  -0.61739  -0.61375  -0.60750  -0.60213
 Alpha  occ. eigenvalues --   -0.60178  -0.60001  -0.59561  -0.59418  -0.58810
 Alpha  occ. eigenvalues --   -0.57873  -0.57746  -0.56369  -0.55135  -0.54744
 Alpha  occ. eigenvalues --   -0.54688  -0.54433  -0.54268  -0.53734  -0.53701
 Alpha  occ. eigenvalues --   -0.53594  -0.53049  -0.52775  -0.52263  -0.51442
 Alpha  occ. eigenvalues --   -0.50891  -0.50889  -0.50401  -0.50304  -0.50270
 Alpha  occ. eigenvalues --   -0.49493  -0.49219  -0.49047  -0.49040  -0.48628
 Alpha  occ. eigenvalues --   -0.48510  -0.48473  -0.48286  -0.48084  -0.47907
 Alpha  occ. eigenvalues --   -0.47869  -0.47674  -0.47449  -0.47100  -0.46896
 Alpha  occ. eigenvalues --   -0.46570  -0.46498  -0.46257  -0.46017  -0.45920
 Alpha  occ. eigenvalues --   -0.45793  -0.45582  -0.45453  -0.45333  -0.45205
 Alpha  occ. eigenvalues --   -0.44892  -0.44733  -0.44714  -0.44581  -0.44558
 Alpha  occ. eigenvalues --   -0.44333  -0.44277  -0.43936  -0.43820  -0.43695
 Alpha  occ. eigenvalues --   -0.43641  -0.43360  -0.43056  -0.42999  -0.42809
 Alpha  occ. eigenvalues --   -0.42709  -0.42475  -0.42369  -0.42161  -0.41944
 Alpha  occ. eigenvalues --   -0.41904  -0.41687  -0.41418  -0.41382  -0.41227
 Alpha  occ. eigenvalues --   -0.41038  -0.40879  -0.40736  -0.40709  -0.40536
 Alpha  occ. eigenvalues --   -0.40403  -0.40269  -0.40140  -0.40121  -0.40001
 Alpha  occ. eigenvalues --   -0.39984  -0.39739  -0.39583  -0.39101  -0.39003
 Alpha  occ. eigenvalues --   -0.38841  -0.38731  -0.38549  -0.38547  -0.38371
 Alpha  occ. eigenvalues --   -0.38194  -0.37998  -0.37812  -0.37626  -0.37620
 Alpha  occ. eigenvalues --   -0.37375  -0.37319  -0.37297  -0.37277  -0.37260
 Alpha  occ. eigenvalues --   -0.36957  -0.36665  -0.36623  -0.36459  -0.36381
 Alpha  occ. eigenvalues --   -0.36264  -0.36070  -0.35860  -0.35805  -0.35245
 Alpha  occ. eigenvalues --   -0.35176  -0.35108  -0.34685  -0.34424  -0.34107
 Alpha  occ. eigenvalues --   -0.33817  -0.33266  -0.33254  -0.32828  -0.32677
 Alpha  occ. eigenvalues --   -0.32445  -0.32319  -0.32263  -0.32083  -0.31514
 Alpha  occ. eigenvalues --   -0.31426  -0.31194  -0.30361  -0.29911  -0.29789
 Alpha  occ. eigenvalues --   -0.29511  -0.28909  -0.28787  -0.27477  -0.27101
 Alpha  occ. eigenvalues --   -0.26220  -0.25956  -0.25725  -0.25558  -0.25542
 Alpha  occ. eigenvalues --   -0.25274  -0.25234  -0.25151  -0.21433  -0.21004
 Alpha  occ. eigenvalues --   -0.19330  -0.18935
 Alpha virt. eigenvalues --   -0.11799  -0.11411  -0.05422  -0.05224  -0.04036
 Alpha virt. eigenvalues --   -0.03791  -0.02207  -0.02171  -0.01009  -0.00530
 Alpha virt. eigenvalues --    0.00063   0.00661   0.00759   0.00959   0.01334

 Mulliken charges:
               1
     1  Mg  12.000004
     2  C    5.999641
     3  C    6.000069
     4  C    6.000551
     5  C    6.000120
     6  N    6.999626
     7  C    6.000470
     8  C    5.999836
     9  C    6.000247
    10  C    5.999528
    11  C    6.000050
    12  C    5.999884
    13  C    5.999929
    14  H    1.000239
    15  N    7.000221
    16  C    5.999443
    17  C    5.999727
    18  C    5.999867
    19  C    5.999253
    20  C    6.000032
    21  C    5.999743
    22  O    7.999674
    23  C    5.999910
    24  N    7.000187
    25  C    5.999399
    26  C    6.000195
    27  C    5.999874
    28  C    6.000337
    29  C    6.000074
    30  C    5.999938
    31  C    5.999984
    32  N    6.999982
    33  C    6.000442
    34  C    6.000417
    35  C    6.000023
    36  C    6.000548
    37  C    6.000038
    38  C    6.000337
    39  O    8.000527
    40  C    6.000022
    41  C    6.000061
    42  O    8.000174
    43  O    7.999962
    44  C    5.999963
    45  H    0.999718
    46  H    0.999903
    47  H    1.000259
    48  H    0.999988
    49  H    0.999942
    50  H    0.999789
    51  H    1.000026
    52  H    0.999889
    53  H    1.000155
    54  H    0.999963
    55  H    1.000015
    56  H    1.000000
    57  H    0.999739
    58  H    0.999687
    59  H    0.999743
    60  H    0.999844
    61  H    0.999888
    62  H    0.999795
    63  H    0.999984
    64  H    0.999998
    65  H    1.000096
    66  H    0.999898
    67  H    0.999848
    68  H    0.999968
    69  H    1.000143
    70  H    1.000061
    71  H    1.000034
    72  H    0.999968
    73  H    1.000223
    74  H    1.000329
    75  H    1.000198
    76  H    1.000169
    77  H    1.000039
    78  H    1.000120
    79  H    1.000031
    80  Mg  12.004451
    81  C    5.982837
    82  C    6.012230
    83  C    6.013976
    84  C    5.990123
    85  N    6.988808
    86  C    6.038078
    87  C    5.986181
    88  C    6.016491
    89  C    5.962618
    90  C    6.003492
    91  C    5.998973
    92  C    5.999858
    93  H    0.996572
    94  N    7.007143
    95  C    5.957581
    96  C    5.987735
    97  C    5.978857
    98  C    5.972689
    99  C    6.000471
   100  C    5.988569
   101  O    7.971827
   102  C    6.002669
   103  N    7.000945
   104  C    5.973909
   105  C    6.003377
   106  C    5.996025
   107  C    6.027284
   108  C    5.998314
   109  C    5.993937
   110  C    6.000353
   111  N    7.001961
   112  C    6.037644
   113  C    6.032771
   114  C    6.000248
   115  C    6.026020
   116  C    5.999529
   117  C    6.013673
   118  O    8.028907
   119  C    6.003162
   120  C    6.005541
   121  O    8.002025
   122  O    8.002902
   123  C    5.997929
   124  H    0.989569
   125  H    0.995643
   126  H    1.007878
   127  H    0.997782
   128  H    0.994525
   129  H    0.992118
   130  H    0.986389
   131  H    1.005712
   132  H    1.010653
   133  H    0.994026
   134  H    1.002824
   135  H    1.005290
   136  H    0.985903
   137  H    0.985749
   138  H    0.986317
   139  H    0.992439
   140  H    0.992892
   141  H    0.986337
   142  H    1.001255
   143  H    1.000419
   144  H    0.988727
   145  H    0.998538
   146  H    1.006359
   147  H    1.007043
   148  H    0.993676
   149  H    0.994079
   150  H    1.015226
   151  H    1.002737
   152  H    1.020924
   153  H    1.012737
   154  H    1.019387
   155  H    1.005903
   156  H    1.001470
   157  H    1.005286
   158  H    1.005506
 Sum of Mulliken charges = 624.00000

 Dipole moment (field-independent basis, Debye):
    X=              8.6271    Y=              4.1168    Z=             -3.7678  Tot=             10.2748
 Quadrupole moment (field-independent basis, Debye-Ang):
   XX=            344.6910   YY=             -4.4640   ZZ=             -2.2047
   XY=             73.5672   XZ=            -77.8191   YZ=              3.2989

 Normal termination of Gaussian 16 at Thu Oct 14 21:38:32 2021.
