 Gaussian 16, Revision A.03,
 Gaussian 16:  ES64L-G16RevA.03 25-Dec-2016

 --------------------------------------------------------
 #p PBE1PBE/Def2SVP td=(nstates=5) density=(transition=1)
 --------------------------------------------------------

 --------------------------------
 TDDFT excited states in gaussian
 --------------------------------
 Symbolic Z-matrix:
 Charge =  0 Multiplicity = 1

                         Standard orientation:
 ---------------------------------------------------------------------
 Center     Atomic      Atomic             Coordinates (Angstroms)
 Number     Number       Type             X           Y           Z
 ---------------------------------------------------------------------
      1         12           0       -9.198814   -0.220959   -0.030802
      2          6           0       -7.008644    2.116918    1.160594
      3          6           0      -11.012453    2.131166   -1.540946
      4          6           0      -11.291618   -2.571761   -0.877229
      5          6           0       -7.539412   -2.541974    2.105042
      6          7           0       -9.130449    1.948219   -0.038922
      7          6           0       -8.004688    2.629852    0.289793
      8          6           0       -7.970927    3.994898   -0.341225
      9          6           0       -9.419423    4.066128   -0.971765
     10          6           0       -9.943359    2.659438   -0.779693
     11          6           0      -10.322620    5.180794   -0.391495
     12          6           0       -6.698875    4.241591   -1.360252
     13          6           0       -5.891921    5.541967   -1.225743
     14          1           0       -6.621325    6.762731   -0.581846
     15          7           0      -10.750523   -0.247595   -1.163333
     16          6           0      -11.408243    0.799794   -1.725543
     17          6           0      -12.631927    0.415368   -2.385879
     18          6           0      -12.617020   -0.946712   -2.378139
     19          6           0      -11.590310   -1.295805   -1.347684
     20          6           0      -13.549465    1.531561   -2.850429
     21          6           0      -13.582908   -1.927884   -3.071667
     22          8           0      -13.525856   -3.130050   -2.956501
     23          6           0      -14.645991   -1.256987   -3.890404
     24          7           0       -9.457900   -2.235325    0.697668
     25          6           0      -10.350580   -3.003709    0.047844
     26          6           0      -10.246053   -4.463989    0.498852
     27          6           0       -8.849001   -4.511851    1.205763
     28          6           0       -8.590327   -3.001551    1.382769
     29          6           0      -11.416626   -5.066076    1.387097
     30          6           0       -7.669367   -5.152822    0.381902
     31          6           0       -7.231570   -4.627582   -0.959999
     32          7           0       -7.549789   -0.326664    1.311148
     33          6           0       -7.031605   -1.290545    2.182105
     34          6           0       -5.894531   -0.769151    2.951251
     35          6           0       -5.841013    0.580329    2.571414
     36          6           0       -6.862835    0.756190    1.585942
     37          6           0       -4.968658   -1.517154    3.875792
     38          6           0       -5.193269    1.796713    2.761343
     39          8           0       -4.294818    2.156706    3.505847
     40          6           0       -5.749967    2.781249    1.700525
     41          6           0       -6.001278    4.002631    2.499375
     42          8           0       -6.980978    4.194719    3.223610
     43          8           0       -4.945210    4.864239    2.428259
     44          6           0       -4.862505    5.983090    3.372420
     45          1           0      -11.466051    2.894146   -2.177352
     46          1           0      -11.917288   -3.419750   -1.160830
     47          1           0       -7.103929   -3.365104    2.676681
     48          1           0       -7.963707    4.771543    0.423619
     49          1           0       -9.326914    4.194055   -2.050054
     50          1           0      -11.040308    4.731038    0.294503
     51          1           0      -10.875560    5.638500   -1.211792
     52          1           0       -9.661973    5.873946    0.129400
     53          1           0       -7.133751    4.192039   -2.358589
     54          1           0       -5.951918    3.458511   -1.233986
     55          1           0       -5.633030    5.927529   -2.211497
     56          1           0       -4.938073    5.335272   -0.740553
     57          1           0      -13.929390    2.178742   -2.059758
     58          1           0      -14.539200    1.304777   -3.246329
     59          1           0      -12.924652    2.008117   -3.605838
     60          1           0      -14.199769   -0.599181   -4.635869
     61          1           0      -15.262452   -0.797103   -3.118294
     62          1           0      -15.283988   -1.869174   -4.526810
     63          1           0      -10.285887   -4.989941   -0.455694
     64          1           0       -8.976602   -4.938285    2.200984
     65          1           0      -12.179021   -4.303942    1.546556
     66          1           0      -11.065751   -5.276343    2.396734
     67          1           0      -11.878966   -5.985510    1.024732
     68          1           0       -8.040541   -6.175221    0.306501
     69          1           0       -6.735205   -5.165148    0.942505
     70          1           0       -7.945460   -3.880460   -1.309251
     71          1           0       -7.230074   -5.426812   -1.701011
     72          1           0       -6.277150   -4.102246   -0.988421
     73          1           0       -5.138493   -1.270554    4.922921
     74          1           0       -3.932859   -1.305082    3.610207
     75          1           0       -5.281888   -2.553513    3.747046
     76          1           0       -5.062767    2.909300    0.863987
     77          1           0       -3.834962    6.311712    3.532608
     78          1           0       -5.443368    5.799170    4.274937
     79          1           0       -5.391314    6.868114    3.019066
     80         12           0        8.412146   -1.065946   -0.673348
     81          6           0       10.750483    1.518440   -0.527554
     82          6           0        5.972243    1.159730   -1.085791
     83          6           0        6.236946   -3.415591    0.523637
     84          6           0       10.994654   -3.353399   -0.189116
     85          7           0        8.391415    1.113310   -0.961164
     86          6           0        9.442653    1.919639   -0.877967
     87          6           0        9.000668    3.376057   -1.269430
     88          6           0        7.460050    3.243366   -1.329547
     89          6           0        7.228469    1.754426   -1.090133
     90          6           0        6.689241    4.023503   -0.152358
     91          6           0        9.601935    3.923703   -2.642708
     92          6           0       10.021604    5.350501   -2.547653
     93          1           0        9.532392    6.346385   -3.587907
     94          7           0        6.383401   -1.109859   -0.357987
     95          6           0        5.522344   -0.076019   -0.614802
     96          6           0        4.147158   -0.593215   -0.584608
     97          6           0        4.239253   -1.932088   -0.111897
     98          6           0        5.678225   -2.175040    0.083385
     99          6           0        2.895866    0.288750   -0.895160
    100          6           0        3.088310   -2.929082    0.219971
    101          8           0        3.263835   -4.074216    0.620858
    102          6           0        1.693419   -2.473314    0.013070
    103          7           0        8.570992   -3.018142    0.070244
    104          6           0        7.543950   -3.814900    0.585111
    105          6           0        8.150253   -5.083676    1.239727
    106          6           0        9.506091   -5.285353    0.431112
    107          6           0        9.675214   -3.780405    0.078067
    108          6           0        8.280364   -4.974556    2.774168
    109          6           0        9.447911   -6.133378   -0.807622
    110          6           0        8.902314   -5.588907   -2.094280
    111          7           0       10.476252   -1.040290   -0.606686
    112          6           0       11.406062   -2.025438   -0.366721
    113          6           0       12.773083   -1.499564   -0.358810
    114          6           0       12.572919   -0.046571   -0.318384
    115          6           0       11.143881    0.146264   -0.463123
    116          6           0       13.984397   -2.255389   -0.155119
    117          6           0       13.226101    1.250688   -0.192734
    118          8           0       14.338498    1.562129    0.015136
    119          6           0       12.044730    2.333352   -0.407987
    120          6           0       12.019205    3.437681    0.618347
    121          8           0       11.365368    3.424215    1.657092
    122          8           0       12.780413    4.504215    0.141149
    123          6           0       12.864673    5.712248    0.981778
    124          1           0        5.079384    1.705504   -1.399018
    125          1           0        5.487155   -4.109676    0.909992
    126          1           0       11.759104   -4.130732   -0.133497
    127          1           0        9.221542    4.098024   -0.482854
    128          1           0        6.978933    3.603464   -2.238901
    129          1           0        6.447637    5.013886   -0.538726
    130          1           0        7.276775    4.210272    0.746173
    131          1           0        5.765751    3.482355    0.056924
    132          1           0        8.878569    3.855505   -3.455399
    133          1           0       10.451555    3.367393   -3.038898
    134          1           0       11.096908    5.300230   -2.716610
    135          1           0        9.880964    5.862444   -1.596102
    136          1           0        2.592041    0.713804    0.061048
    137          1           0        2.115703   -0.283037   -1.398237
    138          1           0        3.126588    1.221724   -1.410485
    139          1           0        1.374517   -1.466325    0.281640
    140          1           0        1.009654   -3.136892    0.541857
    141          1           0        1.371450   -2.754017   -0.990155
    142          1           0        7.449447   -5.869575    0.959529
    143          1           0       10.305769   -5.682568    1.056026
    144          1           0        9.267140   -5.166385    3.195610
    145          1           0        7.486811   -5.487822    3.317709
    146          1           0        8.080500   -3.950762    3.089902
    147          1           0        8.887972   -7.060292   -0.689559
    148          1           0       10.463831   -6.459633   -1.030721
    149          1           0        9.807178   -5.264166   -2.607647
    150          1           0        8.259030   -4.713059   -2.006782
    151          1           0        8.397128   -6.388502   -2.637033
    152          1           0       14.738696   -1.777567   -0.780538
    153          1           0       13.798862   -3.263061   -0.526146
    154          1           0       14.284558   -2.210953    0.891330
    155          1           0       12.218859    2.802254   -1.376456
    156          1           0       13.183149    5.386635    1.972423
    157          1           0       11.885456    6.177514    1.091651
    158          1           0       13.514685    6.533883    0.680487
 ---------------------------------------------------------------------

 SCF Done:  E(RPBE1PBE) =  -4067.37774938     A.U. after   16 cycles

 Excitation energies and oscillator strengths:

 Excited State   1:      Singlet-A      1.8381 eV  674.53 nm  f=0.4847  <S**2>=0.000
     309 -> 316       -0.16834
     311 -> 314        0.11106
     312 -> 313        0.68562
     312 <- 313       -0.11153
 This state for optimization and/or second-order correction.
 Total Energy, E(TD-HF/TD-DFT) =  -4067.31020071
 Copying the excited state density for this state as the 1-particle RhoCI density.

 Excited State   2:      Singlet-A      1.8425 eV  672.90 nm  f=0.0000  <S**2>=0.000
     311 -> 313        0.70703

 Excited State   3:      Singlet-A      1.8961 eV  653.90 nm  f=0.2781  <S**2>=0.000
     310 -> 315       -0.18493
     311 -> 314        0.67907
     312 -> 313       -0.11089

 Excited State   4:      Singlet-A      1.9119 eV  648.47 nm  f=0.0000  <S**2>=0.000
     312 -> 314        0.70703

 Excited State   5:      Singlet-A      2.2583 eV  549.03 nm  f=0.0342  <S**2>=0.000
     309 -> 313       -0.13018
     310 -> 314        0.62341
     311 -> 315        0.29236

 The electronic state is 1-A.
 Alpha  occ. eigenvalues --  -46.91478 -46.91253 -19.25544 -19.24768 -19.20151
 Alpha  occ. eigenvalues --  -19.20025 -19.19685 -19.19365 -19.18782 -19.18231
 Alpha  occ. eigenvalues --  -14.41545 -14.41297 -14.40942 -14.40674 -14.39651
 Alpha  occ. eigenvalues --  -14.38846 -14.38820 -14.38615 -10.36536 -10.35464
 Alpha  occ. eigenvalues --  -10.32996 -10.32735 -10.32455 -10.30967 -10.28927
 Alpha  occ. eigenvalues --  -10.28894 -10.28442 -10.28405 -10.28310 -10.28212
 Alpha  occ. eigenvalues --  -10.28202 -10.28070 -10.27939 -10.27747 -10.27634
 Alpha  occ. eigenvalues --  -10.27567 -10.27272 -10.27137 -10.27044 -10.27036
 Alpha  occ. eigenvalues --  -10.26845 -10.26724 -10.26485 -10.26404 -10.26151
 Alpha  occ. eigenvalues --  -10.26064 -10.26011 -10.25886 -10.25866 -10.25856
 Alpha  occ. eigenvalues --  -10.25839 -10.25688 -10.25652 -10.25588 -10.25577
 Alpha  occ. eigenvalues --  -10.25499 -10.25444 -10.25385 -10.25367 -10.25318
 Alpha  occ. eigenvalues --  -10.25258 -10.25188 -10.25111 -10.24905 -10.24819
 Alpha  occ. eigenvalues --  -10.24397 -10.24228 -10.24200 -10.24060 -10.23743
 Alpha  occ. eigenvalues --  -10.23710 -10.23645 -10.23596 -10.23585 -10.23584
 Alpha  occ. eigenvalues --  -10.23366 -10.23355 -10.23243 -10.23112 -10.23029
 Alpha  occ. eigenvalues --  -10.23019 -10.22948 -10.22835 -10.22751 -10.22144
 Alpha  occ. eigenvalues --  -10.21905  -3.13905  -3.13531  -1.86713  -1.86376
 Alpha  occ. eigenvalues --   -1.86295  -1.86162  -1.85882  -1.85782  -1.09807
 Alpha  occ. eigenvalues --   -1.09751  -1.07549  -1.06174  -1.04848  -1.04062
 Alpha  occ. eigenvalues --   -1.02121  -1.00926  -1.00262  -0.99710  -0.99395
 Alpha  occ. eigenvalues --   -0.98956  -0.98133  -0.97900  -0.97490  -0.96716
 Alpha  occ. eigenvalues --   -0.86953  -0.86057  -0.83903  -0.83250  -0.82796
 Alpha  occ. eigenvalues --   -0.82775  -0.82412  -0.82353  -0.82287  -0.81933
 Alpha  occ. eigenvalues --   -0.81353  -0.81159  -0.81134  -0.80503  -0.78768
 Alpha  occ. eigenvalues --   -0.78375  -0.78005  -0.77784  -0.76994  -0.76831
 Alpha  occ. eigenvalues --   -0.76741  -0.75965  -0.75530  -0.75201  -0.74951
 Alpha  occ. eigenvalues --   -0.74634  -0.73323  -0.72474  -0.71964  -0.71481
 Alpha  occ. eigenvalues --   -0.71444  -0.70954  -0.70163  -0.70019  -0.69651
 Alpha  occ. eigenvalues --   -0.69138  -0.67271  -0.66604  -0.66232  -0.65837
 Alpha  occ. eigenvalues --   -0.64098  -0.63554  -0.63525  -0.62855  -0.62770
 Alpha  occ. eigenvalues --   -0.62024  -0.61789  -0.61063  -0.60045  -0.59979
 Alpha  occ. eigenvalues --   -0.59582  -0.59378  -0.59093  -0.58719  -0.58481
 Alpha  occ. eigenvalues --   -0.58461  -0.56489  -0.56286  -0.55652  -0.54657
 Alpha  occ. eigenvalues --   -0.54044  -0.54015  -0.53938  -0.53363  -0.52702
 Alpha  occ. eigenvalues --   -0.52679  -0.52523  -0.52237  -0.52225  -0.51544
 Alpha  occ. eigenvalues --   -0.50948  -0.50348  -0.50005  -0.49982  -0.49745
 Alpha  occ. eigenvalues --   -0.49742  -0.49274  -0.49255  -0.48834  -0.48522
 Alpha  occ. eigenvalues --   -0.48348  -0.48103  -0.47944  -0.47841  -0.47437
 Alpha  occ. eigenvalues --   -0.47410  -0.47194  -0.46996  -0.46963  -0.46938
 Alpha  occ. eigenvalues --   -0.46639  -0.46268  -0.46142  -0.46076  -0.45942
 Alpha  occ. eigenvalues --   -0.45813  -0.45674  -0.45380  -0.45100  -0.44964
 Alpha  occ. eigenvalues --   -0.44879  -0.44655  -0.44541  -0.44113  -0.44076
 Alpha  occ. eigenvalues --   -0.44052  -0.44052  -0.43852  -0.43753  -0.43528
 Alpha  occ. eigenvalues --   -0.43254  -0.43180  -0.42896  -0.42847  -0.42777
 Alpha  occ. eigenvalues --   -0.42576  -0.42506  -0.42360  -0.41973  -0.41604
 Alpha  occ. eigenvalues --   -0.41564  -0.41488  -0.41357  -0.41324  -0.41229
 Alpha  occ. eigenvalues --   -0.40914  -0.40705  -0.40636  -0.40362  -0.40361
 Alpha  occ. eigenvalues --   -0.40162  -0.40145  -0.39797  -0.39727  -0.39613
 Alpha  occ. eigenvalues --   -0.39403  -0.39385  -0.39078  -0.39010  -0.38872
 Alpha  occ. eigenvalues --   -0.38845  -0.38734  -0.38492  -0.38213  -0.38101
 Alpha  occ. eigenvalues --   -0.38043  -0.38011  -0.37873  -0.37804  -0.37603
 Alpha  occ. eigenvalues --   -0.37419  -0.37327  -0.37175  -0.36897  -0.36661
 Alpha  occ. eigenvalues --   -0.36557  -0.36344  -0.36241  -0.36203  -0.36083
 Alpha  occ. eigenvalues --   -0.36041  -0.35940  -0.35773  -0.35558  -0.35329
 Alpha  occ. eigenvalues --   -0.35086  -0.34619  -0.34264  -0.33970  -0.33572
 Alpha  occ. eigenvalues --   -0.33546  -0.33297  -0.32920  -0.32606  -0.32231
 Alpha  occ. eigenvalues --   -0.31861  -0.31629  -0.31547  -0.31500  -0.31365
 Alpha  occ. eigenvalues --   -0.30870  -0.30264  -0.29695  -0.29443  -0.29164
 Alpha  occ. eigenvalues --   -0.28850  -0.28280  -0.28005  -0.27795  -0.26712
 Alpha  occ. eigenvalues --   -0.26478  -0.26236  -0.26121  -0.25948  -0.25653
 Alpha  occ. eigenvalues --   -0.25576  -0.25266  -0.25069  -0.20825  -0.20794
 Alpha  occ. eigenvalues --   -0.18393  -0.18351
 Alpha virt. eigenvalues --   -0.10853  -0.10563  -0.05343  -0.04822  -0.04051
 Alpha virt. eigenvalues --   -0.03745  -0.01991  -0.01848  -0.00201  -0.00088
 Alpha virt. eigenvalues --    0.00227   0.00791   0.01485   0.01525   0.01912

 Mulliken charges:
               1
     1  Mg  12.000266
     2  C    5.996507
     3  C    6.000824
     4  C    6.002864
     5  C    6.000269
     6  N    6.998455
     7  C    6.005143
     8  C    5.997851
     9  C    6.001993
    10  C    5.994720
    11  C    6.000461
    12  C    5.999326
    13  C    6.000038
    14  H    0.999278
    15  N    7.000724
    16  C    5.994941
    17  C    5.996270
    18  C    5.997167
    19  C    5.995443
    20  C    6.000341
    21  C    5.997619
    22  O    7.995316
    23  C    6.001072
    24  N    7.000502
    25  C    5.995071
    26  C    6.001309
    27  C    5.998969
    28  C    6.003979
    29  C    6.000142
    30  C    5.998559
    31  C    5.999115
    32  N    6.999983
    33  C    6.004468
    34  C    6.005907
    35  C    6.000816
    36  C    6.003910
    37  C    5.999547
    38  C    6.003673
    39  O    8.006437
    40  C    6.000081
    41  C    6.000308
    42  O    8.000418
    43  O    8.000743
    44  C    5.999904
    45  H    0.997581
    46  H    0.998709
    47  H    1.002001
    48  H    0.999859
    49  H    0.999633
    50  H    0.999478
    51  H    0.999448
    52  H    0.997734
    53  H    1.001248
    54  H    1.000496
    55  H    1.000423
    56  H    1.000392
    57  H    0.996620
    58  H    0.997001
    59  H    0.997891
    60  H    0.998933
    61  H    0.998821
    62  H    0.997078
    63  H    1.000297
    64  H    0.999788
    65  H    1.000232
    66  H    0.998067
    67  H    0.999275
    68  H    1.001032
    69  H    1.000338
    70  H    1.001641
    71  H    1.000555
    72  H    1.000952
    73  H    1.002333
    74  H    1.005486
    75  H    1.002332
    76  H    1.002731
    77  H    1.000898
    78  H    0.999590
    79  H    1.000374
    80  Mg  12.001742
    81  C    5.976246
    82  C    5.995502
    83  C    6.028599
    84  C    6.007024
    85  N    6.988305
    86  C    6.032766
    87  C    5.990575
    88  C    6.008149
    89  C    5.974413
    90  C    6.006178
    91  C    5.998368
    92  C    5.999844
    93  H    1.005288
    94  N    7.004595
    95  C    5.967242
    96  C    5.978300
    97  C    5.988549
    98  C    5.961162
    99  C    6.001377
   100  C    5.986329
   101  O    7.972655
   102  C    6.009683
   103  N    7.017694
   104  C    5.964367
   105  C    6.003817
   106  C    5.991886
   107  C    6.020261
   108  C    5.998965
   109  C    5.994560
   110  C    5.996865
   111  N    6.997913
   112  C    6.023556
   113  C    6.035565
   114  C    6.003847
   115  C    6.026932
   116  C    5.995342
   117  C    6.014843
   118  O    8.023635
   119  C    6.004181
   120  C    6.002765
   121  O    8.008473
   122  O    8.000180
   123  C    5.997976
   124  H    0.988721
   125  H    0.996031
   126  H    1.014163
   127  H    1.000186
   128  H    0.995683
   129  H    0.990356
   130  H    0.988212
   131  H    1.006694
   132  H    1.006999
   133  H    0.993320
   134  H    0.995541
   135  H    1.001007
   136  H    0.982595
   137  H    0.985190
   138  H    0.984130
   139  H    0.993980
   140  H    0.985721
   141  H    0.989519
   142  H    1.003615
   143  H    1.002020
   144  H    0.989689
   145  H    1.002930
   146  H    1.001511
   147  H    1.011474
   148  H    0.998743
   149  H    0.993738
   150  H    1.011752
   151  H    1.007250
   152  H    1.017815
   153  H    1.015327
   154  H    1.023158
   155  H    1.006188
   156  H    1.000806
   157  H    1.006015
   158  H    1.003407
 Sum of Mulliken charges = 624.00000

 Dipole moment (field-independent basis, Debye):
    X=             11.7303    Y=             -0.5897    Z=              1.0640  Tot=             11.7932
 Quadrupole moment (field-independent basis, Debye-Ang):
   XX=            140.8354   YY=              3.5688   ZZ=              0.1650
   XY=            -13.8785   XZ=            -11.4363   YZ=              2.3198

 Normal termination of Gaussian 16 at Wed Oct 13 20:36:42 2021.
