 Gaussian 16, Revision A.03,
 Gaussian 16:  ES64L-G16RevA.03 25-Dec-2016

 --------------------------------------------------------
 #p PBE1PBE/Def2SVP td=(nstates=5) density=(transition=1)
 --------------------------------------------------------

 --------------------------------
 TDDFT excited states in gaussian
 --------------------------------
 Symbolic Z-matrix:
 Charge =  0 Multiplicity = 1

                         Standard orientation:
 ---------------------------------------------------------------------
 Center     Atomic      Atomic             Coordinates (Angstroms)
 Number     Number       Type             X           Y           Z
 ---------------------------------------------------------------------
      1         12           0      -31.712580   -0.101068    0.313406
      2          6           0      -29.428079   -1.406860   -1.911903
      3          6           0      -32.725538    2.014804   -2.177386
      4          6           0      -33.749134    1.380261    2.563411
      5          6           0      -30.213322   -1.876819    2.899536
      6          7           0      -30.974345    0.298371   -1.797608
      7          6           0      -30.224794   -0.445683   -2.515978
      8          6           0      -30.111450   -0.060862   -4.080410
      9          6           0      -30.979823    1.258311   -4.044045
     10          6           0      -31.563803    1.276650   -2.552434
     11          6           0      -30.152590    2.630498   -4.267381
     12          6           0      -30.650492   -1.159789   -5.095349
     13          6           0      -29.961602   -1.255333   -6.502799
     14          1           0      -29.029543   -0.140944   -6.871621
     15          7           0      -33.071756    1.382780    0.206041
     16          6           0      -33.446673    2.135313   -0.975613
     17          6           0      -34.533356    3.031852   -0.595319
     18          6           0      -34.765321    2.940897    0.799805
     19          6           0      -33.880094    1.841109    1.245295
     20          6           0      -35.174231    3.815168   -1.683869
     21          6           0      -35.779410    3.668572    1.713248
     22          8           0      -35.826541    3.590438    2.904840
     23          6           0      -36.672084    4.702535    0.997621
     24          7           0      -31.926966   -0.108875    2.471036
     25          6           0      -32.797411    0.555652    3.163136
     26          6           0      -32.530530    0.437375    4.690559
     27          6           0      -31.475893   -0.690257    4.795497
     28          6           0      -31.172962   -0.948411    3.300722
     29          6           0      -32.067066    1.787009    5.278930
     30          6           0      -31.997789   -1.924602    5.593110
     31          6           0      -32.143982   -1.704548    7.107502
     32          7           0      -30.125904   -1.405454    0.507625
     33          6           0      -29.709979   -2.120792    1.616471
     34          6           0      -28.658947   -2.996143    1.168685
     35          6           0      -28.438353   -2.760553   -0.221404
     36          6           0      -29.424137   -1.785118   -0.533734
     37          6           0      -27.930468   -3.882978    1.999525
     38          6           0      -27.743672   -3.129645   -1.413468
     39          8           0      -26.768110   -3.928075   -1.541403
     40          6           0      -28.298596   -2.161549   -2.529120
     41          6           0      -27.179540   -1.389853   -3.026094
     42          8           0      -26.728678   -0.385156   -2.476497
     43          8           0      -26.658010   -2.076145   -4.093116
     44          6           0      -25.354360   -1.544175   -4.543253
     45          1           0      -33.052027    2.719689   -2.944249
     46          1           0      -34.453103    1.886710    3.228053
     47          1           0      -29.825052   -2.464584    3.734494
     48          1           0      -29.057111    0.188451   -4.202726
     49          1           0      -31.743414    1.225170   -4.820921
     50          1           0      -29.102080    2.426671   -4.058119
     51          1           0      -30.523248    3.397026   -3.587007
     52          1           0      -30.212631    3.075359   -5.261191
     53          1           0      -31.688938   -0.870310   -5.254180
     54          1           0      -30.848601   -2.147932   -4.678681
     55          1           0      -30.664528   -1.343672   -7.331078
     56          1           0      -29.309879   -2.128941   -6.518675
     57          1           0      -34.615051    4.730669   -1.879049
     58          1           0      -36.247848    3.941155   -1.543243
     59          1           0      -35.125782    3.200310   -2.582279
     60          1           0      -37.464294    4.272256    0.384156
     61          1           0      -35.934788    5.249267    0.410629
     62          1           0      -37.137734    5.451760    1.637187
     63          1           0      -33.496993    0.107026    5.070494
     64          1           0      -30.562807   -0.295167    5.240721
     65          1           0      -31.601401    2.476013    4.573940
     66          1           0      -31.290696    1.772726    6.044600
     67          1           0      -32.967226    2.243638    5.690294
     68          1           0      -31.283849   -2.739575    5.482235
     69          1           0      -32.951559   -2.253838    5.179382
     70          1           0      -31.933485   -0.654116    7.308510
     71          1           0      -31.301885   -2.177206    7.613261
     72          1           0      -33.044382   -2.059331    7.608433
     73          1           0      -28.689557   -4.356699    2.622118
     74          1           0      -27.211641   -3.427271    2.680299
     75          1           0      -27.331123   -4.536738    1.365061
     76          1           0      -28.627247   -2.852090   -3.306252
     77          1           0      -24.653322   -1.739155   -3.731205
     78          1           0      -25.430301   -0.510781   -4.879901
     79          1           0      -25.045585   -2.135812   -5.405209
     80         12           0       31.462560    0.452270   -0.505983
     81          6           0       29.233841   -1.982184    0.575352
     82          6           0       29.093919    2.923506    0.411126
     83          6           0       33.884313    2.752960   -0.427902
     84          6           0       33.918812   -2.068299   -0.711460
     85          7           0       29.469647    0.457866    0.751140
     86          6           0       28.708499   -0.684846    0.807685
     87          6           0       27.329262   -0.401175    1.314449
     88          6           0       27.195515    1.162898    1.017516
     89          6           0       28.675921    1.598048    0.729728
     90          6           0       26.198228    1.570510   -0.180794
     91          6           0       27.167438   -0.907806    2.839106
     92          6           0       25.814759   -1.230392    3.229505
     93          1           0       25.333385   -0.466381    4.481173
     94          7           0       31.485677    2.552831   -0.254963
     95          6           0       30.397660    3.392318    0.114498
     96          6           0       30.884567    4.761469    0.120647
     97          6           0       32.276129    4.756730   -0.141874
     98          6           0       32.599221    3.309325   -0.377129
     99          6           0       30.025597    5.899884    0.528435
    100          6           0       33.195738    6.048557   -0.112911
    101          8           0       32.643320    7.118696    0.137343
    102          6           0       34.613788    6.044541   -0.673439
    103          7           0       33.570903    0.298569   -0.462492
    104          6           0       34.311175    1.432253   -0.555323
    105          6           0       35.937211    1.138116   -0.524989
    106          6           0       35.932189   -0.434598   -0.838261
    107          6           0       34.421787   -0.805816   -0.700225
    108          6           0       36.796012    1.915204   -1.593269
    109          6           0       36.798757   -1.243105    0.129107
    110          6           0       37.967670   -2.113747   -0.390949
    111          7           0       31.500101   -1.610821   -0.427995
    112          6           0       32.545316   -2.477286   -0.566401
    113          6           0       32.044830   -3.824150   -0.548677
    114          6           0       30.707852   -3.642061   -0.029819
    115          6           0       30.473823   -2.258965    0.055082
    116          6           0       32.851880   -5.079556   -0.712624
    117          6           0       29.560047   -4.359726    0.484307
    118          8           0       29.301569   -5.524141    0.442883
    119          6           0       28.456084   -3.301568    0.875259
    120          6           0       27.176095   -3.354653    0.012330
    121          8           0       27.162215   -3.363423   -1.199815
    122          8           0       26.048450   -3.492745    0.847737
    123          6           0       24.792995   -3.731680    0.202208
    124          1           0       28.297428    3.632174    0.644115
    125          1           0       34.718688    3.411471   -0.178313
    126          1           0       34.708895   -2.815732   -0.804045
    127          1           0       26.555079   -0.783874    0.648600
    128          1           0       26.854508    1.650280    1.931615
    129          1           0       25.443343    2.205905    0.282197
    130          1           0       25.744581    0.707588   -0.667330
    131          1           0       26.792442    2.153131   -0.885350
    132          1           0       27.508064   -0.053039    3.423201
    133          1           0       27.920323   -1.695641    2.875339
    134          1           0       25.805484   -2.302543    3.422044
    135          1           0       25.121037   -0.958448    2.434005
    136          1           0       28.973451    5.617773    0.562903
    137          1           0       30.065080    6.684652   -0.227411
    138          1           0       30.294393    6.263515    1.520490
    139          1           0       35.308471    5.423240   -0.107316
    140          1           0       34.956936    7.079331   -0.698716
    141          1           0       34.550888    5.703214   -1.706768
    142          1           0       36.201306    1.318597    0.516659
    143          1           0       36.145791   -0.697342   -1.874560
    144          1           0       37.448848    2.628601   -1.091148
    145          1           0       36.132179    2.458655   -2.266711
    146          1           0       37.379988    1.165071   -2.127617
    147          1           0       36.191956   -1.851398    0.799450
    148          1           0       37.265340   -0.657194    0.920847
    149          1           0       37.856379   -3.196529   -0.327394
    150          1           0       38.806037   -1.873790    0.263454
    151          1           0       38.196358   -1.887338   -1.433057
    152          1           0       32.150473   -5.878297   -0.955019
    153          1           0       33.201331   -5.529067    0.216318
    154          1           0       33.703541   -4.995992   -1.387232
    155          1           0       28.197042   -3.589067    1.894635
    156          1           0       24.113871   -3.307954    0.942750
    157          1           0       24.537277   -4.790971    0.184770
    158          1           0       24.784832   -3.309677   -0.801956
 ---------------------------------------------------------------------

 SCF Done:  E(RPBE1PBE) =  -4067.36174765     A.U. after   17 cycles

 Excitation energies and oscillator strengths:

 Excited State   1:      Singlet-A      1.8323 eV  676.65 nm  f=0.3806  <S**2>=0.000
     309 -> 315       -0.16909
     312 -> 313        0.69537
     312 <- 313       -0.11107
 This state for optimization and/or second-order correction.
 Total Energy, E(TD-HF/TD-DFT) =  -4067.29441118
 Copying the excited state density for this state as the 1-particle RhoCI density.

 Excited State   2:      Singlet-A      1.9096 eV  649.28 nm  f=0.3730  <S**2>=0.000
     310 -> 316       -0.19440
     311 -> 314        0.68533

 Excited State   3:      Singlet-A      2.0002 eV  619.86 nm  f=0.0000  <S**2>=0.000
     311 -> 313        0.70711

 Excited State   4:      Singlet-A      2.0840 eV  594.93 nm  f=0.0000  <S**2>=0.000
     312 -> 314        0.70711

 Excited State   5:      Singlet-A      2.2083 eV  561.45 nm  f=0.1060  <S**2>=0.000
     310 -> 314        0.65635
     311 -> 316        0.25140

 The electronic state is 1-A.
 Alpha  occ. eigenvalues --  -46.93181 -46.91809 -19.25812 -19.25455 -19.20961
 Alpha  occ. eigenvalues --  -19.20187 -19.19731 -19.19537 -19.18663 -19.18623
 Alpha  occ. eigenvalues --  -14.41700 -14.41645 -14.41596 -14.41072 -14.39738
 Alpha  occ. eigenvalues --  -14.39321 -14.38825 -14.38660 -10.37139 -10.35541
 Alpha  occ. eigenvalues --  -10.33392 -10.33240 -10.32043 -10.31297 -10.29453
 Alpha  occ. eigenvalues --  -10.29388 -10.29178 -10.28693 -10.28536 -10.28482
 Alpha  occ. eigenvalues --  -10.28456 -10.28409 -10.28398 -10.28392 -10.28197
 Alpha  occ. eigenvalues --  -10.28171 -10.28115 -10.27981 -10.27654 -10.27092
 Alpha  occ. eigenvalues --  -10.26883 -10.26832 -10.26752 -10.26734 -10.26689
 Alpha  occ. eigenvalues --  -10.26548 -10.26246 -10.26231 -10.26027 -10.26006
 Alpha  occ. eigenvalues --  -10.25961 -10.25858 -10.25677 -10.25626 -10.25599
 Alpha  occ. eigenvalues --  -10.25587 -10.25481 -10.25438 -10.25389 -10.25374
 Alpha  occ. eigenvalues --  -10.25333 -10.25289 -10.24967 -10.24783 -10.24700
 Alpha  occ. eigenvalues --  -10.24427 -10.24389 -10.24293 -10.24230 -10.24224
 Alpha  occ. eigenvalues --  -10.24203 -10.24128 -10.24123 -10.24116 -10.23902
 Alpha  occ. eigenvalues --  -10.23583 -10.23422 -10.23337 -10.23331 -10.23121
 Alpha  occ. eigenvalues --  -10.22974 -10.22841 -10.22693 -10.22609 -10.22397
 Alpha  occ. eigenvalues --  -10.22208  -3.15181  -3.13999  -1.87968  -1.87610
 Alpha  occ. eigenvalues --   -1.87369  -1.86833  -1.86379  -1.86226  -1.10853
 Alpha  occ. eigenvalues --   -1.10277  -1.07106  -1.05709  -1.04857  -1.03585
 Alpha  occ. eigenvalues --   -1.02031  -1.01591  -1.00007  -0.99808  -0.98977
 Alpha  occ. eigenvalues --   -0.98267  -0.97392  -0.96935  -0.96169  -0.95332
 Alpha  occ. eigenvalues --   -0.86945  -0.86681  -0.83604  -0.83517  -0.82599
 Alpha  occ. eigenvalues --   -0.82588  -0.82418  -0.82033  -0.81820  -0.81307
 Alpha  occ. eigenvalues --   -0.81175  -0.81097  -0.80797  -0.80075  -0.78303
 Alpha  occ. eigenvalues --   -0.78201  -0.77722  -0.77666  -0.76901  -0.76571
 Alpha  occ. eigenvalues --   -0.76359  -0.75813  -0.75479  -0.75361  -0.74621
 Alpha  occ. eigenvalues --   -0.74582  -0.72757  -0.72215  -0.71706  -0.71572
 Alpha  occ. eigenvalues --   -0.71015  -0.70669  -0.70481  -0.70041  -0.69266
 Alpha  occ. eigenvalues --   -0.69173  -0.67144  -0.66696  -0.65899  -0.65774
 Alpha  occ. eigenvalues --   -0.63745  -0.63608  -0.63137  -0.62927  -0.62666
 Alpha  occ. eigenvalues --   -0.61852  -0.61342  -0.60830  -0.60308  -0.60188
 Alpha  occ. eigenvalues --   -0.59799  -0.59334  -0.59296  -0.58871  -0.58694
 Alpha  occ. eigenvalues --   -0.58632  -0.57416  -0.56140  -0.54474  -0.54220
 Alpha  occ. eigenvalues --   -0.54068  -0.53968  -0.53684  -0.53541  -0.53059
 Alpha  occ. eigenvalues --   -0.52896  -0.52622  -0.52458  -0.52150  -0.52034
 Alpha  occ. eigenvalues --   -0.50836  -0.50539  -0.50169  -0.49951  -0.49766
 Alpha  occ. eigenvalues --   -0.49560  -0.49254  -0.49099  -0.48605  -0.48567
 Alpha  occ. eigenvalues --   -0.47857  -0.47851  -0.47647  -0.47359  -0.47335
 Alpha  occ. eigenvalues --   -0.47154  -0.47129  -0.46945  -0.46748  -0.46583
 Alpha  occ. eigenvalues --   -0.46475  -0.46297  -0.46183  -0.45948  -0.45650
 Alpha  occ. eigenvalues --   -0.45589  -0.45464  -0.45437  -0.45285  -0.44807
 Alpha  occ. eigenvalues --   -0.44767  -0.44485  -0.44273  -0.44174  -0.44089
 Alpha  occ. eigenvalues --   -0.43892  -0.43828  -0.43707  -0.43575  -0.43413
 Alpha  occ. eigenvalues --   -0.43142  -0.43123  -0.43088  -0.42790  -0.42684
 Alpha  occ. eigenvalues --   -0.42524  -0.42467  -0.42446  -0.42052  -0.41671
 Alpha  occ. eigenvalues --   -0.41654  -0.41560  -0.41272  -0.41142  -0.41135
 Alpha  occ. eigenvalues --   -0.41009  -0.40865  -0.40710  -0.40613  -0.40395
 Alpha  occ. eigenvalues --   -0.40372  -0.39957  -0.39902  -0.39736  -0.39684
 Alpha  occ. eigenvalues --   -0.39553  -0.39334  -0.39187  -0.39065  -0.38915
 Alpha  occ. eigenvalues --   -0.38829  -0.38668  -0.38490  -0.38443  -0.38221
 Alpha  occ. eigenvalues --   -0.38195  -0.37914  -0.37880  -0.37773  -0.37578
 Alpha  occ. eigenvalues --   -0.37558  -0.37491  -0.37460  -0.37309  -0.37111
 Alpha  occ. eigenvalues --   -0.37044  -0.36607  -0.36473  -0.36374  -0.36282
 Alpha  occ. eigenvalues --   -0.36066  -0.35958  -0.35877  -0.35478  -0.35335
 Alpha  occ. eigenvalues --   -0.35141  -0.34774  -0.34670  -0.34313  -0.33605
 Alpha  occ. eigenvalues --   -0.33167  -0.33144  -0.32934  -0.32745  -0.32606
 Alpha  occ. eigenvalues --   -0.32073  -0.31959  -0.31632  -0.31479  -0.31390
 Alpha  occ. eigenvalues --   -0.31247  -0.30683  -0.29770  -0.29557  -0.29405
 Alpha  occ. eigenvalues --   -0.29088  -0.28875  -0.28577  -0.26955  -0.26888
 Alpha  occ. eigenvalues --   -0.26241  -0.26187  -0.25768  -0.25585  -0.25382
 Alpha  occ. eigenvalues --   -0.25094  -0.24960  -0.24952  -0.21197  -0.20608
 Alpha  occ. eigenvalues --   -0.18829  -0.18793
 Alpha virt. eigenvalues --   -0.11267  -0.10923  -0.05151  -0.05133  -0.04215
 Alpha virt. eigenvalues --   -0.03764  -0.02314  -0.02269  -0.01441  -0.00118
 Alpha virt. eigenvalues --   -0.00110   0.00388   0.00884   0.01515   0.01678

 Mulliken charges:
               1
     1  Mg  11.999963
     2  C    6.000018
     3  C    6.000079
     4  C    5.999894
     5  C    5.999959
     6  N    6.999970
     7  C    6.000061
     8  C    5.999976
     9  C    6.000010
    10  C    5.999944
    11  C    6.000034
    12  C    6.000003
    13  C    6.000016
    14  H    0.999994
    15  N    7.000071
    16  C    5.999925
    17  C    5.999914
    18  C    5.999990
    19  C    5.999970
    20  C    5.999981
    21  C    5.999994
    22  O    7.999955
    23  C    5.999994
    24  N    7.000065
    25  C    5.999945
    26  C    6.000012
    27  C    5.999962
    28  C    6.000019
    29  C    5.999981
    30  C    5.999987
    31  C    5.999984
    32  N    7.000018
    33  C    6.000087
    34  C    5.999983
    35  C    6.000027
    36  C    6.000024
    37  C    6.000036
    38  C    6.000107
    39  O    8.000045
    40  C    5.999991
    41  C    6.000016
    42  O    8.000003
    43  O    7.999976
    44  C    6.000015
    45  H    0.999979
    46  H    1.000005
    47  H    1.000010
    48  H    0.999991
    49  H    0.999990
    50  H    0.999979
    51  H    0.999993
    52  H    0.999978
    53  H    1.000003
    54  H    1.000001
    55  H    0.999997
    56  H    1.000001
    57  H    0.999972
    58  H    0.999983
    59  H    0.999996
    60  H    0.999986
    61  H    0.999988
    62  H    0.999971
    63  H    1.000012
    64  H    1.000012
    65  H    1.000002
    66  H    0.999991
    67  H    1.000006
    68  H    1.000014
    69  H    1.000013
    70  H    1.000000
    71  H    1.000012
    72  H    1.000014
    73  H    1.000018
    74  H    1.000029
    75  H    1.000025
    76  H    1.000026
    77  H    1.000004
    78  H    0.999993
    79  H    1.000012
    80  Mg  11.999740
    81  C    6.007326
    82  C    5.980792
    83  C    5.992238
    84  C    6.022175
    85  N    6.992804
    86  C    5.972222
    87  C    6.013332
    88  C    5.989527
    89  C    6.036743
    90  C    5.998763
    91  C    6.001409
    92  C    6.004330
    93  H    0.988529
    94  N    6.994849
    95  C    6.046738
    96  C    6.012519
    97  C    6.018577
    98  C    6.028663
    99  C    5.994376
   100  C    6.013133
   101  O    8.021228
   102  C    5.996552
   103  N    7.013777
   104  C    6.023691
   105  C    5.992220
   106  C    6.007269
   107  C    5.964460
   108  C    5.998458
   109  C    6.002291
   110  C    6.000779
   111  N    6.999285
   112  C    5.958903
   113  C    5.978656
   114  C    5.990746
   115  C    5.976732
   116  C    6.001197
   117  C    5.982314
   118  O    7.970830
   119  C    5.998431
   120  C    5.994657
   121  O    7.994599
   122  O    7.996874
   123  C    6.002722
   124  H    1.008617
   125  H    1.007860
   126  H    0.993429
   127  H    0.997269
   128  H    1.002814
   129  H    1.002482
   130  H    1.012692
   131  H    0.995414
   132  H    0.988695
   133  H    1.007921
   134  H    1.002807
   135  H    0.996104
   136  H    1.017524
   137  H    1.014961
   138  H    1.017326
   139  H    1.011529
   140  H    1.012489
   141  H    1.008145
   142  H    1.001753
   143  H    0.999433
   144  H    0.999621
   145  H    0.996303
   146  H    1.009848
   147  H    1.004798
   148  H    0.991897
   149  H    1.003374
   150  H    0.996149
   151  H    0.996934
   152  H    0.987864
   153  H    0.979083
   154  H    0.983082
   155  H    0.990412
   156  H    0.993982
   157  H    0.996887
   158  H    0.995044
 Sum of Mulliken charges = 624.00000

 Dipole moment (field-independent basis, Debye):
    X=              1.1057    Y=             10.4081    Z=             -0.1009  Tot=             10.4672
 Quadrupole moment (field-independent basis, Debye-Ang):
   XX=             64.8277   YY=             10.5372   ZZ=             -1.1197
   XY=            327.3816   XZ=             -1.9055   YZ=             -0.7321

 Normal termination of Gaussian 16 at Fri Oct 15 10:11:48 2021.
