 Gaussian 16, Revision A.03,
 Gaussian 16:  ES64L-G16RevA.03 25-Dec-2016

 --------------------------------------------------------
 #p PBE1PBE/Def2SVP td=(nstates=5) density=(transition=1)
 --------------------------------------------------------

 --------------------------------
 TDDFT excited states in gaussian
 --------------------------------
 Symbolic Z-matrix:
 Charge =  0 Multiplicity = 1

                         Standard orientation:
 ---------------------------------------------------------------------
 Center     Atomic      Atomic             Coordinates (Angstroms)
 Number     Number       Type             X           Y           Z
 ---------------------------------------------------------------------
      1         12           0      -30.348641    0.027173   -0.172253
      2          6           0      -26.937512   -0.572510   -0.443758
      3          6           0      -30.355292   -2.496593    2.365878
      4          6           0      -33.458183    0.815505    0.545081
      5          6           0      -29.923347    2.906784   -2.143213
      6          7           0      -28.791854   -1.267847    0.906935
      7          6           0      -27.475282   -1.370436    0.517204
      8          6           0      -26.742221   -2.384406    1.399674
      9          6           0      -27.926819   -3.142420    2.060258
     10          6           0      -29.109133   -2.243302    1.811210
     11          6           0      -28.249676   -4.609151    1.572165
     12          6           0      -25.793907   -1.726025    2.415178
     13          6           0      -24.930370   -2.653798    3.181136
     14          1           0      -23.616855   -2.054903    3.814460
     15          7           0      -31.749937   -0.723339    1.279017
     16          6           0      -31.569965   -1.768374    2.198588
     17          6           0      -32.798684   -1.940359    2.922310
     18          6           0      -33.684882   -0.882703    2.497894
     19          6           0      -32.968801   -0.212364    1.358046
     20          6           0      -32.970482   -2.985141    4.059329
     21          6           0      -35.072454   -0.669524    3.111239
     22          8           0      -35.563918   -1.470733    3.888758
     23          6           0      -35.842297    0.540639    2.742001
     24          7           0      -31.570027    1.521064   -0.910064
     25          6           0      -32.833446    1.598241   -0.478452
     26          6           0      -33.511572    2.911130   -1.044331
     27          6           0      -32.393557    3.651420   -1.874522
     28          6           0      -31.153652    2.640208   -1.588121
     29          6           0      -34.863464    2.756220   -1.789344
     30          6           0      -32.134487    5.055846   -1.288457
     31          6           0      -31.658172    6.107224   -2.298122
     32          7           0      -28.785454    1.038744   -1.143185
     33          6           0      -28.771429    2.104763   -1.998483
     34          6           0      -27.427165    2.217684   -2.576997
     35          6           0      -26.733212    1.151992   -2.069937
     36          6           0      -27.541386    0.500934   -1.165710
     37          6           0      -26.983380    3.230581   -3.637396
     38          6           0      -25.451359    0.513789   -2.056470
     39          8           0      -24.430834    0.734857   -2.660655
     40          6           0      -25.535756   -0.645092   -1.007703
     41          6           0      -25.356304   -1.927915   -1.741603
     42          8           0      -25.926055   -2.280671   -2.736790
     43          8           0      -24.494232   -2.751218   -0.996665
     44          6           0      -24.277665   -4.066139   -1.529602
     45          1           0      -30.275178   -3.341544    3.052296
     46          1           0      -34.482058    1.178534    0.660242
     47          1           0      -29.771841    3.752893   -2.816899
     48          1           0      -26.247429   -3.070495    0.713578
     49          1           0      -27.895999   -3.220033    3.146492
     50          1           0      -28.290986   -5.188314    2.494397
     51          1           0      -27.741211   -4.972548    0.678729
     52          1           0      -29.283377   -4.594704    1.227000
     53          1           0      -26.277293   -1.194280    3.235192
     54          1           0      -25.169591   -0.987403    1.912297
     55          1           0      -24.670081   -3.467101    2.503723
     56          1           0      -25.524339   -3.117394    3.968585
     57          1           0      -32.922974   -2.282828    4.892166
     58          1           0      -32.122294   -3.648020    4.231613
     59          1           0      -33.841066   -3.634435    4.153885
     60          1           0      -35.138912    1.362594    2.875134
     61          1           0      -36.644859    0.671634    3.468015
     62          1           0      -36.125720    0.352437    1.706164
     63          1           0      -33.761483    3.507310   -0.166258
     64          1           0      -32.573170    3.708006   -2.947661
     65          1           0      -35.652103    3.130057   -1.135581
     66          1           0      -34.969761    1.717785   -2.101364
     67          1           0      -34.890408    3.430067   -2.645651
     68          1           0      -31.387479    4.898087   -0.510932
     69          1           0      -32.975260    5.466529   -0.729046
     70          1           0      -32.409692    6.891733   -2.203037
     71          1           0      -31.528247    5.734852   -3.314349
     72          1           0      -30.711995    6.540769   -1.974028
     73          1           0      -26.017233    3.707880   -3.476923
     74          1           0      -27.808834    3.942668   -3.622553
     75          1           0      -27.124746    2.736886   -4.598973
     76          1           0      -24.724630   -0.474729   -0.299679
     77          1           0      -23.251307   -4.082703   -1.896346
     78          1           0      -24.935372   -4.441557   -2.313924
     79          1           0      -24.398406   -4.771139   -0.707552
     80         12           0       30.191401    0.250185    0.229983
     81          6           0       27.432251   -0.066763   -1.734128
     82          6           0       31.370396   -2.805980   -0.822024
     83          6           0       32.790694    0.622000    2.366849
     84          6           0       28.719752    3.139864    1.635601
     85          7           0       29.359257   -1.370469   -0.968015
     86          6           0       28.400756   -1.112389   -1.897381
     87          6           0       28.334347   -2.134319   -2.981248
     88          6           0       29.488835   -3.142258   -2.469152
     89          6           0       30.135624   -2.410392   -1.339295
     90          6           0       28.912045   -4.555872   -2.005430
     91          6           0       28.714248   -1.438642   -4.370691
     92          6           0       28.218453   -2.113167   -5.651633
     93          1           0       27.656912   -3.555215   -5.719968
     94          7           0       31.918030   -0.845573    0.668692
     95          6           0       32.202656   -2.111069    0.130180
     96          6           0       33.448547   -2.548408    0.716001
     97          6           0       33.884975   -1.554631    1.615611
     98          6           0       32.862526   -0.521423    1.524516
     99          6           0       34.112221   -3.876946    0.284330
    100          6           0       35.170057   -1.606206    2.596695
    101          8           0       35.552576   -0.626398    3.248709
    102          6           0       36.050089   -2.830220    2.789223
    103          7           0       30.702365    1.764809    1.761262
    104          6           0       31.822923    1.627959    2.509732
    105          6           0       31.831284    2.603275    3.685666
    106          6           0       30.656980    3.654493    3.246996
    107          6           0       30.011347    2.901530    2.073189
    108          6           0       31.725287    1.952764    5.140388
    109          6           0       31.146212    5.066275    2.641118
    110          6           0       30.557357    6.360209    3.172282
    111          7           0       28.466933    1.409307    0.016707
    112          6           0       27.994358    2.508884    0.629422
    113          6           0       26.716250    2.940269   -0.018623
    114          6           0       26.521980    1.940758   -1.001326
    115          6           0       27.556852    0.989791   -0.826241
    116          6           0       25.850860    4.126454    0.221418
    117          6           0       25.608610    1.585869   -2.021941
    118          8           0       24.564066    2.153043   -2.403011
    119          6           0       26.152955    0.259649   -2.546673
    120          6           0       25.153325   -0.765149   -2.349929
    121          8           0       24.584268   -1.119099   -1.365035
    122          8           0       25.017948   -1.413477   -3.573936
    123          6           0       24.098790   -2.600646   -3.761435
    124          1           0       31.912025   -3.642293   -1.267988
    125          1           0       33.580259    0.684941    3.119025
    126          1           0       28.120750    3.896932    2.144809
    127          1           0       27.422587   -2.696862   -3.181121
    128          1           0       30.226008   -3.329695   -3.249862
    129          1           0       29.538435   -5.420338   -2.224291
    130          1           0       27.888759   -4.658516   -2.366285
    131          1           0       28.846129   -4.515527   -0.917685
    132          1           0       29.792679   -1.318631   -4.475888
    133          1           0       28.283671   -0.438665   -4.312435
    134          1           0       29.046263   -2.039676   -6.358058
    135          1           0       27.449063   -1.483912   -6.097425
    136          1           0       33.589987   -4.399853   -0.516773
    137          1           0       34.180189   -4.494274    1.179478
    138          1           0       35.132004   -3.639193   -0.019232
    139          1           0       36.570653   -2.941327    1.838748
    140          1           0       35.480009   -3.759468    2.786579
    141          1           0       36.587066   -2.768344    3.735537
    142          1           0       32.772886    3.152539    3.650716
    143          1           0       29.988909    3.863672    4.082706
    144          1           0       30.857565    2.331149    5.681261
    145          1           0       32.637323    2.146202    5.703925
    146          1           0       31.558407    0.877713    5.069065
    147          1           0       31.081860    5.084550    1.553271
    148          1           0       32.222108    5.106596    2.808493
    149          1           0       30.135519    6.881597    2.313739
    150          1           0       31.285985    6.974823    3.700182
    151          1           0       29.711649    6.137467    3.824376
    152          1           0       26.238737    4.837802    0.950366
    153          1           0       24.869210    3.823876    0.586911
    154          1           0       25.718912    4.650288   -0.725095
    155          1           0       26.403664    0.307626   -3.606764
    156          1           0       23.635928   -2.875715   -2.813456
    157          1           0       24.680813   -3.466303   -4.080462
    158          1           0       23.359247   -2.279772   -4.495018
 ---------------------------------------------------------------------

 SCF Done:  E(RPBE1PBE) =  -4067.37901590     A.U. after   16 cycles

 Excitation energies and oscillator strengths:

 Excited State   1:      Singlet-A      1.8923 eV  655.19 nm  f=0.3887  <S**2>=0.000
     310 -> 316        0.18627
     312 -> 314        0.68951
     312 <- 314       -0.10197
 This state for optimization and/or second-order correction.
 Total Energy, E(TD-HF/TD-DFT) =  -4067.30947420
 Copying the excited state density for this state as the 1-particle RhoCI density.

 Excited State   2:      Singlet-A      1.9035 eV  651.33 nm  f=0.3788  <S**2>=0.000
     309 -> 315        0.17017
     311 -> 313        0.69333
     311 <- 313       -0.10645

 Excited State   3:      Singlet-A      1.9164 eV  646.97 nm  f=0.0000  <S**2>=0.000
     312 -> 313        0.70711

 Excited State   4:      Singlet-A      2.1922 eV  565.58 nm  f=0.0000  <S**2>=0.000
     311 -> 314        0.70711

 Excited State   5:      Singlet-A      2.2346 eV  554.85 nm  f=0.1006  <S**2>=0.000
     310 -> 314        0.65139
     312 -> 316       -0.26689

 The electronic state is 1-A.
 Alpha  occ. eigenvalues --  -46.93032 -46.92769 -19.25660 -19.24317 -19.20735
 Alpha  occ. eigenvalues --  -19.19712 -19.19490 -19.18944 -19.18936 -19.18703
 Alpha  occ. eigenvalues --  -14.42214 -14.41994 -14.41782 -14.41137 -14.39723
 Alpha  occ. eigenvalues --  -14.39223 -14.38946 -14.38889 -10.36565 -10.35569
 Alpha  occ. eigenvalues --  -10.33490 -10.31799 -10.31510 -10.31478 -10.29884
 Alpha  occ. eigenvalues --  -10.29392 -10.29087 -10.29057 -10.28920 -10.28600
 Alpha  occ. eigenvalues --  -10.28527 -10.28485 -10.28443 -10.28438 -10.28333
 Alpha  occ. eigenvalues --  -10.27989 -10.27712 -10.27599 -10.27488 -10.27291
 Alpha  occ. eigenvalues --  -10.26892 -10.26502 -10.26378 -10.26321 -10.26318
 Alpha  occ. eigenvalues --  -10.26143 -10.26126 -10.26116 -10.26080 -10.26061
 Alpha  occ. eigenvalues --  -10.26040 -10.25992 -10.25973 -10.25899 -10.25826
 Alpha  occ. eigenvalues --  -10.25743 -10.25669 -10.25532 -10.25466 -10.25462
 Alpha  occ. eigenvalues --  -10.25338 -10.25248 -10.25232 -10.25173 -10.25076
 Alpha  occ. eigenvalues --  -10.25069 -10.24895 -10.24671 -10.24227 -10.24005
 Alpha  occ. eigenvalues --  -10.23981 -10.23965 -10.23958 -10.23919 -10.23755
 Alpha  occ. eigenvalues --  -10.23735 -10.23709 -10.23690 -10.23580 -10.23556
 Alpha  occ. eigenvalues --  -10.23529 -10.23242 -10.23113 -10.22771 -10.22365
 Alpha  occ. eigenvalues --  -10.21924  -3.15036  -3.14761  -1.87882  -1.87622
 Alpha  occ. eigenvalues --   -1.87414  -1.87245  -1.87117  -1.86995  -1.11413
 Alpha  occ. eigenvalues --   -1.10306  -1.05270  -1.04661  -1.04315  -1.03712
 Alpha  occ. eigenvalues --   -1.02955  -1.01978  -1.00189  -0.99285  -0.99094
 Alpha  occ. eigenvalues --   -0.98431  -0.98288  -0.98286  -0.97447  -0.97274
 Alpha  occ. eigenvalues --   -0.87804  -0.87750  -0.83648  -0.83473  -0.83103
 Alpha  occ. eigenvalues --   -0.82941  -0.82499  -0.82443  -0.81833  -0.81328
 Alpha  occ. eigenvalues --   -0.81181  -0.80867  -0.80518  -0.80186  -0.79411
 Alpha  occ. eigenvalues --   -0.78640  -0.78347  -0.77732  -0.77326  -0.76762
 Alpha  occ. eigenvalues --   -0.76616  -0.75811  -0.75675  -0.75442  -0.75224
 Alpha  occ. eigenvalues --   -0.74660  -0.72747  -0.72088  -0.71797  -0.71700
 Alpha  occ. eigenvalues --   -0.71373  -0.71264  -0.70538  -0.70468  -0.69828
 Alpha  occ. eigenvalues --   -0.69545  -0.67778  -0.67019  -0.66480  -0.66438
 Alpha  occ. eigenvalues --   -0.63771  -0.63712  -0.63416  -0.62997  -0.62610
 Alpha  occ. eigenvalues --   -0.62301  -0.61049  -0.60492  -0.60429  -0.60110
 Alpha  occ. eigenvalues --   -0.59707  -0.59656  -0.59420  -0.59111  -0.59062
 Alpha  occ. eigenvalues --   -0.58797  -0.57305  -0.56314  -0.55063  -0.54700
 Alpha  occ. eigenvalues --   -0.54543  -0.54447  -0.53863  -0.53787  -0.53371
 Alpha  occ. eigenvalues --   -0.53331  -0.53106  -0.52879  -0.52304  -0.52238
 Alpha  occ. eigenvalues --   -0.51100  -0.50653  -0.50405  -0.50142  -0.49932
 Alpha  occ. eigenvalues --   -0.49791  -0.49479  -0.48959  -0.48645  -0.48599
 Alpha  occ. eigenvalues --   -0.48324  -0.48146  -0.47820  -0.47683  -0.47522
 Alpha  occ. eigenvalues --   -0.47489  -0.47334  -0.47326  -0.46710  -0.46623
 Alpha  occ. eigenvalues --   -0.46559  -0.46308  -0.46228  -0.46142  -0.46127
 Alpha  occ. eigenvalues --   -0.45975  -0.45459  -0.45369  -0.45321  -0.45112
 Alpha  occ. eigenvalues --   -0.44969  -0.44870  -0.44516  -0.44451  -0.44188
 Alpha  occ. eigenvalues --   -0.44042  -0.43959  -0.43756  -0.43709  -0.43533
 Alpha  occ. eigenvalues --   -0.43353  -0.42931  -0.42869  -0.42780  -0.42766
 Alpha  occ. eigenvalues --   -0.42593  -0.42297  -0.42239  -0.42023  -0.41941
 Alpha  occ. eigenvalues --   -0.41915  -0.41761  -0.41607  -0.41280  -0.41157
 Alpha  occ. eigenvalues --   -0.41123  -0.41100  -0.40942  -0.40866  -0.40858
 Alpha  occ. eigenvalues --   -0.40562  -0.40347  -0.40123  -0.39881  -0.39858
 Alpha  occ. eigenvalues --   -0.39425  -0.39362  -0.39143  -0.39036  -0.39018
 Alpha  occ. eigenvalues --   -0.38769  -0.38740  -0.38646  -0.38526  -0.38387
 Alpha  occ. eigenvalues --   -0.38188  -0.38065  -0.38019  -0.37792  -0.37631
 Alpha  occ. eigenvalues --   -0.37505  -0.37253  -0.37160  -0.37129  -0.36824
 Alpha  occ. eigenvalues --   -0.36677  -0.36640  -0.36463  -0.36393  -0.36150
 Alpha  occ. eigenvalues --   -0.35974  -0.35893  -0.35660  -0.35465  -0.35220
 Alpha  occ. eigenvalues --   -0.35078  -0.34742  -0.34677  -0.34649  -0.34331
 Alpha  occ. eigenvalues --   -0.33732  -0.33397  -0.33041  -0.32791  -0.32681
 Alpha  occ. eigenvalues --   -0.32550  -0.31952  -0.31825  -0.31582  -0.31508
 Alpha  occ. eigenvalues --   -0.31134  -0.31023  -0.30144  -0.29564  -0.29413
 Alpha  occ. eigenvalues --   -0.29329  -0.29249  -0.28665  -0.27391  -0.26801
 Alpha  occ. eigenvalues --   -0.26099  -0.26022  -0.25989  -0.25799  -0.25672
 Alpha  occ. eigenvalues --   -0.25597  -0.25469  -0.25119  -0.21552  -0.20783
 Alpha  occ. eigenvalues --   -0.19269  -0.18768
 Alpha virt. eigenvalues --   -0.11506  -0.10992  -0.05475  -0.05180  -0.04191
 Alpha virt. eigenvalues --   -0.03314  -0.02116  -0.01719  -0.00730  -0.00083
 Alpha virt. eigenvalues --    0.00296   0.00677   0.00783   0.01359   0.01617

 Mulliken charges:
               1
     1  Mg  11.999977
     2  C    6.000357
     3  C    5.999756
     4  C    5.999488
     5  C    6.000297
     6  N    7.000094
     7  C    5.999443
     8  C    6.000145
     9  C    5.999892
    10  C    6.000586
    11  C    5.999956
    12  C    6.000073
    13  C    5.999997
    14  H    0.999951
    15  N    6.999851
    16  C    6.000886
    17  C    6.000280
    18  C    6.000353
    19  C    6.000744
    20  C    5.999931
    21  C    6.000215
    22  O    8.000464
    23  C    5.999970
    24  N    7.000000
    25  C    6.000774
    26  C    5.999833
    27  C    6.000148
    28  C    5.999365
    29  C    5.999974
    30  C    6.000085
    31  C    6.000039
    32  N    6.999981
    33  C    5.999221
    34  C    5.999377
    35  C    5.999996
    36  C    5.999358
    37  C    6.000007
    38  C    5.999682
    39  O    7.999399
    40  C    5.999951
    41  C    5.999897
    42  O    7.999956
    43  O    7.999940
    44  C    6.000063
    45  H    1.000250
    46  H    1.000154
    47  H    0.999822
    48  H    1.000010
    49  H    0.999988
    50  H    1.000069
    51  H    1.000288
    52  H    0.999937
    53  H    0.999830
    54  H    1.000147
    55  H    1.000007
    56  H    0.999878
    57  H    1.000297
    58  H    1.000341
    59  H    1.000350
    60  H    1.000171
    61  H    1.000269
    62  H    1.000184
    63  H    0.999970
    64  H    0.999966
    65  H    0.999979
    66  H    0.999981
    67  H    1.000190
    68  H    0.999978
    69  H    0.999798
    70  H    0.999900
    71  H    1.000034
    72  H    1.000026
    73  H    0.999626
    74  H    0.999672
    75  H    0.999612
    76  H    0.999814
    77  H    0.999922
    78  H    0.999935
    79  H    0.999857
    80  Mg  11.998678
    81  C    5.981779
    82  C    6.017992
    83  C    6.015674
    84  C    5.991222
    85  N    7.000328
    86  C    6.035559
    87  C    5.982948
    88  C    6.013717
    89  C    5.962355
    90  C    6.002158
    91  C    5.996176
    92  C    5.999694
    93  H    1.005926
    94  N    7.005412
    95  C    5.952436
    96  C    5.989332
    97  C    5.978417
    98  C    5.974918
    99  C    6.000348
   100  C    5.987925
   101  O    7.972939
   102  C    6.001482
   103  N    7.001709
   104  C    5.970093
   105  C    6.009845
   106  C    5.990552
   107  C    6.027241
   108  C    6.001718
   109  C    5.992352
   110  C    6.000934
   111  N    6.997155
   112  C    6.035273
   113  C    6.033109
   114  C    6.001059
   115  C    6.026561
   116  C    5.995568
   117  C    6.016839
   118  O    8.029464
   119  C    5.998591
   120  C    6.004120
   121  O    8.003251
   122  O    8.001327
   123  C    5.998700
   124  H    0.990750
   125  H    0.994239
   126  H    1.008087
   127  H    1.003218
   128  H    0.997757
   129  H    0.999636
   130  H    0.985329
   131  H    0.999685
   132  H    1.011266
   133  H    0.992071
   134  H    1.004080
   135  H    0.996831
   136  H    0.983738
   137  H    0.984932
   138  H    0.984687
   139  H    0.993068
   140  H    0.993785
   141  H    0.986965
   142  H    1.000780
   143  H    1.002953
   144  H    0.989614
   145  H    1.000135
   146  H    1.004280
   147  H    0.999227
   148  H    1.012277
   149  H    0.997486
   150  H    1.005344
   151  H    0.999282
   152  H    1.018212
   153  H    1.019274
   154  H    1.017004
   155  H    1.008960
   156  H    1.003145
   157  H    1.006673
   158  H    1.002352
 Sum of Mulliken charges = 624.00000

 Dipole moment (field-independent basis, Debye):
    X=             -8.5719    Y=              5.5494    Z=             -2.0148  Tot=             10.4083
 Quadrupole moment (field-independent basis, Debye-Ang):
   XX=           -497.3433   YY=              3.1351   ZZ=             -0.0758
   XY=            171.3733   XZ=            -70.6667   YZ=              2.8234

 Normal termination of Gaussian 16 at Fri Oct 15 16:09:33 2021.
