 Gaussian 16, Revision A.03,
 Gaussian 16:  ES64L-G16RevA.03 25-Dec-2016

 --------------------------------------------------------
 #p PBE1PBE/Def2SVP td=(nstates=5) density=(transition=1)
 --------------------------------------------------------

 --------------------------------
 TDDFT excited states in gaussian
 --------------------------------
 Symbolic Z-matrix:
 Charge =  0 Multiplicity = 1

                         Standard orientation:
 ---------------------------------------------------------------------
 Center     Atomic      Atomic             Coordinates (Angstroms)
 Number     Number       Type             X           Y           Z
 ---------------------------------------------------------------------
      1         12           0       20.070302   -0.771341    0.380439
      2          6           0       19.291875    2.172644   -1.540292
      3          6           0       20.909656    1.323398    2.941961
      4          6           0       21.079283   -3.498970    2.051804
      5          6           0       19.643582   -2.609630   -2.446178
      6          7           0       20.038304    1.589727    0.666774
      7          6           0       19.636276    2.500282   -0.266873
      8          6           0       19.582733    3.819946    0.404662
      9          6           0       20.228766    3.596627    1.800061
     10          6           0       20.485340    2.066137    1.865213
     11          6           0       21.565496    4.389210    1.956330
     12          6           0       18.222083    4.466310    0.479472
     13          6           0       18.111818    5.912568    0.934577
     14          1           0       17.309333    6.814059    0.093589
     15          7           0       20.766105   -1.052612    2.252089
     16          6           0       21.152651   -0.026998    3.158446
     17          6           0       21.522263   -0.699333    4.418195
     18          6           0       21.646648   -2.050868    4.107093
     19          6           0       21.208326   -2.246064    2.713203
     20          6           0       21.863235    0.095356    5.661458
     21          6           0       22.062068   -3.234482    5.007318
     22          8           0       22.358635   -4.365967    4.580106
     23          6           0       22.072718   -2.993088    6.461609
     24          7           0       20.399700   -2.802074   -0.126447
     25          6           0       20.794771   -3.761087    0.685540
     26          6           0       20.913973   -5.146613   -0.006686
     27          6           0       20.217104   -4.858103   -1.338165
     28          6           0       20.035319   -3.358341   -1.289280
     29          6           0       22.409690   -5.576271   -0.181600
     30          6           0       18.917610   -5.585011   -1.601415
     31          6           0       18.719539   -6.153757   -3.017717
     32          7           0       19.486665   -0.326993   -1.542474
     33          6           0       19.349763   -1.213520   -2.588224
     34          6           0       18.850503   -0.529267   -3.818995
     35          6           0       18.864707    0.777782   -3.375487
     36          6           0       19.292355    0.878426   -2.046096
     37          6           0       18.339574   -1.139666   -5.084444
     38          6           0       18.583483    2.132743   -3.826561
     39          8           0       18.145186    2.482171   -4.916744
     40          6           0       18.842858    3.113298   -2.659905
     41          6           0       19.694099    4.152555   -3.180346
     42          8           0       20.925326    4.075327   -3.408904
     43          8           0       19.013997    5.330584   -3.244964
     44          6           0       19.756928    6.549529   -3.479331
     45          1           0       21.099963    1.973929    3.797843
     46          1           0       21.557565   -4.355871    2.530462
     47          1           0       19.762687   -3.239142   -3.330261
     48          1           0       20.244723    4.427750   -0.210748
     49          1           0       19.575845    3.908583    2.615402
     50          1           0       21.782438    5.042346    2.802171
     51          1           0       21.602206    5.020872    1.068914
     52          1           0       22.471646    3.799336    1.815749
     53          1           0       17.586428    3.963723    1.208674
     54          1           0       17.614522    4.239358   -0.396140
     55          1           0       19.096579    6.373868    0.992087
     56          1           0       17.483445    5.883061    1.824354
     57          1           0       22.770219   -0.233309    6.168435
     58          1           0       21.068516    0.115587    6.406916
     59          1           0       22.096455    1.145685    5.485036
     60          1           0       21.114940   -2.556223    6.744649
     61          1           0       22.874160   -2.262759    6.567437
     62          1           0       22.122552   -3.973521    6.933853
     63          1           0       20.352003   -5.843694    0.615838
     64          1           0       20.809587   -5.029486   -2.236429
     65          1           0       22.704375   -5.585715   -1.230550
     66          1           0       22.572978   -6.594437    0.171676
     67          1           0       22.988255   -4.826299    0.357971
     68          1           0       18.052562   -4.966815   -1.363477
     69          1           0       18.828123   -6.271405   -0.760043
     70          1           0       18.058103   -7.013890   -2.918581
     71          1           0       19.658711   -6.334932   -3.541343
     72          1           0       18.243688   -5.308838   -3.515044
     73          1           0       17.252503   -1.181551   -5.154953
     74          1           0       18.878148   -2.081626   -5.184128
     75          1           0       18.781659   -0.619313   -5.934996
     76          1           0       17.884927    3.611276   -2.510214
     77          1           0       20.840643    6.429726   -3.474813
     78          1           0       19.427794    7.336494   -2.801312
     79          1           0       19.534505    6.982070   -4.455150
     80         12           0      -20.498080   -0.519237   -0.219107
     81          6           0      -18.509362    2.382965   -0.031698
     82          6           0      -23.171321    1.299827    0.817948
     83          6           0      -22.333016   -3.359265   -0.303941
     84          6           0      -17.625150   -2.369477   -0.836705
     85          7           0      -20.785369    1.539446    0.416198
     86          6           0      -19.859733    2.580305    0.302287
     87          6           0      -20.543942    3.886114    0.574857
     88          6           0      -21.838548    3.440020    1.295112
     89          6           0      -21.946410    1.972889    0.805335
     90          6           0      -21.843841    3.473628    2.856083
     91          6           0      -20.820230    4.793326   -0.682754
     92          6           0      -20.432214    6.227220   -0.508980
     93          1           0      -21.446828    7.278393   -0.996402
     94          7           0      -22.453335   -0.914727    0.092854
     95          6           0      -23.461851    0.000745    0.436878
     96          6           0      -24.708714   -0.652241    0.490686
     97          6           0      -24.507201   -2.072037    0.150251
     98          6           0      -23.088632   -2.162770   -0.047169
     99          6           0      -25.997834   -0.044896    0.961459
    100          6           0      -25.495827   -3.316365    0.094075
    101          8           0      -25.100319   -4.408392   -0.238713
    102          6           0      -26.985245   -3.146415    0.357360
    103          7           0      -20.016697   -2.591304   -0.419784
    104          6           0      -20.971355   -3.557067   -0.399034
    105          6           0      -20.298681   -5.002648   -0.566859
    106          6           0      -18.820624   -4.652977   -1.041403
    107          6           0      -18.795404   -3.092415   -0.748811
    108          6           0      -20.301618   -5.914152    0.691421
    109          6           0      -18.529285   -4.990754   -2.546953
    110          6           0      -17.326190   -5.825503   -2.686419
    111          7           0      -18.472551   -0.117141   -0.353788
    112          6           0      -17.425943   -0.961554   -0.721151
    113          6           0      -16.202978   -0.211562   -0.813489
    114          6           0      -16.576086    1.085500   -0.525748
    115          6           0      -17.914040    1.116635   -0.288099
    116          6           0      -14.861443   -0.854064   -1.252838
    117          6           0      -16.088350    2.441652   -0.354016
    118          8           0      -14.939859    2.826676   -0.352858
    119          6           0      -17.358558    3.360772    0.006880
    120          6           0      -17.135601    3.989418    1.321778
    121          8           0      -16.926181    3.355320    2.389094
    122          8           0      -17.157385    5.343720    1.159879
    123          6           0      -16.577548    6.105964    2.297329
    124          1           0      -23.973435    1.937621    1.195056
    125          1           0      -22.845771   -4.322688   -0.335874
    126          1           0      -16.724443   -2.973515   -0.960442
    127          1           0      -20.041360    4.503316    1.320537
    128          1           0      -22.716146    4.021924    1.012965
    129          1           0      -21.251366    4.283864    3.283054
    130          1           0      -21.480804    2.502672    3.194044
    131          1           0      -22.826664    3.498578    3.326069
    132          1           0      -21.882966    4.669296   -0.889993
    133          1           0      -20.339195    4.396308   -1.577145
    134          1           0      -19.495125    6.256624   -1.065171
    135          1           0      -20.325849    6.450511    0.552508
    136          1           0      -26.732448    0.166288    0.184074
    137          1           0      -25.795791    0.941178    1.377771
    138          1           0      -26.567593   -0.569242    1.728151
    139          1           0      -27.436159   -4.107610    0.113673
    140          1           0      -27.388332   -2.275147   -0.159718
    141          1           0      -27.139803   -2.787447    1.375305
    142          1           0      -20.871553   -5.597375   -1.278536
    143          1           0      -18.119767   -5.172119   -0.385956
    144          1           0      -20.690423   -5.473375    1.609968
    145          1           0      -19.309264   -6.279053    0.957507
    146          1           0      -20.912051   -6.783149    0.444388
    147          1           0      -18.321594   -4.060164   -3.076439
    148          1           0      -19.324228   -5.539637   -3.051404
    149          1           0      -17.637561   -6.862228   -2.816969
    150          1           0      -16.545390   -5.762152   -1.929327
    151          1           0      -16.756486   -5.493723   -3.554509
    152          1           0      -15.069102   -1.809569   -1.735081
    153          1           0      -14.141116   -0.876881   -0.433810
    154          1           0      -14.494055   -0.189223   -2.033688
    155          1           0      -17.525744    4.129590   -0.747913
    156          1           0      -16.503432    7.163570    2.044737
    157          1           0      -15.543488    5.766800    2.362608
    158          1           0      -17.174984    5.860717    3.175855
 ---------------------------------------------------------------------

 SCF Done:  E(RPBE1PBE) =  -4067.40797896     A.U. after   16 cycles

 Excitation energies and oscillator strengths:

 Excited State   1:      Singlet-A      1.8629 eV  665.55 nm  f=0.0000  <S**2>=0.000
     312 -> 313        0.70711
 This state for optimization and/or second-order correction.
 Total Energy, E(TD-HF/TD-DFT) =  -4067.33951912
 Copying the excited state density for this state as the 1-particle RhoCI density.

 Excited State   2:      Singlet-A      1.8995 eV  652.73 nm  f=0.3808  <S**2>=0.000
     310 -> 316       -0.17463
     311 -> 313        0.69168
     311 <- 313       -0.10892

 Excited State   3:      Singlet-A      1.9171 eV  646.72 nm  f=0.3670  <S**2>=0.000
     309 -> 315        0.19065
     312 -> 314        0.68774

 Excited State   4:      Singlet-A      2.2100 eV  561.02 nm  f=0.0000  <S**2>=0.000
     311 -> 314        0.70711

 Excited State   5:      Singlet-A      2.2138 eV  560.05 nm  f=0.1474  <S**2>=0.000
     310 -> 313        0.66236
     311 -> 316        0.22968

 The electronic state is 1-A.
 Alpha  occ. eigenvalues --  -46.91883 -46.90624 -19.26327 -19.25801 -19.19993
 Alpha  occ. eigenvalues --  -19.19794 -19.19383 -19.19198 -19.19070 -19.18838
 Alpha  occ. eigenvalues --  -14.41507 -14.41391 -14.41076 -14.40600 -14.39406
 Alpha  occ. eigenvalues --  -14.39243 -14.38964 -14.38332 -10.36465 -10.36104
 Alpha  occ. eigenvalues --  -10.33398 -10.32316 -10.32311 -10.31627 -10.29402
 Alpha  occ. eigenvalues --  -10.28890 -10.28439 -10.28419 -10.28387 -10.28313
 Alpha  occ. eigenvalues --  -10.28283 -10.28243 -10.28201 -10.28199 -10.28178
 Alpha  occ. eigenvalues --  -10.28131 -10.28023 -10.27800 -10.27430 -10.27029
 Alpha  occ. eigenvalues --  -10.26620 -10.26432 -10.26155 -10.26108 -10.26060
 Alpha  occ. eigenvalues --  -10.25891 -10.25859 -10.25810 -10.25789 -10.25757
 Alpha  occ. eigenvalues --  -10.25738 -10.25594 -10.25567 -10.25534 -10.25533
 Alpha  occ. eigenvalues --  -10.25486 -10.25456 -10.25365 -10.25338 -10.24996
 Alpha  occ. eigenvalues --  -10.24947 -10.24929 -10.24906 -10.24677 -10.24530
 Alpha  occ. eigenvalues --  -10.24481 -10.24460 -10.24105 -10.24097 -10.23939
 Alpha  occ. eigenvalues --  -10.23853 -10.23701 -10.23660 -10.23576 -10.23532
 Alpha  occ. eigenvalues --  -10.23472 -10.23464 -10.23461 -10.23393 -10.23368
 Alpha  occ. eigenvalues --  -10.23308 -10.23159 -10.22819 -10.22333 -10.22205
 Alpha  occ. eigenvalues --  -10.22110  -3.14067  -3.12926  -1.86917  -1.86432
 Alpha  occ. eigenvalues --   -1.86303  -1.85773  -1.85288  -1.85176  -1.10872
 Alpha  occ. eigenvalues --   -1.10546  -1.06360  -1.05195  -1.04211  -1.03704
 Alpha  occ. eigenvalues --   -1.01147  -1.00724  -1.00417  -0.99531  -0.99298
 Alpha  occ. eigenvalues --   -0.98127  -0.97663  -0.97215  -0.96794  -0.95995
 Alpha  occ. eigenvalues --   -0.87537  -0.87005  -0.84411  -0.83566  -0.83470
 Alpha  occ. eigenvalues --   -0.82949  -0.82763  -0.82314  -0.81848  -0.81386
 Alpha  occ. eigenvalues --   -0.81378  -0.80960  -0.80666  -0.80236  -0.78966
 Alpha  occ. eigenvalues --   -0.78567  -0.78324  -0.78133  -0.77200  -0.77199
 Alpha  occ. eigenvalues --   -0.76733  -0.76234  -0.75576  -0.75516  -0.75259
 Alpha  occ. eigenvalues --   -0.75020  -0.72923  -0.72492  -0.72021  -0.71746
 Alpha  occ. eigenvalues --   -0.71657  -0.71117  -0.70859  -0.70061  -0.69589
 Alpha  occ. eigenvalues --   -0.69223  -0.67452  -0.67373  -0.66396  -0.65408
 Alpha  occ. eigenvalues --   -0.63913  -0.63637  -0.63064  -0.62498  -0.62482
 Alpha  occ. eigenvalues --   -0.61979  -0.60922  -0.60910  -0.60839  -0.59962
 Alpha  occ. eigenvalues --   -0.59836  -0.59641  -0.59615  -0.59105  -0.59101
 Alpha  occ. eigenvalues --   -0.58613  -0.57127  -0.56557  -0.54910  -0.54847
 Alpha  occ. eigenvalues --   -0.54620  -0.54487  -0.54048  -0.53862  -0.53390
 Alpha  occ. eigenvalues --   -0.52840  -0.52738  -0.52425  -0.52217  -0.52112
 Alpha  occ. eigenvalues --   -0.51047  -0.50697  -0.50285  -0.50239  -0.50079
 Alpha  occ. eigenvalues --   -0.50053  -0.49501  -0.48953  -0.48558  -0.48428
 Alpha  occ. eigenvalues --   -0.48424  -0.48066  -0.47997  -0.47927  -0.47733
 Alpha  occ. eigenvalues --   -0.47452  -0.47319  -0.47191  -0.46634  -0.46477
 Alpha  occ. eigenvalues --   -0.46457  -0.46455  -0.46217  -0.45872  -0.45780
 Alpha  occ. eigenvalues --   -0.45779  -0.45479  -0.45408  -0.45021  -0.45012
 Alpha  occ. eigenvalues --   -0.44856  -0.44681  -0.44577  -0.44366  -0.44226
 Alpha  occ. eigenvalues --   -0.44057  -0.44011  -0.43622  -0.43569  -0.43374
 Alpha  occ. eigenvalues --   -0.43267  -0.43015  -0.42979  -0.42673  -0.42558
 Alpha  occ. eigenvalues --   -0.42419  -0.42380  -0.42004  -0.41954  -0.41887
 Alpha  occ. eigenvalues --   -0.41692  -0.41444  -0.41342  -0.41267  -0.41182
 Alpha  occ. eigenvalues --   -0.40948  -0.40833  -0.40813  -0.40582  -0.40520
 Alpha  occ. eigenvalues --   -0.40375  -0.40111  -0.39939  -0.39863  -0.39859
 Alpha  occ. eigenvalues --   -0.39511  -0.39466  -0.39315  -0.39232  -0.39153
 Alpha  occ. eigenvalues --   -0.38752  -0.38547  -0.38497  -0.38281  -0.38178
 Alpha  occ. eigenvalues --   -0.38109  -0.38014  -0.37870  -0.37657  -0.37466
 Alpha  occ. eigenvalues --   -0.37333  -0.37193  -0.37039  -0.36905  -0.36777
 Alpha  occ. eigenvalues --   -0.36735  -0.36576  -0.36451  -0.36359  -0.36123
 Alpha  occ. eigenvalues --   -0.36063  -0.35968  -0.35868  -0.35726  -0.35352
 Alpha  occ. eigenvalues --   -0.35027  -0.34906  -0.34883  -0.34093  -0.33791
 Alpha  occ. eigenvalues --   -0.33725  -0.33358  -0.32899  -0.32852  -0.32848
 Alpha  occ. eigenvalues --   -0.32109  -0.31753  -0.31410  -0.31069  -0.31053
 Alpha  occ. eigenvalues --   -0.30973  -0.30576  -0.29496  -0.29140  -0.29057
 Alpha  occ. eigenvalues --   -0.28595  -0.28564  -0.28171  -0.27154  -0.26950
 Alpha  occ. eigenvalues --   -0.26482  -0.26182  -0.25906  -0.25861  -0.25726
 Alpha  occ. eigenvalues --   -0.25642  -0.25387  -0.25152  -0.20993  -0.20934
 Alpha  occ. eigenvalues --   -0.19128  -0.18591
 Alpha virt. eigenvalues --   -0.11421  -0.10679  -0.05224  -0.04846  -0.03558
 Alpha virt. eigenvalues --   -0.03491  -0.01902  -0.01695  -0.00198  -0.00115
 Alpha virt. eigenvalues --    0.00396   0.00663   0.01436   0.01463   0.01956

 Mulliken charges:
               1
     1  Mg  12.000000
     2  C    6.000000
     3  C    6.000000
     4  C    6.000000
     5  C    6.000000
     6  N    7.000000
     7  C    6.000000
     8  C    6.000000
     9  C    6.000000
    10  C    6.000000
    11  C    6.000000
    12  C    6.000000
    13  C    6.000000
    14  H    1.000000
    15  N    7.000000
    16  C    6.000000
    17  C    6.000000
    18  C    6.000000
    19  C    6.000000
    20  C    6.000000
    21  C    6.000000
    22  O    8.000000
    23  C    6.000000
    24  N    7.000000
    25  C    6.000000
    26  C    6.000000
    27  C    6.000000
    28  C    6.000000
    29  C    6.000000
    30  C    6.000000
    31  C    6.000000
    32  N    7.000000
    33  C    6.000000
    34  C    6.000000
    35  C    6.000000
    36  C    6.000000
    37  C    6.000000
    38  C    6.000000
    39  O    8.000000
    40  C    6.000000
    41  C    6.000000
    42  O    8.000000
    43  O    8.000000
    44  C    6.000000
    45  H    1.000000
    46  H    1.000000
    47  H    1.000000
    48  H    1.000000
    49  H    1.000000
    50  H    1.000000
    51  H    1.000000
    52  H    1.000000
    53  H    1.000000
    54  H    1.000000
    55  H    1.000000
    56  H    1.000000
    57  H    1.000000
    58  H    1.000000
    59  H    1.000000
    60  H    1.000000
    61  H    1.000000
    62  H    1.000000
    63  H    1.000000
    64  H    1.000000
    65  H    1.000000
    66  H    1.000000
    67  H    1.000000
    68  H    1.000000
    69  H    1.000000
    70  H    1.000000
    71  H    1.000000
    72  H    1.000000
    73  H    1.000000
    74  H    1.000000
    75  H    1.000000
    76  H    1.000000
    77  H    1.000000
    78  H    1.000000
    79  H    1.000000
    80  Mg  12.000000
    81  C    6.000000
    82  C    6.000000
    83  C    6.000000
    84  C    6.000000
    85  N    7.000000
    86  C    6.000000
    87  C    6.000000
    88  C    6.000000
    89  C    6.000000
    90  C    6.000000
    91  C    6.000000
    92  C    6.000000
    93  H    1.000000
    94  N    7.000000
    95  C    6.000000
    96  C    6.000000
    97  C    6.000000
    98  C    6.000000
    99  C    6.000000
   100  C    6.000000
   101  O    8.000000
   102  C    6.000000
   103  N    7.000000
   104  C    6.000000
   105  C    6.000000
   106  C    6.000000
   107  C    6.000000
   108  C    6.000000
   109  C    6.000000
   110  C    6.000000
   111  N    7.000000
   112  C    6.000000
   113  C    6.000000
   114  C    6.000000
   115  C    6.000000
   116  C    6.000000
   117  C    6.000000
   118  O    8.000000
   119  C    6.000000
   120  C    6.000000
   121  O    8.000000
   122  O    8.000000
   123  C    6.000000
   124  H    1.000000
   125  H    1.000000
   126  H    1.000000
   127  H    1.000000
   128  H    1.000000
   129  H    1.000000
   130  H    1.000000
   131  H    1.000000
   132  H    1.000000
   133  H    1.000000
   134  H    1.000000
   135  H    1.000000
   136  H    1.000000
   137  H    1.000000
   138  H    1.000000
   139  H    1.000000
   140  H    1.000000
   141  H    1.000000
   142  H    1.000000
   143  H    1.000000
   144  H    1.000000
   145  H    1.000000
   146  H    1.000000
   147  H    1.000000
   148  H    1.000000
   149  H    1.000000
   150  H    1.000000
   151  H    1.000000
   152  H    1.000000
   153  H    1.000000
   154  H    1.000000
   155  H    1.000000
   156  H    1.000000
   157  H    1.000000
   158  H    1.000000
 Sum of Mulliken charges = 624.00000

 Dipole moment (field-independent basis, Debye):
    X=             -0.0000    Y=              0.0000    Z=              0.0000  Tot=              0.0000
 Quadrupole moment (field-independent basis, Debye-Ang):
   XX=              0.0000   YY=             -0.0000   ZZ=             -0.0000
   XY=             -0.0000   XZ=             -0.0000   YZ=             -0.0000

 Normal termination of Gaussian 16 at Fri Oct 15 04:12:31 2021.
