 Gaussian 16, Revision A.03,
 Gaussian 16:  ES64L-G16RevA.03 25-Dec-2016

 --------------------------------------------------------
 #p PBE1PBE/Def2SVP td=(nstates=5) density=(transition=1)
 --------------------------------------------------------

 --------------------------------
 TDDFT excited states in gaussian
 --------------------------------
 Symbolic Z-matrix:
 Charge =  0 Multiplicity = 1

                         Standard orientation:
 ---------------------------------------------------------------------
 Center     Atomic      Atomic             Coordinates (Angstroms)
 Number     Number       Type             X           Y           Z
 ---------------------------------------------------------------------
      1         12           0      -13.546728   -0.525476    0.272727
      2          6           0      -13.553618    2.681042   -1.128288
      3          6           0      -12.334013    0.762446    3.196968
      4          6           0      -13.246418   -3.618289    1.406533
      5          6           0      -14.632614   -1.759672   -2.901236
      6          7           0      -12.965031    1.513985    0.916161
      7          6           0      -13.101748    2.704537    0.237495
      8          6           0      -12.894874    3.878612    1.176488
      9          6           0      -12.238588    3.205961    2.446412
     10          6           0      -12.634093    1.713569    2.179781
     11          6           0      -10.729802    3.399461    2.529146
     12          6           0      -14.234264    4.687992    1.327537
     13          6           0      -14.175371    5.779116    2.432391
     14          1           0      -12.822038    6.404882    2.698572
     15          7           0      -12.919971   -1.287974    2.001966
     16          6           0      -12.347490   -0.618714    3.076295
     17          6           0      -11.926180   -1.550131    4.137495
     18          6           0      -12.242788   -2.836395    3.601800
     19          6           0      -12.819755   -2.608161    2.279615
     20          6           0      -11.369261   -1.103415    5.437115
     21          6           0      -12.004663   -4.162356    4.277144
     22          8           0      -12.357647   -5.253558    3.749900
     23          6           0      -11.404158   -4.240929    5.654567
     24          7           0      -13.951591   -2.433369   -0.621497
     25          6           0      -13.730229   -3.530668    0.102702
     26          6           0      -13.949286   -4.833573   -0.785317
     27          6           0      -14.371148   -4.218182   -2.233858
     28          6           0      -14.303901   -2.723385   -1.917971
     29          6           0      -12.605094   -5.670847   -0.789448
     30          6           0      -15.838676   -4.598817   -2.707809
     31          6           0      -15.976885   -5.951398   -3.463896
     32          7           0      -13.942105    0.211796   -1.630071
     33          6           0      -14.488043   -0.364510   -2.807380
     34          6           0      -14.724794    0.728743   -3.848538
     35          6           0      -14.308297    1.923410   -3.269911
     36          6           0      -13.915532    1.558967   -1.884709
     37          6           0      -15.330109    0.583502   -5.209569
     38          6           0      -14.186185    3.353720   -3.427977
     39          8           0      -14.430048    4.106589   -4.376193
     40          6           0      -13.858153    3.945185   -1.968284
     41          6           0      -12.723740    4.944040   -1.983143
     42          8           0      -11.563245    4.645487   -1.897157
     43          8           0      -13.207983    6.266926   -1.870529
     44          6           0      -12.257768    7.296275   -1.423027
     45          1           0      -11.908406    1.315923    4.037029
     46          1           0      -13.130316   -4.637621    1.781029
     47          1           0      -14.862705   -2.075165   -3.921124
     48          1           0      -12.185315    4.554895    0.701460
     49          1           0      -12.677728    3.482273    3.405554
     50          1           0      -10.547957    3.873905    3.493359
     51          1           0      -10.404801    3.953638    1.648899
     52          1           0      -10.191026    2.462439    2.667863
     53          1           0      -14.968363    3.882918    1.336778
     54          1           0      -14.384926    5.172490    0.363413
     55          1           0      -14.550561    5.256353    3.312238
     56          1           0      -14.856197    6.581535    2.148673
     57          1           0      -10.355343   -1.501799    5.404473
     58          1           0      -11.951218   -1.441600    6.294055
     59          1           0      -11.235390   -0.037445    5.625603
     60          1           0      -12.081431   -3.765064    6.362432
     61          1           0      -10.470634   -3.715386    5.449648
     62          1           0      -11.128361   -5.234107    6.007932
     63          1           0      -14.794430   -5.278280   -0.258453
     64          1           0      -13.630891   -4.260090   -3.033965
     65          1           0      -11.787748   -5.217311   -0.229040
     66          1           0      -12.251310   -5.796901   -1.813053
     67          1           0      -12.839415   -6.596153   -0.263966
     68          1           0      -16.347596   -3.764510   -3.189699
     69          1           0      -16.415334   -4.730879   -1.792891
     70          1           0      -16.723464   -6.534211   -2.925568
     71          1           0      -14.990816   -6.411029   -3.532276
     72          1           0      -16.344107   -5.815774   -4.481452
     73          1           0      -16.327525    1.018790   -5.144296
     74          1           0      -15.362548   -0.467798   -5.498153
     75          1           0      -14.856545    1.112619   -6.036273
     76          1           0      -14.783640    4.398755   -1.614717
     77          1           0      -11.662964    7.526616   -2.306511
     78          1           0      -11.723813    6.968319   -0.530925
     79          1           0      -12.861390    8.144283   -1.100680
     80         12           0       12.885178   -0.803173   -0.465973
     81          6           0       14.914599    2.080527   -0.200134
     82          6           0       10.303272    1.009392    0.867233
     83          6           0       11.206484   -3.635638   -0.109665
     84          6           0       15.745622   -2.614290   -1.354329
     85          7           0       12.690687    1.269034    0.403670
     86          6           0       13.642720    2.284936    0.284020
     87          6           0       12.993657    3.655422    0.598232
     88          6           0       11.510584    3.277312    0.958739
     89          6           0       11.434226    1.746745    0.701797
     90          6           0       10.955031    3.818755    2.264384
     91          6           0       13.090268    4.727802   -0.498087
     92          6           0       13.723144    6.063207   -0.019290
     93          1           0       12.877418    7.298377   -0.236258
     94          7           0       10.965823   -1.212513    0.206880
     95          6           0       10.047990   -0.363427    0.751910
     96          6           0        8.814964   -1.096299    0.914162
     97          6           0        9.110606   -2.518812    0.766855
     98          6           0       10.485647   -2.465711    0.294546
     99          6           0        7.465921   -0.411048    1.480769
    100          6           0        8.408972   -3.718562    1.239649
    101          8           0        8.722401   -4.861970    1.067503
    102          6           0        7.143194   -3.471827    2.055093
    103          7           0       13.496879   -2.875752   -0.508163
    104          6           0       12.577448   -3.852969   -0.386141
    105          6           0       13.158393   -5.200257   -0.821616
    106          6           0       14.455139   -4.794609   -1.540385
    107          6           0       14.585011   -3.335673   -1.163546
    108          6           0       13.432302   -6.150415    0.432897
    109          6           0       14.226025   -4.942396   -3.130100
    110          6           0       13.307494   -3.872391   -3.780959
    111          7           0       14.928711   -0.421164   -0.863556
    112          6           0       15.930489   -1.242779   -1.216533
    113          6           0       17.126182   -0.456466   -1.359911
    114          6           0       16.763583    0.834684   -1.025122
    115          6           0       15.415317    0.825164   -0.657319
    116          6           0       18.521288   -0.899204   -1.757960
    117          6           0       17.355619    2.165041   -0.860987
    118          8           0       18.439093    2.676580   -0.898084
    119          6           0       16.167626    3.047931   -0.395611
    120          6           0       16.583679    3.618579    0.909620
    121          8           0       16.942617    2.913074    1.818674
    122          8           0       16.597944    5.003996    0.928086
    123          6           0       17.285837    5.647829    2.096858
    124          1           0        9.441997    1.642252    1.091718
    125          1           0       10.664414   -4.583887   -0.124396
    126          1           0       16.629162   -3.047873   -1.827486
    127          1           0       13.425396    4.041145    1.522002
    128          1           0       10.855239    3.786091    0.251528
    129          1           0       11.753768    4.163387    2.919488
    130          1           0       10.325332    3.109241    2.801790
    131          1           0       10.394132    4.714323    1.998269
    132          1           0       12.164870    5.074744   -0.957870
    133          1           0       13.673197    4.363096   -1.343527
    134          1           0       14.738117    6.182700   -0.398165
    135          1           0       13.826438    6.005465    1.063520
    136          1           0        6.645076   -0.702349    0.825533
    137          1           0        7.442955    0.678049    1.484394
    138          1           0        7.176795   -0.599880    2.514594
    139          1           0        6.489828   -2.955769    1.351213
    140          1           0        7.463671   -2.829208    2.874505
    141          1           0        6.620783   -4.375357    2.370975
    142          1           0       12.546686   -5.720957   -1.559123
    143          1           0       15.404750   -5.253902   -1.264917
    144          1           0       13.334946   -7.176626    0.077641
    145          1           0       12.774911   -6.073598    1.299605
    146          1           0       14.471450   -5.948997    0.692637
    147          1           0       13.854761   -5.927115   -3.413311
    148          1           0       15.157052   -4.723163   -3.652993
    149          1           0       13.016122   -4.069946   -4.812003
    150          1           0       13.852936   -2.928547   -3.777814
    151          1           0       12.425387   -3.769467   -3.148141
    152          1           0       18.592773   -1.308414   -2.765443
    153          1           0       18.749766   -1.691206   -1.045254
    154          1           0       19.271435   -0.125622   -1.593890
    155          1           0       16.138391    3.838604   -1.145119
    156          1           0       16.550477    6.422832    2.312992
    157          1           0       18.237450    6.108270    1.831934
    158          1           0       17.513311    5.066200    2.989853
 ---------------------------------------------------------------------

 SCF Done:  E(RPBE1PBE) =  -4067.39736251     A.U. after   16 cycles

 Excitation energies and oscillator strengths:

 Excited State   1:      Singlet-A      1.6638 eV  745.19 nm  f=0.0000  <S**2>=0.000
     312 -> 313        0.70710
 This state for optimization and/or second-order correction.
 Total Energy, E(TD-HF/TD-DFT) =  -4067.33621913
 Copying the excited state density for this state as the 1-particle RhoCI density.

 Excited State   2:      Singlet-A      1.8616 eV  665.99 nm  f=0.3702  <S**2>=0.000
     310 -> 315        0.18469
     311 -> 313        0.17873
     312 -> 314        0.66505

 Excited State   3:      Singlet-A      1.8683 eV  663.61 nm  f=0.3921  <S**2>=0.000
     309 -> 316        0.16258
     311 -> 313        0.67124
     312 -> 314       -0.17685
     311 <- 313       -0.10799

 Excited State   4:      Singlet-A      2.2023 eV  562.97 nm  f=0.1255  <S**2>=0.000
     309 -> 313        0.66414
     311 -> 316       -0.22443

 Excited State   5:      Singlet-A      2.2230 eV  557.74 nm  f=0.0000  <S**2>=0.000
     311 -> 314        0.70710

 The electronic state is 1-A.
 Alpha  occ. eigenvalues --  -46.92932 -46.91540 -19.25771 -19.24685 -19.20517
 Alpha  occ. eigenvalues --  -19.19780 -19.19462 -19.19459 -19.18636 -19.18629
 Alpha  occ. eigenvalues --  -14.41692 -14.41645 -14.41384 -14.41180 -14.39692
 Alpha  occ. eigenvalues --  -14.39562 -14.39436 -14.38867 -10.36462 -10.35780
 Alpha  occ. eigenvalues --  -10.32731 -10.32373 -10.32274 -10.31498 -10.29233
 Alpha  occ. eigenvalues --  -10.29026 -10.29022 -10.28814 -10.28628 -10.28537
 Alpha  occ. eigenvalues --  -10.28511 -10.28496 -10.28462 -10.28126 -10.28114
 Alpha  occ. eigenvalues --  -10.27967 -10.27955 -10.27797 -10.27708 -10.27423
 Alpha  occ. eigenvalues --  -10.27331 -10.27188 -10.27001 -10.26897 -10.26808
 Alpha  occ. eigenvalues --  -10.26803 -10.26530 -10.26222 -10.26209 -10.26148
 Alpha  occ. eigenvalues --  -10.25991 -10.25845 -10.25845 -10.25825 -10.25739
 Alpha  occ. eigenvalues --  -10.25640 -10.25560 -10.25551 -10.25384 -10.25334
 Alpha  occ. eigenvalues --  -10.25275 -10.25002 -10.24888 -10.24827 -10.24757
 Alpha  occ. eigenvalues --  -10.24709 -10.24516 -10.24393 -10.24217 -10.24203
 Alpha  occ. eigenvalues --  -10.24169 -10.24110 -10.23940 -10.23810 -10.23717
 Alpha  occ. eigenvalues --  -10.23683 -10.23565 -10.23490 -10.23442 -10.23292
 Alpha  occ. eigenvalues --  -10.23114 -10.23030 -10.22930 -10.22878 -10.22706
 Alpha  occ. eigenvalues --  -10.22367  -3.14920  -3.13798  -1.87742  -1.87307
 Alpha  occ. eigenvalues --   -1.87134  -1.86646  -1.86159  -1.86053  -1.10401
 Alpha  occ. eigenvalues --   -1.10243  -1.06400  -1.05845  -1.03897  -1.02650
 Alpha  occ. eigenvalues --   -1.02490  -1.02423  -0.99817  -0.98971  -0.98967
 Alpha  occ. eigenvalues --   -0.98536  -0.98143  -0.97492  -0.96612  -0.96120
 Alpha  occ. eigenvalues --   -0.86693  -0.85999  -0.83204  -0.83183  -0.83075
 Alpha  occ. eigenvalues --   -0.82881  -0.82579  -0.82143  -0.82083  -0.81912
 Alpha  occ. eigenvalues --   -0.81090  -0.80859  -0.80705  -0.80610  -0.78714
 Alpha  occ. eigenvalues --   -0.78554  -0.77759  -0.77281  -0.76761  -0.76369
 Alpha  occ. eigenvalues --   -0.76215  -0.75487  -0.75187  -0.75094  -0.74427
 Alpha  occ. eigenvalues --   -0.74380  -0.73255  -0.72673  -0.71807  -0.71701
 Alpha  occ. eigenvalues --   -0.71323  -0.71046  -0.70450  -0.70130  -0.69589
 Alpha  occ. eigenvalues --   -0.68951  -0.67552  -0.66573  -0.66232  -0.65957
 Alpha  occ. eigenvalues --   -0.63762  -0.63691  -0.63633  -0.63020  -0.62821
 Alpha  occ. eigenvalues --   -0.62512  -0.61632  -0.61530  -0.59975  -0.59910
 Alpha  occ. eigenvalues --   -0.59838  -0.59697  -0.59647  -0.59058  -0.58514
 Alpha  occ. eigenvalues --   -0.58337  -0.56840  -0.55900  -0.55235  -0.55018
 Alpha  occ. eigenvalues --   -0.54271  -0.54113  -0.53855  -0.53356  -0.53308
 Alpha  occ. eigenvalues --   -0.52615  -0.52248  -0.52230  -0.52157  -0.51400
 Alpha  occ. eigenvalues --   -0.50795  -0.50616  -0.50362  -0.49898  -0.49706
 Alpha  occ. eigenvalues --   -0.49222  -0.49204  -0.48790  -0.48666  -0.48518
 Alpha  occ. eigenvalues --   -0.48017  -0.48013  -0.47899  -0.47562  -0.47186
 Alpha  occ. eigenvalues --   -0.47090  -0.46933  -0.46826  -0.46699  -0.46553
 Alpha  occ. eigenvalues --   -0.46544  -0.46389  -0.46126  -0.46022  -0.45784
 Alpha  occ. eigenvalues --   -0.45720  -0.45391  -0.45330  -0.45086  -0.44646
 Alpha  occ. eigenvalues --   -0.44632  -0.44390  -0.44141  -0.44087  -0.44068
 Alpha  occ. eigenvalues --   -0.44033  -0.43932  -0.43919  -0.43684  -0.43653
 Alpha  occ. eigenvalues --   -0.43559  -0.43210  -0.43067  -0.42934  -0.42831
 Alpha  occ. eigenvalues --   -0.42745  -0.42561  -0.42262  -0.42065  -0.42039
 Alpha  occ. eigenvalues --   -0.41663  -0.41574  -0.41101  -0.40972  -0.40897
 Alpha  occ. eigenvalues --   -0.40816  -0.40778  -0.40600  -0.40510  -0.40370
 Alpha  occ. eigenvalues --   -0.40311  -0.40088  -0.40022  -0.39910  -0.39811
 Alpha  occ. eigenvalues --   -0.39700  -0.39478  -0.39316  -0.39023  -0.38914
 Alpha  occ. eigenvalues --   -0.38859  -0.38499  -0.38350  -0.38159  -0.38101
 Alpha  occ. eigenvalues --   -0.38026  -0.37875  -0.37809  -0.37776  -0.37716
 Alpha  occ. eigenvalues --   -0.37524  -0.37339  -0.37212  -0.37142  -0.37077
 Alpha  occ. eigenvalues --   -0.36981  -0.36867  -0.36318  -0.36316  -0.36296
 Alpha  occ. eigenvalues --   -0.36118  -0.35800  -0.35736  -0.35319  -0.35238
 Alpha  occ. eigenvalues --   -0.35120  -0.34677  -0.34181  -0.34095  -0.33991
 Alpha  occ. eigenvalues --   -0.33515  -0.33301  -0.33284  -0.33051  -0.33045
 Alpha  occ. eigenvalues --   -0.32822  -0.32102  -0.31800  -0.31359  -0.31247
 Alpha  occ. eigenvalues --   -0.31197  -0.30979  -0.29598  -0.29434  -0.29413
 Alpha  occ. eigenvalues --   -0.29118  -0.28748  -0.28738  -0.27240  -0.26882
 Alpha  occ. eigenvalues --   -0.26434  -0.26151  -0.25997  -0.25807  -0.25752
 Alpha  occ. eigenvalues --   -0.25640  -0.25233  -0.25117  -0.21130  -0.20932
 Alpha  occ. eigenvalues --   -0.19193  -0.18204
 Alpha virt. eigenvalues --   -0.11589  -0.10523  -0.05584  -0.05000  -0.04450
 Alpha virt. eigenvalues --   -0.03688  -0.02236  -0.01933  -0.01124  -0.00243
 Alpha virt. eigenvalues --    0.00564   0.00811   0.01044   0.01154   0.01676

 Mulliken charges:
               1
     1  Mg  12.000000
     2  C    6.000000
     3  C    6.000000
     4  C    6.000000
     5  C    6.000000
     6  N    7.000000
     7  C    6.000000
     8  C    6.000000
     9  C    6.000000
    10  C    6.000000
    11  C    6.000000
    12  C    6.000000
    13  C    6.000000
    14  H    1.000000
    15  N    7.000000
    16  C    6.000000
    17  C    6.000000
    18  C    6.000000
    19  C    6.000000
    20  C    6.000000
    21  C    6.000000
    22  O    8.000000
    23  C    6.000000
    24  N    7.000000
    25  C    6.000000
    26  C    6.000000
    27  C    6.000000
    28  C    6.000000
    29  C    6.000000
    30  C    6.000000
    31  C    6.000000
    32  N    7.000000
    33  C    6.000000
    34  C    6.000000
    35  C    6.000000
    36  C    6.000000
    37  C    6.000000
    38  C    6.000000
    39  O    8.000000
    40  C    6.000000
    41  C    6.000000
    42  O    8.000000
    43  O    8.000000
    44  C    6.000000
    45  H    1.000000
    46  H    1.000000
    47  H    1.000000
    48  H    1.000000
    49  H    1.000000
    50  H    1.000000
    51  H    1.000000
    52  H    1.000000
    53  H    1.000000
    54  H    1.000000
    55  H    1.000000
    56  H    1.000000
    57  H    1.000000
    58  H    1.000000
    59  H    1.000000
    60  H    1.000000
    61  H    1.000000
    62  H    1.000000
    63  H    1.000000
    64  H    1.000000
    65  H    1.000000
    66  H    1.000000
    67  H    1.000000
    68  H    1.000000
    69  H    1.000000
    70  H    1.000000
    71  H    1.000000
    72  H    1.000000
    73  H    1.000000
    74  H    1.000000
    75  H    1.000000
    76  H    1.000000
    77  H    1.000000
    78  H    1.000000
    79  H    1.000000
    80  Mg  12.000000
    81  C    6.000000
    82  C    6.000000
    83  C    6.000000
    84  C    6.000000
    85  N    7.000000
    86  C    6.000000
    87  C    6.000000
    88  C    6.000000
    89  C    6.000000
    90  C    6.000000
    91  C    6.000000
    92  C    6.000000
    93  H    1.000000
    94  N    7.000000
    95  C    6.000000
    96  C    6.000000
    97  C    6.000000
    98  C    6.000000
    99  C    6.000000
   100  C    6.000000
   101  O    8.000000
   102  C    6.000000
   103  N    7.000000
   104  C    6.000000
   105  C    6.000000
   106  C    6.000000
   107  C    6.000000
   108  C    6.000000
   109  C    6.000000
   110  C    6.000000
   111  N    7.000000
   112  C    6.000000
   113  C    6.000000
   114  C    6.000000
   115  C    6.000000
   116  C    6.000000
   117  C    6.000000
   118  O    8.000000
   119  C    6.000000
   120  C    6.000000
   121  O    8.000000
   122  O    8.000000
   123  C    6.000000
   124  H    1.000000
   125  H    1.000000
   126  H    1.000000
   127  H    1.000000
   128  H    1.000000
   129  H    1.000000
   130  H    1.000000
   131  H    1.000000
   132  H    1.000000
   133  H    1.000000
   134  H    1.000000
   135  H    1.000000
   136  H    1.000000
   137  H    1.000000
   138  H    1.000000
   139  H    1.000000
   140  H    1.000000
   141  H    1.000000
   142  H    1.000000
   143  H    1.000000
   144  H    1.000000
   145  H    1.000000
   146  H    1.000000
   147  H    1.000000
   148  H    1.000000
   149  H    1.000000
   150  H    1.000000
   151  H    1.000000
   152  H    1.000000
   153  H    1.000000
   154  H    1.000000
   155  H    1.000000
   156  H    1.000000
   157  H    1.000000
   158  H    1.000000
 Sum of Mulliken charges = 624.00000

 Dipole moment (field-independent basis, Debye):
    X=             -0.0000    Y=              0.0000    Z=              0.0000  Tot=              0.0000
 Quadrupole moment (field-independent basis, Debye-Ang):
   XX=             -0.0000   YY=             -0.0000   ZZ=              0.0000
   XY=              0.0000   XZ=              0.0000   YZ=              0.0000

 Normal termination of Gaussian 16 at Thu Oct 14 18:53:10 2021.
