 Gaussian 16, Revision A.03,
 Gaussian 16:  ES64L-G16RevA.03 25-Dec-2016

 --------------------------------------------------------
 #p PBE1PBE/Def2SVP td=(nstates=5) density=(transition=1)
 --------------------------------------------------------

 --------------------------------
 TDDFT excited states in gaussian
 --------------------------------
 Symbolic Z-matrix:
 Charge =  0 Multiplicity = 1

                         Standard orientation:
 ---------------------------------------------------------------------
 Center     Atomic      Atomic             Coordinates (Angstroms)
 Number     Number       Type             X           Y           Z
 ---------------------------------------------------------------------
      1         12           0       -0.563453    0.023721   -0.065143
      2          6           0        2.848635    0.373582    0.197761
      3          6           0       -0.371896   -3.341284    0.541037
      4          6           0       -4.053311   -0.269698   -0.143912
      5          6           0       -0.953545    3.447169    0.167325
      6          7           0        1.098589   -1.232937    0.534618
      7          6           0        2.464625   -0.963255    0.415009
      8          6           0        3.310965   -2.180343    0.796687
      9          6           0        2.226402   -3.283241    0.699959
     10          6           0        0.847142   -2.593364    0.671000
     11          6           0        2.487692   -4.291906   -0.439957
     12          6           0        3.938014   -2.039243    2.197851
     13          6           0        5.425062   -2.509126    2.357980
     14          1           0        5.799862   -3.049346    3.682598
     15          7           0       -1.960032   -1.564176    0.110495
     16          6           0       -1.685239   -2.879533    0.265889
     17          6           0       -2.829503   -3.717116    0.064581
     18          6           0       -3.894934   -2.866193   -0.272466
     19          6           0       -3.315817   -1.465721   -0.137449
     20          6           0       -2.790570   -5.246640    0.056426
     21          6           0       -5.366985   -3.285000   -0.630118
     22          8           0       -5.681643   -4.499231   -0.538814
     23          6           0       -6.462620   -2.275112   -1.182693
     24          7           0       -2.275251    1.387627    0.304041
     25          6           0       -3.563298    1.038069    0.068552
     26          6           0       -4.490563    2.224149   -0.001735
     27          6           0       -3.532972    3.426460    0.144036
     28          6           0       -2.166115    2.737631    0.168630
     29          6           0       -5.414876    2.257465   -1.263866
     30          6           0       -3.889722    4.373169    1.387073
     31          6           0       -4.550399    5.703882    1.008869
     32          7           0        0.661075    1.619673    0.083723
     33          6           0        0.398378    3.006131    0.141032
     34          6           0        1.658041    3.744441   -0.019252
     35          6           0        2.609872    2.735798   -0.074001
     36          6           0        1.951283    1.510213    0.118579
     37          6           0        1.910775    5.208407   -0.078999
     38          6           0        4.054240    2.487852   -0.187193
     39          8           0        4.996716    3.225774   -0.518645
     40          6           0        4.268523    0.926385   -0.059139
     41          6           0        4.895298    0.346843   -1.320166
     42          8           0        4.584476    0.579770   -2.492565
     43          8           0        5.913303   -0.424113   -0.842905
     44          6           0        6.822144   -0.982446   -1.830028
     45          1           0       -0.323468   -4.416100    0.727307
     46          1           0       -5.138538   -0.229702   -0.259014
     47          1           0       -1.005977    4.535872    0.231270
     48          1           0        4.125416   -2.297513    0.081043
     49          1           0        2.334635   -3.821196    1.641710
     50          1           0        3.495220   -4.399408   -0.841683
     51          1           0        1.901659   -3.932253   -1.285587
     52          1           0        2.180860   -5.303100   -0.173700
     53          1           0        3.333631   -2.497332    2.980307
     54          1           0        3.809368   -0.987795    2.455902
     55          1           0        6.085955   -1.672438    2.131707
     56          1           0        5.602192   -3.332135    1.664197
     57          1           0       -3.186850   -5.542992   -0.914515
     58          1           0       -3.236277   -5.630378    0.974217
     59          1           0       -1.728004   -5.488550    0.035105
     60          1           0       -6.909559   -1.807634   -0.306088
     61          1           0       -7.204389   -2.885988   -1.696664
     62          1           0       -5.972050   -1.690518   -1.961426
     63          1           0       -5.157352    2.178836    0.859430
     64          1           0       -3.399896    4.050236   -0.739564
     65          1           0       -5.432134    3.245820   -1.722345
     66          1           0       -6.444344    1.980643   -1.037298
     67          1           0       -5.091295    1.485522   -1.960857
     68          1           0       -3.004922    4.678584    1.945447
     69          1           0       -4.489075    3.824584    2.113580
     70          1           0       -5.325658    5.948181    1.735302
     71          1           0       -5.001143    5.622486    0.020011
     72          1           0       -3.858139    6.544422    0.963801
     73          1           0        0.940918    5.705792   -0.090260
     74          1           0        2.652713    5.426751   -0.847339
     75          1           0        2.324600    5.478215    0.893216
     76          1           0        4.863013    0.658636    0.814761
     77          1           0        6.322045   -1.408246   -2.700839
     78          1           0        7.530017   -1.735101   -1.482910
     79          1           0        7.486567   -0.200977   -2.199630
 ---------------------------------------------------------------------

 SCF Done:  E(RPBE1PBE) =  -2033.70532401     A.U. after   16 cycles

 Excitation energies and oscillator strengths:

 Excited State   1:      Singlet-A      1.8386 eV  674.35 nm  f=0.3528  <S**2>=0.000
     155 ->158         0.16784
     156 ->157         0.69277
     156 <-157        -0.10470
 This state for optimization and/or second-order correction.
 Total Energy, E(TD-HF/TD-DFT) =  -2033.63775730
 Copying the excited state density for this state as the 1-particle RhoCI density.

 Excited State   2:      Singlet-A      2.2418 eV  553.06 nm  f=0.0976  <S**2>=0.000
     155 ->157         0.64064
     156 ->158        -0.28298

 Excited State   3:      Singlet-A      3.0041 eV  412.72 nm  f=0.0007  <S**2>=0.000
     152 ->157         0.10740
     154 ->157         0.65905
     154 ->159         0.14049
     154 ->160         0.11811

 Excited State   4:      Singlet-A      3.0426 eV  407.49 nm  f=0.0005  <S**2>=0.000
     151 ->157         0.15869
     152 ->157        -0.17199
     153 ->157         0.61542
     153 ->159        -0.12682

 Excited State   5:      Singlet-A      3.2037 eV  387.00 nm  f=0.0149  <S**2>=0.000
     151 ->157        -0.20706
     152 ->157         0.57657
     153 ->157         0.25074
     154 ->157        -0.11136
     156 ->158         0.17198

 The electronic state is 1-A.
 Alpha  occ. eigenvalues --  -46.92584 -19.27083 -19.20585 -19.19704 -19.18917
 Alpha  occ. eigenvalues --  -14.42004 -14.41645 -14.39726 -14.38892 -10.37056
 Alpha  occ. eigenvalues --  -10.33703 -10.32122 -10.29726 -10.29311 -10.29019
 Alpha  occ. eigenvalues --  -10.29015 -10.28733 -10.28482 -10.27810 -10.27725
 Alpha  occ. eigenvalues --  -10.26382 -10.26357 -10.25974 -10.25959 -10.25937
 Alpha  occ. eigenvalues --  -10.25869 -10.25815 -10.25759 -10.25729 -10.25711
 Alpha  occ. eigenvalues --  -10.25456 -10.25258 -10.24817 -10.24715 -10.24641
 Alpha  occ. eigenvalues --  -10.24621 -10.24224 -10.24192 -10.23592 -10.23530
 Alpha  occ. eigenvalues --  -10.23464 -10.23242 -10.22614  -3.14695  -1.87501
 Alpha  occ. eigenvalues --   -1.87056  -1.86948  -1.11693  -1.03262  -1.03140
 Alpha  occ. eigenvalues --   -1.02677  -0.99431  -0.98740  -0.98023  -0.96749
 Alpha  occ. eigenvalues --   -0.85882  -0.83183  -0.83106  -0.82977  -0.81778
 Alpha  occ. eigenvalues --   -0.81260  -0.80588  -0.78582  -0.78228  -0.76797
 Alpha  occ. eigenvalues --   -0.75797  -0.75325  -0.74531  -0.72338  -0.71733
 Alpha  occ. eigenvalues --   -0.70990  -0.70250  -0.69622  -0.67213  -0.66155
 Alpha  occ. eigenvalues --   -0.63549  -0.63377  -0.62351  -0.61579  -0.60579
 Alpha  occ. eigenvalues --   -0.59679  -0.59439  -0.59137  -0.57343  -0.54502
 Alpha  occ. eigenvalues --   -0.54193  -0.53558  -0.53207  -0.52353  -0.51776
 Alpha  occ. eigenvalues --   -0.50513  -0.50427  -0.49818  -0.49584  -0.48416
 Alpha  occ. eigenvalues --   -0.47959  -0.47856  -0.47287  -0.46982  -0.46609
 Alpha  occ. eigenvalues --   -0.46151  -0.45910  -0.45751  -0.45563  -0.45480
 Alpha  occ. eigenvalues --   -0.44594  -0.44119  -0.43976  -0.43687  -0.43215
 Alpha  occ. eigenvalues --   -0.42863  -0.42774  -0.42516  -0.42249  -0.42121
 Alpha  occ. eigenvalues --   -0.41994  -0.41516  -0.41306  -0.41161  -0.40705
 Alpha  occ. eigenvalues --   -0.40393  -0.40076  -0.39545  -0.39199  -0.38751
 Alpha  occ. eigenvalues --   -0.38692  -0.38577  -0.38302  -0.38183  -0.37726
 Alpha  occ. eigenvalues --   -0.37330  -0.37140  -0.36996  -0.36768  -0.36509
 Alpha  occ. eigenvalues --   -0.36086  -0.35761  -0.35553  -0.34679  -0.34250
 Alpha  occ. eigenvalues --   -0.33661  -0.33377  -0.33120  -0.32387  -0.31929
 Alpha  occ. eigenvalues --   -0.31477  -0.30059  -0.29762  -0.28676  -0.26965
 Alpha  occ. eigenvalues --   -0.26266  -0.25778  -0.25621  -0.25408  -0.21093
 Alpha  occ. eigenvalues --   -0.18735
 Alpha virt. eigenvalues --   -0.11131  -0.05542  -0.04002  -0.02503  -0.01123
 Alpha virt. eigenvalues --    0.00227   0.00684   0.02682   0.02842   0.03915
 Alpha virt. eigenvalues --    0.04666   0.05278   0.06087   0.06181   0.06749

 Mulliken charges:
               1
     1  Mg  12.000993
     2  C    5.972872
     3  C    6.009527
     4  C    6.024176
     5  C    6.000342
     6  N    6.984077
     7  C    6.034997
     8  C    5.992352
     9  C    6.008378
    10  C    5.969224
    11  C    6.002968
    12  C    6.000367
    13  C    5.998644
    14  H    1.003749
    15  N    7.004340
    16  C    5.966717
    17  C    5.979797
    18  C    5.988075
    19  C    5.962982
    20  C    6.001676
    21  C    5.988557
    22  O    7.979515
    23  C    5.997734
    24  N    7.007302
    25  C    5.964552
    26  C    6.010741
    27  C    5.992190
    28  C    6.032002
    29  C    6.000586
    30  C    5.996873
    31  C    5.999432
    32  N    7.000811
    33  C    6.035317
    34  C    6.024226
    35  C    6.002661
    36  C    6.026478
    37  C    5.998487
    38  C    6.017396
    39  O    8.030358
    40  C    6.000594
    41  C    6.005283
    42  O    8.002381
    43  O    8.001601
    44  C    5.998372
    45  H    0.989696
    46  H    0.994638
    47  H    1.012752
    48  H    0.998334
    49  H    0.995105
    50  H    0.987316
    51  H    0.999244
    52  H    1.000831
    53  H    1.008375
    54  H    0.992721
    55  H    0.995285
    56  H    1.003907
    57  H    0.986286
    58  H    0.983759
    59  H    0.985176
    60  H    0.990101
    61  H    0.989409
    62  H    0.991797
    63  H    0.999300
    64  H    0.997462
    65  H    0.990411
    66  H    1.002412
    67  H    1.003477
    68  H    0.996842
    69  H    1.011045
    70  H    1.005291
    71  H    1.005266
    72  H    0.997982
    73  H    1.014696
    74  H    1.015051
    75  H    1.018402
    76  H    1.007379
    77  H    1.004944
    78  H    1.005148
    79  H    1.000459
 Sum of Mulliken charges = 312.00000

 Dipole moment (field-independent basis, Debye):
    X=              5.8819    Y=              8.1606    Z=              0.1079  Tot=             10.0600
 Quadrupole moment (field-independent basis, Debye-Ang):
   XX=             -5.7163   YY=              0.7950   ZZ=              0.1701
   XY=             -6.5290   XZ=             -2.8639   YZ=              0.2704

 Normal termination of Gaussian 16 at Wed Oct 13 20:01:54 2021.
