 Gaussian 16, Revision A.03,
 Gaussian 16:  ES64L-G16RevA.03 25-Dec-2016

 --------------------------------------------------------
 #p PBE1PBE/Def2SVP td=(nstates=5) density=(transition=1)
 --------------------------------------------------------

 --------------------------------
 TDDFT excited states in gaussian
 --------------------------------
 Symbolic Z-matrix:
 Charge =  0 Multiplicity = 1

                         Standard orientation:
 ---------------------------------------------------------------------
 Center     Atomic      Atomic             Coordinates (Angstroms)
 Number     Number       Type             X           Y           Z
 ---------------------------------------------------------------------
      1         12           0       -9.006727    0.173437    0.162024
      2          6           0       -6.237557   -2.116640    0.238134
      3          6           0       -6.837210    2.391545   -1.553807
      4          6           0      -11.517255    2.600140    0.093649
      5          6           0      -10.827462   -1.830364    2.119065
      6          7           0       -6.649450    0.158750   -0.388813
      7          6           0       -5.830175   -0.913990   -0.352440
      8          6           0       -4.407350   -0.519202   -0.888998
      9          6           0       -4.643225    0.994337   -1.235709
     10          6           0       -6.170821    1.208689   -1.133522
     11          6           0       -3.809906    1.953722   -0.316073
     12          6           0       -3.965280   -1.342094   -2.098829
     13          6           0       -2.553140   -1.828210   -2.086323
     14          1           0       -2.076376   -2.743265   -3.223542
     15          7           0       -9.254500    2.086468   -0.766992
     16          6           0       -8.241652    2.798973   -1.400323
     17          6           0       -8.804200    4.042334   -1.888772
     18          6           0      -10.142414    4.098387   -1.536052
     19          6           0      -10.349322    2.923076   -0.624340
     20          6           0       -8.012817    5.145137   -2.531148
     21          6           0      -11.239184    5.214342   -1.779264
     22          8           0      -12.396517    5.197334   -1.438084
     23          6           0      -10.893856    6.383600   -2.675830
     24          7           0      -10.794093    0.453904    1.071270
     25          6           0      -11.691791    1.481209    0.940220
     26          6           0      -12.872236    1.355966    1.931540
     27          6           0      -12.779646   -0.161850    2.388742
     28          6           0      -11.375163   -0.550241    1.787712
     29          6           0      -12.817359    2.409968    3.083332
     30          6           0      -13.933501   -1.068276    1.861829
     31          6           0      -13.944250   -1.317453    0.355309
     32          7           0       -8.677968   -1.561527    1.044497
     33          6           0       -9.570313   -2.362609    1.810188
     34          6           0       -8.919892   -3.604145    2.223423
     35          6           0       -7.664397   -3.559607    1.591085
     36          6           0       -7.551043   -2.333806    0.883210
     37          6           0       -9.512121   -4.652857    3.045298
     38          6           0       -6.440356   -4.339663    1.439645
     39          8           0       -6.179645   -5.460426    1.843875
     40          6           0       -5.405565   -3.396887    0.619319
     41          6           0       -5.033057   -4.354340   -0.515235
     42          8           0       -5.727925   -4.713953   -1.482688
     43          8           0       -3.821074   -4.830372   -0.288776
     44          6           0       -3.096498   -5.575584   -1.396735
     45          1           0       -6.183575    3.035142   -2.145746
     46          1           0      -12.355806    3.299813    0.132319
     47          1           0      -11.503197   -2.467299    2.693137
     48          1           0       -3.734992   -0.771621   -0.069737
     49          1           0       -4.391587    1.213568   -2.274226
     50          1           0       -3.160286    2.662624   -0.829442
     51          1           0       -3.299833    1.449958    0.505210
     52          1           0       -4.377324    2.707292    0.230530
     53          1           0       -3.828084   -0.556926   -2.842538
     54          1           0       -4.711840   -2.069055   -2.420535
     55          1           0       -2.148178   -2.302976   -1.191151
     56          1           0       -1.979595   -0.908022   -2.198229
     57          1           0       -6.994109    4.826925   -2.751181
     58          1           0       -7.944010    6.066240   -1.950321
     59          1           0       -8.376998    5.482939   -3.501525
     60          1           0      -10.625347    6.068737   -3.684168
     61          1           0      -10.088593    6.855639   -2.112865
     62          1           0      -11.756724    7.040745   -2.567416
     63          1           0      -13.738507    1.645432    1.335615
     64          1           0      -12.529649   -0.357265    3.431768
     65          1           0      -13.611154    3.153386    3.010862
     66          1           0      -11.871786    2.916790    3.272799
     67          1           0      -12.960510    1.768973    3.953425
     68          1           0      -14.851492   -0.744706    2.352638
     69          1           0      -13.788121   -2.058313    2.293690
     70          1           0      -13.216177   -0.752979   -0.226117
     71          1           0      -14.931424   -1.003794    0.016798
     72          1           0      -13.667123   -2.322440    0.039112
     73          1           0       -8.859566   -5.501641    3.250837
     74          1           0      -10.393048   -4.978868    2.492461
     75          1           0       -9.850718   -4.189469    3.973058
     76          1           0       -4.469873   -3.243318    1.156874
     77          1           0       -2.045014   -5.579542   -1.108716
     78          1           0       -3.133881   -5.054880   -2.353108
     79          1           0       -3.492567   -6.575131   -1.579729
     80         12           0        8.765239    0.634023    0.351007
     81          6           0        7.426776   -1.514574   -2.101572
     82          6           0        7.782616    3.198174   -1.573629
     83          6           0        9.574536    2.506546    2.904301
     84          6           0        9.020031   -2.262663    2.428208
     85          7           0        7.680100    0.793253   -1.597421
     86          6           0        7.294527   -0.167403   -2.470470
     87          6           0        6.705142    0.378790   -3.755109
     88          6           0        7.112570    1.900789   -3.619277
     89          6           0        7.549505    2.027088   -2.174506
     90          6           0        8.241934    2.381431   -4.621206
     91          6           0        5.163775    0.208258   -4.110065
     92          6           0        4.123959   -0.203417   -3.034231
     93          1           0        2.666667    0.379978   -3.155549
     94          7           0        8.793916    2.641927    0.532470
     95          6           0        8.261503    3.528861   -0.297530
     96          6           0        8.342156    4.879166    0.323227
     97          6           0        9.048085    4.671500    1.619257
     98          6           0        9.148468    3.215793    1.727736
     99          6           0        7.967903    6.154871   -0.382043
    100          6           0        9.410871    5.749472    2.606883
    101          8           0        9.184517    6.920160    2.310972
    102          6           0       10.009422    5.508805    4.041787
    103          7           0        9.145811    0.189689    2.496431
    104          6           0        9.601204    1.177685    3.186071
    105          6           0       10.087951    0.596203    4.587531
    106          6           0        9.656402   -0.865763    4.454890
    107          6           0        9.214171   -1.012831    3.011724
    108          6           0       11.558719    0.771067    5.001095
    109          6           0        8.355267   -1.240100    5.336723
    110          6           0        8.575028   -2.223669    6.500747
    111          7           0        8.284958   -1.434624    0.285277
    112          6           0        8.548947   -2.486106    1.122665
    113          6           0        8.341268   -3.779410    0.421032
    114          6           0        7.765850   -3.457496   -0.840700
    115          6           0        7.875886   -2.000249   -0.876082
    116          6           0        8.486701   -5.197831    1.016051
    117          6           0        7.196707   -3.930466   -2.058321
    118          8           0        6.816813   -5.042008   -2.464612
    119          6           0        7.018048   -2.691915   -2.972815
    120          6           0        7.845846   -2.950563   -4.235022
    121          8           0        7.545169   -3.236513   -5.363496
    122          8           0        9.168827   -2.591576   -3.955080
    123          6           0       10.155110   -2.646634   -5.078497
    124          1           0        7.444670    4.013502   -2.216954
    125          1           0        9.872319    3.175951    3.714996
    126          1           0        9.350650   -3.143254    2.982268
    127          1           0        7.319544   -0.055611   -4.543512
    128          1           0        6.244307    2.524743   -3.831678
    129          1           0        8.606969    1.550563   -5.224019
    130          1           0        9.056812    2.606263   -3.933947
    131          1           0        7.877628    3.225492   -5.207107
    132          1           0        5.110113   -0.508299   -4.929782
    133          1           0        4.801479    1.136221   -4.553773
    134          1           0        4.544086    0.122372   -2.082650
    135          1           0        3.856301   -1.259235   -3.061894
    136          1           0        8.340472    7.048526    0.118189
    137          1           0        6.890428    6.108804   -0.544622
    138          1           0        8.379855    6.023590   -1.383167
    139          1           0       10.897753    4.892650    4.185817
    140          1           0        9.261998    4.978694    4.632086
    141          1           0       10.270671    6.442883    4.538294
    142          1           0        9.582931    1.087103    5.418755
    143          1           0       10.366565   -1.650567    4.717691
    144          1           0       12.126964    1.326427    4.254752
    145          1           0       12.031205   -0.185955    5.224907
    146          1           0       11.687835    1.367971    5.903948
    147          1           0        7.578068   -1.704747    4.731501
    148          1           0        7.977096   -0.289103    5.712438
    149          1           0        7.735913   -2.883223    6.723437
    150          1           0        8.705853   -1.595470    7.381812
    151          1           0        9.446339   -2.795732    6.181670
    152          1           0        8.565324   -5.237178    2.102007
    153          1           0        9.414930   -5.569586    0.582821
    154          1           0        7.684197   -5.816933    0.615810
    155          1           0        5.966864   -2.590269   -3.240563
    156          1           0       10.004473   -3.381557   -5.868951
    157          1           0       11.077444   -2.946727   -4.581516
    158          1           0       10.416263   -1.718654   -5.587582
 ---------------------------------------------------------------------

 SCF Done:  E(RPBE1PBE) =  -4067.34593046     A.U. after   16 cycles

 Excitation energies and oscillator strengths:

 Excited State   1:      Singlet-A      1.7014 eV  728.73 nm  f=0.0000  <S**2>=0.000
     312 -> 313        0.70708
 This state for optimization and/or second-order correction.
 Total Energy, E(TD-HF/TD-DFT) =  -4067.28340644
 Copying the excited state density for this state as the 1-particle RhoCI density.

 Excited State   2:      Singlet-A      1.8200 eV  681.24 nm  f=0.3155  <S**2>=0.000
     310 -> 316       -0.17655
     312 -> 314        0.69138
     312 <- 314       -0.10885

 Excited State   3:      Singlet-A      1.9113 eV  648.70 nm  f=0.4154  <S**2>=0.000
     309 -> 315        0.17707
     311 -> 313        0.69013
     311 <- 313       -0.10548

 Excited State   4:      Singlet-A      2.0376 eV  608.48 nm  f=0.0000  <S**2>=0.000
     311 -> 314        0.70710

 Excited State   5:      Singlet-A      2.2314 eV  555.63 nm  f=0.0967  <S**2>=0.000
     310 -> 314        0.63907
     312 -> 316        0.29145

 The electronic state is 1-A.
 Alpha  occ. eigenvalues --  -46.93579 -46.91622 -19.25398 -19.25320 -19.20692
 Alpha  occ. eigenvalues --  -19.19642 -19.19578 -19.19521 -19.19086 -19.18116
 Alpha  occ. eigenvalues --  -14.41958 -14.41875 -14.41419 -14.41017 -14.40131
 Alpha  occ. eigenvalues --  -14.40005 -14.39643 -14.39322 -10.36970 -10.35359
 Alpha  occ. eigenvalues --  -10.33032 -10.32785 -10.32610 -10.32497 -10.29242
 Alpha  occ. eigenvalues --  -10.29200 -10.29159 -10.29150 -10.28990 -10.28881
 Alpha  occ. eigenvalues --  -10.28842 -10.28796 -10.28734 -10.28667 -10.28616
 Alpha  occ. eigenvalues --  -10.28590 -10.28200 -10.28071 -10.27923 -10.27751
 Alpha  occ. eigenvalues --  -10.27747 -10.27745 -10.27580 -10.27095 -10.26863
 Alpha  occ. eigenvalues --  -10.26750 -10.26614 -10.26567 -10.26427 -10.26305
 Alpha  occ. eigenvalues --  -10.26226 -10.26126 -10.26112 -10.26041 -10.26026
 Alpha  occ. eigenvalues --  -10.25895 -10.25863 -10.25849 -10.25753 -10.25714
 Alpha  occ. eigenvalues --  -10.25562 -10.25345 -10.25334 -10.25087 -10.25054
 Alpha  occ. eigenvalues --  -10.24893 -10.24832 -10.24548 -10.24500 -10.24420
 Alpha  occ. eigenvalues --  -10.24278 -10.24190 -10.24165 -10.24126 -10.24120
 Alpha  occ. eigenvalues --  -10.24101 -10.23761 -10.23591 -10.23509 -10.23503
 Alpha  occ. eigenvalues --  -10.23386 -10.23278 -10.23149 -10.23118 -10.22893
 Alpha  occ. eigenvalues --  -10.22747  -3.15639  -3.13889  -1.88467  -1.88011
 Alpha  occ. eigenvalues --   -1.87865  -1.86715  -1.86280  -1.86118  -1.10866
 Alpha  occ. eigenvalues --   -1.10563  -1.06070  -1.04714  -1.04568  -1.04006
 Alpha  occ. eigenvalues --   -1.02173  -1.01512  -0.99938  -0.99557  -0.98825
 Alpha  occ. eigenvalues --   -0.98299  -0.98155  -0.97640  -0.96771  -0.96284
 Alpha  occ. eigenvalues --   -0.87971  -0.85109  -0.84284  -0.83351  -0.83296
 Alpha  occ. eigenvalues --   -0.83030  -0.82940  -0.82739  -0.82200  -0.81615
 Alpha  occ. eigenvalues --   -0.81220  -0.81151  -0.80661  -0.80018  -0.79319
 Alpha  occ. eigenvalues --   -0.78290  -0.78279  -0.77768  -0.77310  -0.76515
 Alpha  occ. eigenvalues --   -0.76154  -0.75569  -0.75230  -0.75201  -0.74902
 Alpha  occ. eigenvalues --   -0.74396  -0.72947  -0.72336  -0.72089  -0.71516
 Alpha  occ. eigenvalues --   -0.71478  -0.71127  -0.71054  -0.70147  -0.69909
 Alpha  occ. eigenvalues --   -0.69389  -0.67861  -0.67007  -0.66961  -0.65987
 Alpha  occ. eigenvalues --   -0.64326  -0.64133  -0.63750  -0.63154  -0.63056
 Alpha  occ. eigenvalues --   -0.62203  -0.61840  -0.61418  -0.60547  -0.60306
 Alpha  occ. eigenvalues --   -0.60115  -0.59777  -0.59535  -0.59532  -0.59034
 Alpha  occ. eigenvalues --   -0.58542  -0.57774  -0.56244  -0.55244  -0.55013
 Alpha  occ. eigenvalues --   -0.54160  -0.54026  -0.53827  -0.53377  -0.53312
 Alpha  occ. eigenvalues --   -0.52866  -0.52287  -0.51872  -0.51787  -0.51140
 Alpha  occ. eigenvalues --   -0.50538  -0.50508  -0.50265  -0.50185  -0.49872
 Alpha  occ. eigenvalues --   -0.49755  -0.49537  -0.49174  -0.49066  -0.48615
 Alpha  occ. eigenvalues --   -0.48388  -0.48374  -0.47695  -0.47631  -0.47625
 Alpha  occ. eigenvalues --   -0.47485  -0.47392  -0.47128  -0.46871  -0.46741
 Alpha  occ. eigenvalues --   -0.46552  -0.46450  -0.46208  -0.46088  -0.45862
 Alpha  occ. eigenvalues --   -0.45759  -0.45466  -0.45365  -0.45311  -0.44800
 Alpha  occ. eigenvalues --   -0.44627  -0.44539  -0.44305  -0.44195  -0.44111
 Alpha  occ. eigenvalues --   -0.43829  -0.43766  -0.43753  -0.43609  -0.43454
 Alpha  occ. eigenvalues --   -0.43325  -0.43255  -0.43094  -0.43020  -0.42955
 Alpha  occ. eigenvalues --   -0.42716  -0.42656  -0.42433  -0.42288  -0.42125
 Alpha  occ. eigenvalues --   -0.42068  -0.41996  -0.41806  -0.41465  -0.41410
 Alpha  occ. eigenvalues --   -0.41257  -0.41217  -0.40959  -0.40909  -0.40818
 Alpha  occ. eigenvalues --   -0.40753  -0.40464  -0.40345  -0.40238  -0.40204
 Alpha  occ. eigenvalues --   -0.39791  -0.39772  -0.39592  -0.39134  -0.39134
 Alpha  occ. eigenvalues --   -0.38948  -0.38918  -0.38721  -0.38511  -0.38300
 Alpha  occ. eigenvalues --   -0.38260  -0.38157  -0.38032  -0.37826  -0.37813
 Alpha  occ. eigenvalues --   -0.37762  -0.37648  -0.37174  -0.37150  -0.37081
 Alpha  occ. eigenvalues --   -0.36968  -0.36869  -0.36630  -0.36433  -0.36236
 Alpha  occ. eigenvalues --   -0.36108  -0.35950  -0.35704  -0.35603  -0.35192
 Alpha  occ. eigenvalues --   -0.35041  -0.35000  -0.34443  -0.34237  -0.33950
 Alpha  occ. eigenvalues --   -0.33893  -0.33477  -0.33385  -0.32966  -0.32829
 Alpha  occ. eigenvalues --   -0.32377  -0.32119  -0.31648  -0.31610  -0.31515
 Alpha  occ. eigenvalues --   -0.30973  -0.30513  -0.30177  -0.29530  -0.29210
 Alpha  occ. eigenvalues --   -0.29009  -0.28577  -0.27557  -0.27493  -0.26814
 Alpha  occ. eigenvalues --   -0.26699  -0.26270  -0.26012  -0.25994  -0.25737
 Alpha  occ. eigenvalues --   -0.25593  -0.25438  -0.25189  -0.21539  -0.20949
 Alpha  occ. eigenvalues --   -0.19307  -0.18549
 Alpha virt. eigenvalues --   -0.11550  -0.11068  -0.05650  -0.05409  -0.04902
 Alpha virt. eigenvalues --   -0.03499  -0.02775  -0.01969  -0.01563  -0.00006
 Alpha virt. eigenvalues --    0.00315   0.00708   0.00966   0.01119   0.01520

 Mulliken charges:
               1
     1  Mg  12.000000
     2  C    6.000001
     3  C    5.999999
     4  C    5.999999
     5  C    6.000000
     6  N    7.000001
     7  C    5.999999
     8  C    6.000000
     9  C    5.999999
    10  C    6.000002
    11  C    5.999999
    12  C    6.000003
    13  C    5.999999
    14  H    0.999999
    15  N    7.000000
    16  C    6.000002
    17  C    6.000001
    18  C    6.000001
    19  C    6.000002
    20  C    6.000000
    21  C    6.000001
    22  O    8.000001
    23  C    6.000000
    24  N    7.000000
    25  C    6.000002
    26  C    6.000000
    27  C    6.000000
    28  C    5.999998
    29  C    6.000000
    30  C    6.000000
    31  C    6.000000
    32  N    7.000000
    33  C    5.999999
    34  C    5.999999
    35  C    6.000000
    36  C    5.999998
    37  C    6.000000
    38  C    6.000000
    39  O    7.999999
    40  C    6.000000
    41  C    6.000000
    42  O    8.000000
    43  O    8.000000
    44  C    6.000000
    45  H    1.000000
    46  H    1.000000
    47  H    0.999999
    48  H    1.000000
    49  H    1.000000
    50  H    1.000001
    51  H    1.000001
    52  H    1.000000
    53  H    0.999999
    54  H    1.000000
    55  H    1.000001
    56  H    1.000002
    57  H    1.000001
    58  H    1.000001
    59  H    1.000001
    60  H    1.000000
    61  H    1.000000
    62  H    1.000001
    63  H    1.000000
    64  H    1.000000
    65  H    1.000000
    66  H    1.000000
    67  H    1.000001
    68  H    1.000000
    69  H    1.000000
    70  H    1.000000
    71  H    1.000000
    72  H    1.000000
    73  H    0.999999
    74  H    0.999999
    75  H    0.999999
    76  H    1.000000
    77  H    1.000000
    78  H    1.000000
    79  H    1.000000
    80  Mg  12.000000
    81  C    6.000000
    82  C    6.000000
    83  C    6.000000
    84  C    6.000000
    85  N    7.000000
    86  C    6.000000
    87  C    6.000000
    88  C    6.000000
    89  C    6.000000
    90  C    6.000000
    91  C    6.000000
    92  C    6.000000
    93  H    0.999999
    94  N    7.000000
    95  C    6.000000
    96  C    6.000000
    97  C    6.000000
    98  C    6.000000
    99  C    6.000000
   100  C    6.000000
   101  O    8.000000
   102  C    6.000000
   103  N    7.000000
   104  C    6.000000
   105  C    6.000000
   106  C    6.000000
   107  C    6.000000
   108  C    6.000000
   109  C    6.000000
   110  C    6.000000
   111  N    7.000000
   112  C    6.000000
   113  C    6.000000
   114  C    6.000000
   115  C    6.000000
   116  C    6.000000
   117  C    6.000000
   118  O    8.000000
   119  C    6.000000
   120  C    6.000000
   121  O    8.000000
   122  O    8.000000
   123  C    6.000000
   124  H    1.000000
   125  H    1.000000
   126  H    1.000000
   127  H    1.000000
   128  H    1.000000
   129  H    1.000000
   130  H    1.000000
   131  H    1.000000
   132  H    1.000000
   133  H    1.000000
   134  H    1.000000
   135  H    1.000000
   136  H    1.000000
   137  H    1.000000
   138  H    1.000000
   139  H    1.000000
   140  H    1.000000
   141  H    1.000000
   142  H    1.000000
   143  H    1.000000
   144  H    1.000000
   145  H    1.000000
   146  H    1.000000
   147  H    1.000000
   148  H    1.000000
   149  H    1.000000
   150  H    1.000000
   151  H    1.000000
   152  H    1.000000
   153  H    1.000000
   154  H    1.000000
   155  H    1.000000
   156  H    1.000000
   157  H    1.000000
   158  H    1.000000
 Sum of Mulliken charges = 624.00000

 Dipole moment (field-independent basis, Debye):
    X=             -0.0001    Y=              0.0004    Z=             -0.0002  Tot=              0.0005
 Quadrupole moment (field-independent basis, Debye-Ang):
   XX=              0.0004   YY=              0.0002   ZZ=             -0.0001
   XY=             -0.0035   XZ=              0.0018   YZ=             -0.0001

 Normal termination of Gaussian 16 at Thu Oct 14 15:58:16 2021.
