 Gaussian 16, Revision A.03,
 Gaussian 16:  ES64L-G16RevA.03 25-Dec-2016

 --------------------------------------------------------
 #p PBE1PBE/Def2SVP td=(nstates=5) density=(transition=1)
 --------------------------------------------------------

 --------------------------------
 TDDFT excited states in gaussian
 --------------------------------
 Symbolic Z-matrix:
 Charge =  0 Multiplicity = 1

                         Standard orientation:
 ---------------------------------------------------------------------
 Center     Atomic      Atomic             Coordinates (Angstroms)
 Number     Number       Type             X           Y           Z
 ---------------------------------------------------------------------
      1         12           0      -26.588797    0.157739    0.008472
      2          6           0      -23.293761    1.009954    0.088851
      3          6           0      -26.394249    0.287464   -3.451957
      4          6           0      -29.720427   -1.050090   -0.073031
      5          6           0      -26.495710   -0.591678    3.445838
      6          7           0      -24.930499    0.351208   -1.509616
      7          6           0      -23.682058    0.741715   -1.183619
      8          6           0      -22.781640    0.813012   -2.362407
      9          6           0      -23.925390    0.948211   -3.548179
     10          6           0      -25.203554    0.498837   -2.809338
     11          6           0      -23.988255    2.375515   -4.167733
     12          6           0      -21.978414   -0.473173   -2.473394
     13          6           0      -22.748638   -1.872857   -2.531488
     14          1           0      -22.269699   -2.978410   -3.464103
     15          7           0      -27.878341   -0.317203   -1.528734
     16          6           0      -27.667617   -0.063375   -2.907662
     17          6           0      -28.911269   -0.283788   -3.567129
     18          6           0      -29.875760   -0.713614   -2.664160
     19          6           0      -29.228392   -0.682728   -1.341837
     20          6           0      -28.975082   -0.048818   -5.062625
     21          6           0      -31.275508   -1.190804   -2.969484
     22          8           0      -31.599983   -1.182195   -4.183098
     23          6           0      -32.162266   -1.829474   -2.055812
     24          7           0      -27.830762   -0.902434    1.463398
     25          6           0      -29.122326   -1.234933    1.177720
     26          6           0      -29.827412   -1.854576    2.408004
     27          6           0      -28.751009   -1.691236    3.533465
     28          6           0      -27.585569   -1.092289    2.764434
     29          6           0      -31.161338   -1.213647    2.726444
     30          6           0      -28.417149   -3.113128    4.236531
     31          6           0      -28.272770   -3.038000    5.760831
     32          7           0      -25.189451    0.183785    1.573931
     33          6           0      -25.317715    0.060776    2.920430
     34          6           0      -24.108232    0.573955    3.504100
     35          6           0      -23.236897    1.023603    2.452393
     36          6           0      -23.947419    0.731449    1.299894
     37          6           0      -23.702937    0.408894    4.928796
     38          6           0      -21.961557    1.537311    2.068136
     39          8           0      -21.081343    1.892394    2.862175
     40          6           0      -21.971226    1.578665    0.551209
     41          6           0      -21.742938    2.977953    0.115697
     42          8           0      -20.738597    3.556421    0.481268
     43          8           0      -22.674573    3.461757   -0.751233
     44          6           0      -22.447225    4.834692   -1.206511
     45          1           0      -26.412155    0.592404   -4.500247
     46          1           0      -30.800305   -1.210511   -0.088570
     47          1           0      -26.445314   -0.627299    4.536381
     48          1           0      -22.047826    1.618085   -2.402118
     49          1           0      -23.643221    0.368159   -4.427791
     50          1           0      -23.805339    2.323919   -5.240415
     51          1           0      -23.176111    2.948817   -3.719903
     52          1           0      -24.917183    2.914636   -3.977392
     53          1           0      -21.231547   -0.450422   -1.679545
     54          1           0      -21.341170   -0.268716   -3.333671
     55          1           0      -23.804480   -1.821179   -2.797575
     56          1           0      -22.585956   -2.251968   -1.522993
     57          1           0      -28.628719   -0.978009   -5.515495
     58          1           0      -28.270857    0.739434   -5.325810
     59          1           0      -29.949111    0.224660   -5.469415
     60          1           0      -32.828709   -2.529779   -2.560315
     61          1           0      -32.678098   -1.135948   -1.390454
     62          1           0      -31.525193   -2.496292   -1.476369
     63          1           0      -29.938246   -2.901872    2.124792
     64          1           0      -29.071992   -0.918070    4.231257
     65          1           0      -31.488900   -0.481101    1.989240
     66          1           0      -31.374138   -0.811740    3.716676
     67          1           0      -31.863808   -2.020128    2.514122
     68          1           0      -27.502447   -3.581401    3.872868
     69          1           0      -29.157743   -3.874401    3.992056
     70          1           0      -29.151244   -3.504835    6.205479
     71          1           0      -28.316434   -1.989079    6.054791
     72          1           0      -27.372242   -3.530396    6.128167
     73          1           0      -24.259566    0.969050    5.679155
     74          1           0      -22.647650    0.682954    4.956802
     75          1           0      -23.800086   -0.623103    5.266081
     76          1           0      -21.133608    0.960401    0.227018
     77          1           0      -21.463126    4.870520   -1.674689
     78          1           0      -22.562734    5.578275   -0.417778
     79          1           0      -23.249055    5.156599   -1.870837
     80         12           0       25.723284   -0.780976   -0.303964
     81          6           0       26.497360    2.608303   -0.152979
     82          6           0       23.397193   -0.373933    2.099167
     83          6           0       25.368805   -4.141166   -0.209365
     84          6           0       28.438047   -1.195292   -2.389196
     85          7           0       25.050005    0.980222    0.860610
     86          6           0       25.365613    2.288693    0.596321
     87          6           0       24.549439    3.196137    1.436032
     88          6           0       23.578212    2.306823    2.221019
     89          6           0       23.975556    0.851805    1.720037
     90          6           0       23.509516    2.447226    3.733791
     91          6           0       23.820056    4.347065    0.536330
     92          6           0       24.187813    5.822194    0.820949
     93          1           0       23.132805    6.900805    0.799574
     94          7           0       24.469810   -2.066199    0.697656
     95          6           0       23.564582   -1.710319    1.686167
     96          6           0       22.934724   -2.873980    2.195100
     97          6           0       23.496879   -4.002125    1.538387
     98          6           0       24.477111   -3.424085    0.613376
     99          6           0       21.741049   -2.695013    3.212721
    100          6           0       23.161991   -5.460210    1.847751
    101          8           0       23.707246   -6.447324    1.331304
    102          6           0       22.061501   -5.771734    2.763939
    103          7           0       26.883275   -2.505970   -0.966215
    104          6           0       26.483197   -3.759524   -0.911580
    105          6           0       27.534996   -4.704205   -1.535618
    106          6           0       28.140659   -3.681865   -2.576206
    107          6           0       27.780017   -2.336066   -1.955226
    108          6           0       28.674282   -5.334633   -0.651956
    109          6           0       27.626100   -3.794120   -4.090820
    110          6           0       26.185181   -3.625448   -4.350382
    111          7           0       27.291943    0.421488   -1.145926
    112          6           0       28.352290    0.103158   -2.016975
    113          6           0       29.098530    1.286188   -2.305660
    114          6           0       28.477795    2.274774   -1.568357
    115          6           0       27.309245    1.711110   -0.958948
    116          6           0       30.385575    1.352314   -2.970365
    117          6           0       28.420971    3.648040   -1.383078
    118          8           0       29.141555    4.563546   -1.793741
    119          6           0       27.212527    3.956361   -0.386299
    120          6           0       27.853122    4.395517    0.888784
    121          8           0       28.633449    3.841450    1.634329
    122          8           0       27.409996    5.638384    1.086237
    123          6           0       27.885008    6.314835    2.337504
    124          1           0       22.534232   -0.082563    2.701501
    125          1           0       25.113240   -5.200909   -0.261150
    126          1           0       29.253597   -1.332261   -3.102044
    127          1           0       25.264801    3.669691    2.107274
    128          1           0       22.568120    2.472976    1.847228
    129          1           0       24.212508    1.645760    3.957771
    130          1           0       22.516049    2.356870    4.173422
    131          1           0       23.888365    3.350691    4.210851
    132          1           0       22.740893    4.220841    0.618192
    133          1           0       24.077074    4.302784   -0.522308
    134          1           0       24.854960    6.124238    0.013098
    135          1           0       24.794794    5.926663    1.719278
    136          1           0       21.942347   -3.309627    4.089916
    137          1           0       20.979928   -3.182140    2.603090
    138          1           0       21.560858   -1.705164    3.632160
    139          1           0       22.222150   -5.313740    3.738933
    140          1           0       22.192476   -6.820636    3.028873
    141          1           0       21.060795   -5.612189    2.361578
    142          1           0       27.013990   -5.416377   -2.175665
    143          1           0       29.204406   -3.918440   -2.573612
    144          1           0       29.109863   -4.676580    0.098972
    145          1           0       29.401125   -5.647255   -1.402530
    146          1           0       28.305356   -6.207327   -0.112419
    147          1           0       27.848387   -4.757016   -4.551386
    148          1           0       27.961932   -2.943975   -4.684526
    149          1           0       26.063002   -2.543267   -4.360128
    150          1           0       25.464061   -4.013088   -3.630140
    151          1           0       25.785323   -3.967771   -5.304295
    152          1           0       31.094460    1.115218   -2.176141
    153          1           0       30.643318    2.320413   -3.398877
    154          1           0       30.456751    0.702965   -3.843623
    155          1           0       26.483337    4.656850   -0.793501
    156          1           0       27.014820    6.305130    2.994225
    157          1           0       28.240512    7.317340    2.100462
    158          1           0       28.676267    5.823227    2.904183
 ---------------------------------------------------------------------

 SCF Done:  E(RPBE1PBE) =  -4067.35336090     A.U. after   16 cycles

 Excitation energies and oscillator strengths:

 Excited State   1:      Singlet-A      1.8587 eV  667.04 nm  f=0.3500  <S**2>=0.000
     310 -> 316        0.16382
     312 -> 314        0.69250
     312 <- 314       -0.10763
 This state for optimization and/or second-order correction.
 Total Energy, E(TD-HF/TD-DFT) =  -4067.28505431
 Copying the excited state density for this state as the 1-particle RhoCI density.

 Excited State   2:      Singlet-A      1.8908 eV  655.72 nm  f=0.3774  <S**2>=0.000
     309 -> 315       -0.16981
     311 -> 313        0.69194
     311 <- 313       -0.10819

 Excited State   3:      Singlet-A      1.9667 eV  630.43 nm  f=0.0000  <S**2>=0.000
     312 -> 313        0.70711

 Excited State   4:      Singlet-A      2.0657 eV  600.19 nm  f=0.0000  <S**2>=0.000
     311 -> 314        0.70711

 Excited State   5:      Singlet-A      2.1770 eV  569.52 nm  f=0.1428  <S**2>=0.000
     310 -> 314        0.66023
     312 -> 316       -0.23475

 The electronic state is 1-A.
 Alpha  occ. eigenvalues --  -46.92726 -46.92492 -19.27075 -19.25678 -19.19776
 Alpha  occ. eigenvalues --  -19.19297 -19.18897 -19.18702 -19.18464 -19.18268
 Alpha  occ. eigenvalues --  -14.41630 -14.41591 -14.41502 -14.41214 -14.39404
 Alpha  occ. eigenvalues --  -14.39376 -14.38607 -14.38401 -10.36536 -10.35599
 Alpha  occ. eigenvalues --  -10.32204 -10.31838 -10.31748 -10.31271 -10.29996
 Alpha  occ. eigenvalues --  -10.29259 -10.29204 -10.28925 -10.28905 -10.28758
 Alpha  occ. eigenvalues --  -10.28700 -10.28361 -10.28347 -10.28044 -10.28006
 Alpha  occ. eigenvalues --  -10.27890 -10.27827 -10.27508 -10.27156 -10.26791
 Alpha  occ. eigenvalues --  -10.26618 -10.26600 -10.26428 -10.26363 -10.26345
 Alpha  occ. eigenvalues --  -10.26279 -10.26266 -10.26236 -10.26165 -10.26088
 Alpha  occ. eigenvalues --  -10.25896 -10.25805 -10.25799 -10.25712 -10.25709
 Alpha  occ. eigenvalues --  -10.25671 -10.25620 -10.25532 -10.25336 -10.25257
 Alpha  occ. eigenvalues --  -10.25123 -10.25012 -10.24998 -10.24927 -10.24923
 Alpha  occ. eigenvalues --  -10.24906 -10.24902 -10.24888 -10.24698 -10.24507
 Alpha  occ. eigenvalues --  -10.24006 -10.24003 -10.23973 -10.23960 -10.23804
 Alpha  occ. eigenvalues --  -10.23738 -10.23677 -10.23397 -10.23369 -10.23098
 Alpha  occ. eigenvalues --  -10.22876 -10.22875 -10.22585 -10.22483 -10.22333
 Alpha  occ. eigenvalues --  -10.22115  -3.14719  -3.14527  -1.87562  -1.87343
 Alpha  occ. eigenvalues --   -1.87071  -1.86958  -1.86920  -1.86732  -1.12230
 Alpha  occ. eigenvalues --   -1.11772  -1.03916  -1.03848  -1.03290  -1.02974
 Alpha  occ. eigenvalues --   -1.02906  -1.02164  -1.00027  -0.99581  -0.99163
 Alpha  occ. eigenvalues --   -0.98922  -0.98052  -0.97571  -0.97310  -0.95998
 Alpha  occ. eigenvalues --   -0.88560  -0.86552  -0.83549  -0.83513  -0.83338
 Alpha  occ. eigenvalues --   -0.83062  -0.83033  -0.82688  -0.82261  -0.82107
 Alpha  occ. eigenvalues --   -0.81938  -0.81153  -0.80539  -0.80198  -0.79414
 Alpha  occ. eigenvalues --   -0.78937  -0.78535  -0.78471  -0.77526  -0.77361
 Alpha  occ. eigenvalues --   -0.77074  -0.76238  -0.75831  -0.75812  -0.75282
 Alpha  occ. eigenvalues --   -0.75078  -0.73076  -0.73000  -0.72267  -0.71969
 Alpha  occ. eigenvalues --   -0.71705  -0.71405  -0.70459  -0.70292  -0.69691
 Alpha  occ. eigenvalues --   -0.69301  -0.67917  -0.67024  -0.66570  -0.66137
 Alpha  occ. eigenvalues --   -0.64444  -0.63772  -0.63649  -0.63470  -0.63256
 Alpha  occ. eigenvalues --   -0.62160  -0.61569  -0.61557  -0.60992  -0.60266
 Alpha  occ. eigenvalues --   -0.59908  -0.59843  -0.59776  -0.59323  -0.58926
 Alpha  occ. eigenvalues --   -0.58484  -0.58427  -0.56615  -0.55005  -0.54803
 Alpha  occ. eigenvalues --   -0.54483  -0.54251  -0.53876  -0.53861  -0.53253
 Alpha  occ. eigenvalues --   -0.53250  -0.53024  -0.52818  -0.52694  -0.52371
 Alpha  occ. eigenvalues --   -0.51312  -0.51156  -0.51033  -0.50440  -0.50248
 Alpha  occ. eigenvalues --   -0.50093  -0.49740  -0.49615  -0.49344  -0.49188
 Alpha  occ. eigenvalues --   -0.49161  -0.48894  -0.48451  -0.47899  -0.47813
 Alpha  occ. eigenvalues --   -0.47811  -0.47715  -0.47442  -0.47277  -0.46983
 Alpha  occ. eigenvalues --   -0.46728  -0.46505  -0.46484  -0.46446  -0.46035
 Alpha  occ. eigenvalues --   -0.45845  -0.45805  -0.45679  -0.45556  -0.44982
 Alpha  occ. eigenvalues --   -0.44769  -0.44412  -0.44314  -0.44219  -0.44117
 Alpha  occ. eigenvalues --   -0.44068  -0.43826  -0.43816  -0.43591  -0.43385
 Alpha  occ. eigenvalues --   -0.43377  -0.43210  -0.43149  -0.42971  -0.42784
 Alpha  occ. eigenvalues --   -0.42715  -0.42280  -0.41973  -0.41781  -0.41767
 Alpha  occ. eigenvalues --   -0.41526  -0.41506  -0.41392  -0.41148  -0.41031
 Alpha  occ. eigenvalues --   -0.40973  -0.40769  -0.40747  -0.40545  -0.40520
 Alpha  occ. eigenvalues --   -0.40450  -0.40071  -0.40002  -0.39597  -0.39499
 Alpha  occ. eigenvalues --   -0.39461  -0.39402  -0.39326  -0.39131  -0.39001
 Alpha  occ. eigenvalues --   -0.38847  -0.38530  -0.38429  -0.38349  -0.38173
 Alpha  occ. eigenvalues --   -0.38039  -0.37754  -0.37692  -0.37405  -0.37292
 Alpha  occ. eigenvalues --   -0.37167  -0.37119  -0.37020  -0.36943  -0.36791
 Alpha  occ. eigenvalues --   -0.36709  -0.36666  -0.36426  -0.36109  -0.36043
 Alpha  occ. eigenvalues --   -0.35945  -0.35826  -0.35788  -0.35575  -0.35285
 Alpha  occ. eigenvalues --   -0.35091  -0.34530  -0.34370  -0.34136  -0.33873
 Alpha  occ. eigenvalues --   -0.33683  -0.33051  -0.33039  -0.32826  -0.32704
 Alpha  occ. eigenvalues --   -0.32681  -0.32486  -0.32033  -0.31974  -0.31366
 Alpha  occ. eigenvalues --   -0.31170  -0.31050  -0.29789  -0.29674  -0.29205
 Alpha  occ. eigenvalues --   -0.29193  -0.28977  -0.28579  -0.27391  -0.27102
 Alpha  occ. eigenvalues --   -0.26168  -0.25788  -0.25722  -0.25606  -0.25453
 Alpha  occ. eigenvalues --   -0.25376  -0.25231  -0.24828  -0.21220  -0.20963
 Alpha  occ. eigenvalues --   -0.19276  -0.19070
 Alpha virt. eigenvalues --   -0.11591  -0.11431  -0.05426  -0.05157  -0.04058
 Alpha virt. eigenvalues --   -0.03912  -0.02375  -0.02120  -0.01401  -0.00598
 Alpha virt. eigenvalues --    0.00500   0.01040   0.01294   0.01851   0.01933

 Mulliken charges:
               1
     1  Mg  12.000017
     2  C    5.999894
     3  C    6.000124
     4  C    6.000138
     5  C    5.999913
     6  N    6.999979
     7  C    6.000253
     8  C    5.999880
     9  C    6.000121
    10  C    5.999761
    11  C    6.000022
    12  C    5.999941
    13  C    5.999963
    14  H    1.000083
    15  N    7.000070
    16  C    5.999617
    17  C    5.999843
    18  C    5.999995
    19  C    5.999642
    20  C    6.000014
    21  C    5.999903
    22  O    7.999760
    23  C    6.000017
    24  N    6.999895
    25  C    5.999783
    26  C    6.000052
    27  C    5.999949
    28  C    6.000265
    29  C    6.000026
    30  C    5.999980
    31  C    5.999994
    32  N    6.999912
    33  C    6.000329
    34  C    6.000241
    35  C    5.999971
    36  C    6.000331
    37  C    5.999986
    38  C    6.000171
    39  O    8.000273
    40  C    6.000001
    41  C    6.000047
    42  O    8.000057
    43  O    7.999999
    44  C    5.999990
    45  H    0.999894
    46  H    0.999885
    47  H    1.000048
    48  H    1.000022
    49  H    0.999969
    50  H    0.999981
    51  H    0.999896
    52  H    1.000002
    53  H    0.999983
    54  H    1.000084
    55  H    1.000105
    56  H    0.999955
    57  H    0.999824
    58  H    0.999822
    59  H    0.999851
    60  H    0.999865
    61  H    0.999886
    62  H    0.999955
    63  H    0.999988
    64  H    0.999988
    65  H    1.000010
    66  H    0.999909
    67  H    0.999978
    68  H    1.000008
    69  H    1.000069
    70  H    1.000026
    71  H    0.999976
    72  H    1.000002
    73  H    1.000211
    74  H    1.000140
    75  H    1.000232
    76  H    1.000119
    77  H    1.000050
    78  H    1.000011
    79  H    1.000055
    80  Mg  11.996825
    81  C    5.969815
    82  C    5.997157
    83  C    6.029776
    84  C    6.017292
    85  N    6.979323
    86  C    6.032212
    87  C    5.989744
    88  C    6.004428
    89  C    5.977952
    90  C    6.002282
    91  C    5.998450
    92  C    5.999970
    93  H    1.002733
    94  N    7.006253
    95  C    5.967502
    96  C    5.980874
    97  C    5.986838
    98  C    5.966578
    99  C    5.999478
   100  C    5.988098
   101  O    7.972062
   102  C    6.007716
   103  N    7.022617
   104  C    5.962690
   105  C    6.008828
   106  C    5.990998
   107  C    6.019055
   108  C    5.998960
   109  C    5.991168
   110  C    6.000902
   111  N    6.996421
   112  C    6.025793
   113  C    6.029182
   114  C    6.004597
   115  C    6.027630
   116  C    5.997127
   117  C    6.011709
   118  O    8.033335
   119  C    6.001658
   120  C    6.003913
   121  O    8.002300
   122  O    8.001212
   123  C    5.998226
   124  H    0.985677
   125  H    0.999340
   126  H    1.014766
   127  H    0.998526
   128  H    0.996939
   129  H    1.000603
   130  H    0.998302
   131  H    0.987075
   132  H    1.006280
   133  H    0.995037
   134  H    0.994249
   135  H    0.999999
   136  H    0.983938
   137  H    0.986017
   138  H    0.986741
   139  H    0.995263
   140  H    0.987112
   141  H    0.991763
   142  H    1.002172
   143  H    1.004925
   144  H    0.996662
   145  H    0.993946
   146  H    1.006329
   147  H    1.010232
   148  H    0.996847
   149  H    0.994019
   150  H    1.015219
   151  H    1.004690
   152  H    1.019152
   153  H    1.015006
   154  H    1.014997
   155  H    1.006867
   156  H    1.006440
   157  H    1.001388
   158  H    1.001802
 Sum of Mulliken charges = 624.00000

 Dipole moment (field-independent basis, Debye):
    X=              7.0994    Y=              4.5597    Z=             -5.3018  Tot=              9.9650
 Quadrupole moment (field-independent basis, Debye-Ang):
   XX=            361.7795   YY=             -6.2926   ZZ=              1.0689
   XY=            112.9345   XZ=           -141.1206   YZ=              5.4707

 Normal termination of Gaussian 16 at Thu Oct 14 21:56:56 2021.
