 Gaussian 16, Revision A.03,
 Gaussian 16:  ES64L-G16RevA.03 25-Dec-2016

 --------------------------------------------------------
 #p PBE1PBE/Def2SVP td=(nstates=5) density=(transition=1)
 --------------------------------------------------------

 --------------------------------
 TDDFT excited states in gaussian
 --------------------------------
 Symbolic Z-matrix:
 Charge =  0 Multiplicity = 1

                         Standard orientation:
 ---------------------------------------------------------------------
 Center     Atomic      Atomic             Coordinates (Angstroms)
 Number     Number       Type             X           Y           Z
 ---------------------------------------------------------------------
      1         12           0       -0.674257    0.184628    0.305585
      2          6           0        2.819065    0.202028    0.126542
      3          6           0       -0.690133   -3.092698    0.136388
      4          6           0       -4.058884    0.273111   -0.277741
      5          6           0       -0.671079    3.699373   -0.029189
      6          7           0        0.897853   -1.217901    0.253492
      7          6           0        2.265731   -1.054735    0.250327
      8          6           0        2.993814   -2.381196    0.425276
      9          6           0        1.836725   -3.405320    0.194090
     10          6           0        0.618269   -2.556171    0.302201
     11          6           0        1.876835   -4.321875   -1.009586
     12          6           0        3.780039   -2.527372    1.767187
     13          6           0        4.537876   -3.848346    1.938886
     14          1           0        6.009096   -3.730709    2.309252
     15          7           0       -2.229959   -1.292996   -0.104089
     16          6           0       -2.018809   -2.619863    0.020641
     17          6           0       -3.274459   -3.310104   -0.083613
     18          6           0       -4.260971   -2.336272   -0.315929
     19          6           0       -3.518273   -1.048229   -0.251095
     20          6           0       -3.417650   -4.815991   -0.017523
     21          6           0       -5.738082   -2.490303   -0.475234
     22          8           0       -6.547673   -1.589563   -0.823212
     23          6           0       -6.405689   -3.824473   -0.164970
     24          7           0       -2.113756    1.735227   -0.116360
     25          6           0       -3.418927    1.495714   -0.382459
     26          6           0       -4.231636    2.899717   -0.422488
     27          6           0       -3.163884    3.908301    0.129463
     28          6           0       -1.911825    3.093332    0.071636
     29          6           0       -4.715151    3.172578   -1.900355
     30          6           0       -3.428316    4.227873    1.646192
     31          6           0       -3.597282    3.081147    2.630685
     32          7           0        0.793861    1.737975    0.143442
     33          6           0        0.599027    3.086487    0.022487
     34          6           0        1.855728    3.674913   -0.038624
     35          6           0        2.826657    2.632454   -0.029136
     36          6           0        2.125273    1.460796    0.082619
     37          6           0        2.210648    5.109300   -0.214392
     38          6           0        4.257945    2.260152   -0.098348
     39          8           0        5.290463    2.901440   -0.256479
     40          6           0        4.300815    0.647333    0.105373
     41          6           0        5.210205    0.019506   -0.889927
     42          8           0        5.358466    0.414160   -2.084584
     43          8           0        5.929225   -0.884902   -0.238890
     44          6           0        7.157252   -1.260959   -0.912838
     45          1           0       -0.755184   -4.181191    0.196777
     46          1           0       -5.140143    0.319936   -0.427651
     47          1           0       -0.707229    4.789522   -0.000996
     48          1           0        3.773986   -2.354939   -0.335712
     49          1           0        1.724134   -4.112109    1.016924
     50          1           0        2.846551   -4.467040   -1.485652
     51          1           0        1.151191   -3.974514   -1.745522
     52          1           0        1.367033   -5.241923   -0.723045
     53          1           0        3.102155   -2.373221    2.607111
     54          1           0        4.500286   -1.713659    1.845591
     55          1           0        4.758415   -4.307060    0.975180
     56          1           0        4.000261   -4.531228    2.597379
     57          1           0       -2.476607   -5.365827   -0.008631
     58          1           0       -3.851440   -5.290459   -0.897416
     59          1           0       -3.992652   -5.160077    0.842725
     60          1           0       -6.097832   -4.536728   -0.929984
     61          1           0       -7.474341   -3.805138   -0.377564
     62          1           0       -6.261766   -4.148749    0.866311
     63          1           0       -5.128271    2.819814    0.192156
     64          1           0       -3.150419    4.723867   -0.593538
     65          1           0       -4.643628    2.299904   -2.549765
     66          1           0       -4.149415    3.946643   -2.419134
     67          1           0       -5.769675    3.434949   -1.972325
     68          1           0       -4.349635    4.800350    1.538268
     69          1           0       -2.691734    4.884391    2.108382
     70          1           0       -3.715703    2.139960    2.093372
     71          1           0       -4.360626    3.208382    3.397521
     72          1           0       -2.673604    3.133793    3.207062
     73          1           0        1.756863    5.777446    0.517996
     74          1           0        1.804284    5.381009   -1.188203
     75          1           0        3.287300    5.274102   -0.241015
     76          1           0        4.747485    0.526747    1.091973
     77          1           0        7.975875   -1.315189   -0.194101
     78          1           0        7.513399   -0.578855   -1.684475
     79          1           0        6.977713   -2.254213   -1.325607
 ---------------------------------------------------------------------

 SCF Done:  E(RPBE1PBE) =  -2033.69868203     A.U. after   16 cycles

 Excitation energies and oscillator strengths:

 Excited State   1:      Singlet-A      1.8527 eV  669.22 nm  f=0.3765  <S**2>=0.000
     155 ->158         0.15638
     156 ->157         0.69632
     156 <-157        -0.11166
 This state for optimization and/or second-order correction.
 Total Energy, E(TD-HF/TD-DFT) =  -2033.63059786
 Copying the excited state density for this state as the 1-particle RhoCI density.

 Excited State   2:      Singlet-A      2.1527 eV  575.94 nm  f=0.1541  <S**2>=0.000
     155 ->157         0.66978
     156 ->158        -0.19777

 Excited State   3:      Singlet-A      2.6850 eV  461.77 nm  f=0.0120  <S**2>=0.000
     154 ->157         0.69525

 Excited State   4:      Singlet-A      2.8511 eV  434.87 nm  f=0.0008  <S**2>=0.000
     152 ->157         0.64832
     152 ->158         0.10623
     152 ->159        -0.17785
     153 ->157        -0.15098

 Excited State   5:      Singlet-A      2.8774 eV  430.90 nm  f=0.0006  <S**2>=0.000
     152 ->157         0.15355
     153 ->157         0.66949

 The electronic state is 1-A.
 Alpha  occ. eigenvalues --  -46.92784 -19.27360 -19.19433 -19.19124 -19.18931
 Alpha  occ. eigenvalues --  -14.42361 -14.41400 -14.39260 -14.37893 -10.36339
 Alpha  occ. eigenvalues --  -10.32682 -10.32227 -10.29620 -10.29294 -10.28888
 Alpha  occ. eigenvalues --  -10.28717 -10.28195 -10.28051 -10.27998 -10.27081
 Alpha  occ. eigenvalues --  -10.26787 -10.26371 -10.26245 -10.26165 -10.26112
 Alpha  occ. eigenvalues --  -10.26012 -10.25845 -10.25691 -10.25635 -10.25579
 Alpha  occ. eigenvalues --  -10.25240 -10.25006 -10.24708 -10.24540 -10.24239
 Alpha  occ. eigenvalues --  -10.24232 -10.23900 -10.23760 -10.23228 -10.23158
 Alpha  occ. eigenvalues --  -10.22882 -10.22552 -10.22310  -3.14757  -1.87605
 Alpha  occ. eigenvalues --   -1.87100  -1.86993  -1.12983  -1.03762  -1.02861
 Alpha  occ. eigenvalues --   -1.00807  -0.99916  -0.98958  -0.98119  -0.97236
 Alpha  occ. eigenvalues --   -0.86315  -0.83852  -0.83581  -0.82616  -0.82164
 Alpha  occ. eigenvalues --   -0.81464  -0.80241  -0.79124  -0.78105  -0.77188
 Alpha  occ. eigenvalues --   -0.76071  -0.75662  -0.74872  -0.72954  -0.71968
 Alpha  occ. eigenvalues --   -0.71694  -0.70531  -0.69599  -0.67292  -0.66166
 Alpha  occ. eigenvalues --   -0.64197  -0.63595  -0.62657  -0.62271  -0.59894
 Alpha  occ. eigenvalues --   -0.59819  -0.59304  -0.59083  -0.57378  -0.55426
 Alpha  occ. eigenvalues --   -0.54298  -0.53893  -0.53178  -0.52163  -0.51900
 Alpha  occ. eigenvalues --   -0.50807  -0.50565  -0.50344  -0.50035  -0.49953
 Alpha  occ. eigenvalues --   -0.48950  -0.48051  -0.47531  -0.47315  -0.47085
 Alpha  occ. eigenvalues --   -0.46328  -0.46172  -0.45627  -0.45246  -0.44874
 Alpha  occ. eigenvalues --   -0.44709  -0.44124  -0.43713  -0.43536  -0.43274
 Alpha  occ. eigenvalues --   -0.43069  -0.42935  -0.42733  -0.42025  -0.41671
 Alpha  occ. eigenvalues --   -0.41528  -0.41199  -0.41040  -0.40759  -0.40674
 Alpha  occ. eigenvalues --   -0.40220  -0.40021  -0.39603  -0.39223  -0.39067
 Alpha  occ. eigenvalues --   -0.38664  -0.38551  -0.38192  -0.38054  -0.37587
 Alpha  occ. eigenvalues --   -0.37492  -0.37304  -0.37052  -0.36485  -0.36270
 Alpha  occ. eigenvalues --   -0.36173  -0.35707  -0.35349  -0.34548  -0.34212
 Alpha  occ. eigenvalues --   -0.33651  -0.32856  -0.32354  -0.32006  -0.31649
 Alpha  occ. eigenvalues --   -0.31367  -0.29305  -0.29225  -0.28265  -0.27390
 Alpha  occ. eigenvalues --   -0.26374  -0.25626  -0.25268  -0.24432  -0.21011
 Alpha  occ. eigenvalues --   -0.19335
 Alpha virt. eigenvalues --   -0.11773  -0.04924  -0.04129  -0.02071  -0.01052
 Alpha virt. eigenvalues --   -0.00277   0.00517   0.01631   0.03164   0.04140
 Alpha virt. eigenvalues --    0.04328   0.05051   0.06092   0.06364   0.06793

 Mulliken charges:
               1
     1  Mg  12.005741
     2  C    5.977414
     3  C    6.001474
     4  C    6.022671
     5  C    6.000721
     6  N    6.981753
     7  C    6.035464
     8  C    5.991017
     9  C    6.008401
    10  C    5.967040
    11  C    6.001422
    12  C    5.997404
    13  C    6.003173
    14  H    0.997143
    15  N    7.005022
    16  C    5.966110
    17  C    5.981853
    18  C    5.981726
    19  C    5.971940
    20  C    6.004821
    21  C    5.988399
    22  O    7.966419
    23  C    6.006259
    24  N    7.007917
    25  C    5.971512
    26  C    6.004358
    27  C    5.987960
    28  C    6.028865
    29  C    6.001531
    30  C    5.990404
    31  C    5.998088
    32  N    6.997383
    33  C    6.029649
    34  C    6.031492
    35  C    5.997562
    36  C    6.034413
    37  C    5.999184
    38  C    6.013746
    39  O    8.024489
    40  C    6.005222
    41  C    6.005497
    42  O    8.001415
    43  O    8.002138
    44  C    5.998486
    45  H    0.989440
    46  H    0.997650
    47  H    1.013751
    48  H    0.998085
    49  H    0.997616
    50  H    0.985896
    51  H    1.000521
    52  H    1.001126
    53  H    1.005471
    54  H    0.993122
    55  H    1.002665
    56  H    1.005057
    57  H    0.984136
    58  H    0.982187
    59  H    0.982312
    60  H    0.992724
    61  H    0.985753
    62  H    0.991423
    63  H    1.002821
    64  H    1.002824
    65  H    1.006614
    66  H    0.990493
    67  H    1.000631
    68  H    1.011297
    69  H    0.998096
    70  H    1.014680
    71  H    1.005729
    72  H    0.995637
    73  H    1.019472
    74  H    1.019714
    75  H    1.014557
    76  H    1.004126
    77  H    1.002963
    78  H    1.000588
    79  H    1.006123
 Sum of Mulliken charges = 312.00000

 Dipole moment (field-independent basis, Debye):
    X=              6.5811    Y=              7.9813    Z=              0.4030  Tot=             10.3525
 Quadrupole moment (field-independent basis, Debye-Ang):
   XX=             -9.7687   YY=              3.0444   ZZ=              0.2083
   XY=             -7.2021   XZ=             -2.7211   YZ=             -0.3115

 Normal termination of Gaussian 16 at Wed Oct 13 19:05:07 2021.
