 Gaussian 16, Revision A.03,
 Gaussian 16:  ES64L-G16RevA.03 25-Dec-2016

 --------------------------------------------------------
 #p PBE1PBE/Def2SVP td=(nstates=5) density=(transition=1)
 --------------------------------------------------------

 --------------------------------
 TDDFT excited states in gaussian
 --------------------------------
 Symbolic Z-matrix:
 Charge =  0 Multiplicity = 1

                         Standard orientation:
 ---------------------------------------------------------------------
 Center     Atomic      Atomic             Coordinates (Angstroms)
 Number     Number       Type             X           Y           Z
 ---------------------------------------------------------------------
      1         12           0        5.081389   -0.474567   -0.312295
      2          6           0        2.929189    2.062580   -1.002525
      3          6           0        7.832579    1.603406   -0.185586
      4          6           0        7.079536   -3.211784    0.175982
      5          6           0        2.363130   -2.800344   -0.853323
      6          7           0        5.354901    1.549464   -0.772446
      7          6           0        4.272712    2.492100   -0.786233
      8          6           0        4.771600    3.871229   -0.616361
      9          6           0        6.343530    3.657519   -0.776266
     10          6           0        6.576353    2.176864   -0.573675
     11          6           0        6.905298    4.133490   -2.208068
     12          6           0        4.242756    4.605708    0.653852
     13          6           0        3.791603    6.013913    0.435018
     14          1           0        4.672817    6.880970   -0.548120
     15          7           0        7.163684   -0.755720    0.030594
     16          6           0        8.076084    0.257064    0.017961
     17          6           0        9.350163   -0.311642    0.296411
     18          6           0        9.180569   -1.736118    0.504564
     19          6           0        7.713644   -1.990606    0.311619
     20          6           0       10.649506    0.522054    0.255512
     21          6           0       10.124697   -2.835292    0.879777
     22          8           0        9.906714   -4.050896    0.933164
     23          6           0       11.565713   -2.362449    1.306764
     24          7           0        4.794636   -2.758118   -0.436894
     25          6           0        5.736315   -3.603219   -0.098433
     26          6           0        5.202716   -5.019868    0.104081
     27          6           0        3.691355   -4.866497   -0.230076
     28          6           0        3.594839   -3.375893   -0.549124
     29          6           0        5.932065   -6.124085   -0.817674
     30          6           0        2.839728   -5.274098    1.052037
     31          6           0        2.882595   -4.420764    2.343741
     32          7           0        3.086792   -0.419039   -0.982891
     33          6           0        2.138010   -1.418522   -1.088065
     34          6           0        0.850928   -0.743593   -1.352035
     35          6           0        1.042184    0.605221   -1.326310
     36          6           0        2.458278    0.747660   -1.093842
     37          6           0       -0.398634   -1.453471   -1.745041
     38          6           0        0.431117    1.928306   -1.451002
     39          8           0       -0.719602    2.263908   -1.676062
     40          6           0        1.665724    2.912332   -1.249025
     41          6           0        1.830504    3.667148   -2.507899
     42          8           0        1.993877    3.216369   -3.655103
     43          8           0        1.750558    4.988894   -2.118737
     44          6           0        2.071842    5.954293   -3.177995
     45          1           0        8.719067    2.232811   -0.084859
     46          1           0        7.753533   -4.025683    0.453585
     47          1           0        1.514854   -3.481209   -0.943063
     48          1           0        4.369275    4.409979   -1.475193
     49          1           0        6.838235    4.210470    0.021663
     50          1           0        6.206605    4.756509   -2.766436
     51          1           0        6.970930    3.232929   -2.818467
     52          1           0        7.880548    4.554762   -1.967659
     53          1           0        5.024575    4.634844    1.412859
     54          1           0        3.393294    3.989286    0.947689
     55          1           0        3.820162    6.616579    1.341953
     56          1           0        2.776585    6.244667    0.111319
     57          1           0       10.826464    1.168260    1.115203
     58          1           0       10.549545    1.058190   -0.688093
     59          1           0       11.549611   -0.090664    0.300547
     60          1           0       12.109694   -2.042166    0.418131
     61          1           0       11.994176   -3.131328    1.949423
     62          1           0       11.561265   -1.538933    2.021132
     63          1           0        5.312055   -5.282411    1.156055
     64          1           0        3.361139   -5.493635   -1.058231
     65          1           0        6.577650   -6.691545   -0.146409
     66          1           0        6.550207   -5.635191   -1.571353
     67          1           0        5.337029   -6.881377   -1.326510
     68          1           0        2.978340   -6.300818    1.390374
     69          1           0        1.825467   -5.150320    0.671098
     70          1           0        1.860115   -4.049245    2.413029
     71          1           0        3.631553   -3.630937    2.301728
     72          1           0        3.124088   -4.989728    3.241520
     73          1           0       -1.174647   -0.820243   -1.316113
     74          1           0       -0.444553   -2.474201   -1.364976
     75          1           0       -0.543659   -1.283914   -2.811161
     76          1           0        1.242253    3.567480   -0.488200
     77          1           0        1.835424    6.904261   -2.697779
     78          1           0        1.341632    5.781491   -3.968590
     79          1           0        3.056142    5.847836   -3.634445
     80         12           0       -5.097123   -0.799090    0.154914
     81          6           0       -3.205890    2.251720    1.118919
     82          6           0       -7.720657    1.314075   -0.119890
     83          6           0       -6.670219   -3.500393   -0.370404
     84          6           0       -2.296546   -2.628377    1.373273
     85          7           0       -5.397275    1.485928    0.519723
     86          6           0       -4.469156    2.495039    0.713268
     87          6           0       -5.016837    3.912947    0.514261
     88          6           0       -6.541001    3.586475    0.574967
     89          6           0       -6.602114    2.031293    0.316731
     90          6           0       -7.222682    3.959728    1.853599
     91          6           0       -4.535067    4.694968   -0.753511
     92          6           0       -4.443225    6.181950   -0.668821
     93          1           0       -4.837248    6.933067   -1.936647
     94          7           0       -6.987420   -1.084240   -0.256366
     95          6           0       -7.959087   -0.071239   -0.396052
     96          6           0       -9.153544   -0.681101   -0.905175
     97          6           0       -8.768982   -2.075385   -1.121393
     98          6           0       -7.463840   -2.233519   -0.589014
     99          6           0      -10.466444    0.091255   -1.299646
    100          6           0       -9.624891   -3.116222   -1.775912
    101          8           0       -9.259697   -4.312960   -1.875192
    102          6           0      -10.938059   -2.814765   -2.400659
    103          7           0       -4.676189   -2.781074    0.584541
    104          6           0       -5.505031   -3.769612    0.242837
    105          6           0       -4.943123   -5.197698    0.535913
    106          6           0       -3.416070   -4.833158    0.650742
    107          6           0       -3.445673   -3.306422    0.934875
    108          6           0       -5.497281   -5.788467    1.872215
    109          6           0       -2.624795   -5.120877   -0.693807
    110          6           0       -2.703194   -6.522523   -1.334618
    111          7           0       -3.132197   -0.327248    1.019119
    112          6           0       -2.113236   -1.198634    1.386729
    113          6           0       -0.996617   -0.446158    1.908895
    114          6           0       -1.365708    0.899514    1.786650
    115          6           0       -2.708669    0.938606    1.320918
    116          6           0        0.327506   -0.986617    2.333084
    117          6           0       -0.901106    2.263922    1.999808
    118          8           0        0.157065    2.752813    2.372923
    119          6           0       -2.123011    3.170070    1.454609
    120          6           0       -2.402581    4.125683    2.512606
    121          8           0       -2.796006    3.871225    3.661844
    122          8           0       -1.757023    5.288276    2.202525
    123          6           0       -1.812540    6.384997    3.114985
    124          1           0       -8.481708    2.068377   -0.331168
    125          1           0       -7.172900   -4.454265   -0.542218
    126          1           0       -1.462371   -3.243975    1.717383
    127          1           0       -4.744085    4.487805    1.399529
    128          1           0       -7.056164    4.003963   -0.289635
    129          1           0       -7.413441    3.032319    2.393660
    130          1           0       -8.195985    4.399196    1.635789
    131          1           0       -6.689043    4.629020    2.528131
    132          1           0       -5.263055    4.496763   -1.539665
    133          1           0       -3.592041    4.249236   -1.068798
    134          1           0       -3.387513    6.358947   -0.464268
    135          1           0       -4.881782    6.577625    0.247366
    136          1           0      -10.645646    0.198035   -2.369090
    137          1           0      -10.521264    1.060333   -0.804402
    138          1           0      -11.228125   -0.540877   -0.841502
    139          1           0      -11.670312   -2.675395   -1.604959
    140          1           0      -11.185417   -3.691848   -2.999311
    141          1           0      -10.779796   -1.956025   -3.052208
    142          1           0       -5.228194   -5.809687   -0.320499
    143          1           0       -2.877307   -5.308492    1.469871
    144          1           0       -6.131376   -6.631081    1.595361
    145          1           0       -6.016262   -5.086784    2.524402
    146          1           0       -4.583193   -6.154980    2.341501
    147          1           0       -1.560628   -4.986584   -0.501330
    148          1           0       -2.907230   -4.326018   -1.383892
    149          1           0       -3.103878   -6.345840   -2.332671
    150          1           0       -3.443493   -7.048104   -0.730759
    151          1           0       -1.729311   -7.006654   -1.405635
    152          1           0        0.333284   -2.009100    1.954767
    153          1           0        0.320695   -0.975370    3.422969
    154          1           0        1.178060   -0.387952    2.007161
    155          1           0       -1.818677    3.679765    0.540627
    156          1           0       -2.427548    6.156328    3.985652
    157          1           0       -2.302861    7.186366    2.562130
    158          1           0       -0.815632    6.754990    3.350260
 ---------------------------------------------------------------------

 SCF Done:  E(RPBE1PBE) =  -4067.37743311     A.U. after   17 cycles

 Excitation energies and oscillator strengths:

 Excited State   1:      Singlet-A      1.4661 eV  845.66 nm  f=0.0028  <S**2>=0.000
     312 -> 313        0.70609
 This state for optimization and/or second-order correction.
 Total Energy, E(TD-HF/TD-DFT) =  -4067.32355414
 Copying the excited state density for this state as the 1-particle RhoCI density.

 Excited State   2:      Singlet-A      1.7711 eV  700.04 nm  f=0.7118  <S**2>=0.000
     310 -> 317       -0.10163
     311 -> 313        0.54291
     311 -> 314        0.25061
     312 -> 314       -0.36511

 Excited State   3:      Singlet-A      1.8034 eV  687.51 nm  f=0.1650  <S**2>=0.000
     311 -> 313       -0.11385
     311 -> 314        0.64394
     312 -> 314        0.26014

 Excited State   4:      Singlet-A      1.8527 eV  669.22 nm  f=0.0140  <S**2>=0.000
     309 -> 315       -0.14101
     311 -> 313        0.42849
     311 -> 314       -0.14446
     312 -> 314        0.52666

 Excited State   5:      Singlet-A      2.1687 eV  571.71 nm  f=0.1297  <S**2>=0.000
     309 -> 313        0.10037
     310 -> 313        0.66145
     311 -> 317        0.18410

 The electronic state is 1-A.
 Alpha  occ. eigenvalues --  -46.92552 -46.92027 -19.26266 -19.25216 -19.20478
 Alpha  occ. eigenvalues --  -19.20271 -19.20049 -19.19494 -19.19322 -19.17581
 Alpha  occ. eigenvalues --  -14.41848 -14.41540 -14.41362 -14.40837 -14.39179
 Alpha  occ. eigenvalues --  -14.39146 -14.39004 -14.38948 -10.36498 -10.35780
 Alpha  occ. eigenvalues --  -10.32945 -10.32864 -10.32610 -10.31016 -10.29488
 Alpha  occ. eigenvalues --  -10.29478 -10.29042 -10.28943 -10.28481 -10.28263
 Alpha  occ. eigenvalues --  -10.28250 -10.28200 -10.28102 -10.28056 -10.27989
 Alpha  occ. eigenvalues --  -10.27861 -10.27754 -10.27561 -10.27446 -10.27263
 Alpha  occ. eigenvalues --  -10.26668 -10.26619 -10.26569 -10.26379 -10.26154
 Alpha  occ. eigenvalues --  -10.26150 -10.26001 -10.25948 -10.25939 -10.25890
 Alpha  occ. eigenvalues --  -10.25631 -10.25624 -10.25606 -10.25494 -10.25483
 Alpha  occ. eigenvalues --  -10.25461 -10.25397 -10.25382 -10.25312 -10.25200
 Alpha  occ. eigenvalues --  -10.25028 -10.24984 -10.24969 -10.24960 -10.24934
 Alpha  occ. eigenvalues --  -10.24665 -10.24658 -10.24609 -10.24449 -10.24348
 Alpha  occ. eigenvalues --  -10.24222 -10.23931 -10.23825 -10.23669 -10.23418
 Alpha  occ. eigenvalues --  -10.23414 -10.23384 -10.23218 -10.23189 -10.23158
 Alpha  occ. eigenvalues --  -10.22948 -10.22928 -10.22917 -10.22870 -10.22677
 Alpha  occ. eigenvalues --  -10.22608  -3.14543  -3.14268  -1.87385  -1.87077
 Alpha  occ. eigenvalues --   -1.86907  -1.86766  -1.86639  -1.86516  -1.11044
 Alpha  occ. eigenvalues --   -1.10687  -1.05356  -1.04874  -1.04101  -1.02254
 Alpha  occ. eigenvalues --   -1.02067  -1.01509  -0.99748  -0.99414  -0.98535
 Alpha  occ. eigenvalues --   -0.98272  -0.98128  -0.97352  -0.96875  -0.96186
 Alpha  occ. eigenvalues --   -0.87581  -0.86691  -0.83364  -0.83281  -0.83035
 Alpha  occ. eigenvalues --   -0.82866  -0.82278  -0.82190  -0.81637  -0.81560
 Alpha  occ. eigenvalues --   -0.81203  -0.80920  -0.80325  -0.80279  -0.78801
 Alpha  occ. eigenvalues --   -0.78602  -0.78106  -0.77620  -0.77298  -0.76664
 Alpha  occ. eigenvalues --   -0.76117  -0.75753  -0.75400  -0.75267  -0.74877
 Alpha  occ. eigenvalues --   -0.74049  -0.72664  -0.72290  -0.71519  -0.71478
 Alpha  occ. eigenvalues --   -0.71458  -0.71398  -0.70288  -0.70074  -0.69647
 Alpha  occ. eigenvalues --   -0.69263  -0.67508  -0.66851  -0.66574  -0.65155
 Alpha  occ. eigenvalues --   -0.64258  -0.63564  -0.63523  -0.62825  -0.62633
 Alpha  occ. eigenvalues --   -0.62159  -0.61685  -0.61110  -0.59749  -0.59723
 Alpha  occ. eigenvalues --   -0.59472  -0.59306  -0.59257  -0.59147  -0.58937
 Alpha  occ. eigenvalues --   -0.58780  -0.57057  -0.56400  -0.55189  -0.54774
 Alpha  occ. eigenvalues --   -0.54111  -0.53915  -0.53648  -0.53454  -0.53217
 Alpha  occ. eigenvalues --   -0.53044  -0.52607  -0.52368  -0.52146  -0.52011
 Alpha  occ. eigenvalues --   -0.50493  -0.50180  -0.50027  -0.49918  -0.49473
 Alpha  occ. eigenvalues --   -0.49354  -0.49231  -0.49037  -0.48988  -0.48763
 Alpha  occ. eigenvalues --   -0.47957  -0.47891  -0.47860  -0.47596  -0.47457
 Alpha  occ. eigenvalues --   -0.47157  -0.47018  -0.46913  -0.46833  -0.46562
 Alpha  occ. eigenvalues --   -0.46383  -0.46305  -0.46282  -0.46198  -0.45882
 Alpha  occ. eigenvalues --   -0.45794  -0.45621  -0.45297  -0.45089  -0.44767
 Alpha  occ. eigenvalues --   -0.44622  -0.44334  -0.44279  -0.44230  -0.44164
 Alpha  occ. eigenvalues --   -0.43979  -0.43665  -0.43510  -0.43448  -0.43316
 Alpha  occ. eigenvalues --   -0.43304  -0.43122  -0.42894  -0.42832  -0.42671
 Alpha  occ. eigenvalues --   -0.42534  -0.42340  -0.42265  -0.42090  -0.42002
 Alpha  occ. eigenvalues --   -0.41867  -0.41826  -0.41572  -0.41292  -0.40927
 Alpha  occ. eigenvalues --   -0.40890  -0.40859  -0.40713  -0.40529  -0.40419
 Alpha  occ. eigenvalues --   -0.40296  -0.39844  -0.39747  -0.39729  -0.39528
 Alpha  occ. eigenvalues --   -0.39400  -0.39285  -0.39214  -0.39121  -0.38641
 Alpha  occ. eigenvalues --   -0.38566  -0.38314  -0.38097  -0.38001  -0.37895
 Alpha  occ. eigenvalues --   -0.37734  -0.37655  -0.37636  -0.37587  -0.37415
 Alpha  occ. eigenvalues --   -0.37300  -0.37149  -0.36971  -0.36901  -0.36843
 Alpha  occ. eigenvalues --   -0.36727  -0.36523  -0.36489  -0.36199  -0.36184
 Alpha  occ. eigenvalues --   -0.35906  -0.35611  -0.35455  -0.35303  -0.35291
 Alpha  occ. eigenvalues --   -0.34747  -0.34629  -0.34284  -0.34059  -0.33792
 Alpha  occ. eigenvalues --   -0.33566  -0.32885  -0.32692  -0.32491  -0.32420
 Alpha  occ. eigenvalues --   -0.32092  -0.31879  -0.31658  -0.31432  -0.31204
 Alpha  occ. eigenvalues --   -0.31010  -0.30533  -0.29554  -0.29552  -0.29320
 Alpha  occ. eigenvalues --   -0.28957  -0.28823  -0.28423  -0.26949  -0.26777
 Alpha  occ. eigenvalues --   -0.26410  -0.26163  -0.26033  -0.25600  -0.25496
 Alpha  occ. eigenvalues --   -0.25374  -0.25178  -0.24506  -0.21210  -0.20943
 Alpha  occ. eigenvalues --   -0.19036  -0.18592
 Alpha virt. eigenvalues --   -0.11747  -0.11010  -0.05711  -0.04521  -0.04140
 Alpha virt. eigenvalues --   -0.03718  -0.02294  -0.01974  -0.00785  -0.00581
 Alpha virt. eigenvalues --   -0.00201   0.00144   0.01004   0.01275   0.01355

 Mulliken charges:
               1
     1  Mg  11.999507
     2  C    5.999042
     3  C    6.000067
     4  C    6.000703
     5  C    6.000286
     6  N    6.999895
     7  C    6.000457
     8  C    5.999779
     9  C    6.000565
    10  C    5.998663
    11  C    6.000065
    12  C    5.999520
    13  C    6.000051
    14  H    1.000261
    15  N    7.000434
    16  C    5.998629
    17  C    5.998877
    18  C    5.999517
    19  C    5.998262
    20  C    6.000108
    21  C    5.999479
    22  O    7.998745
    23  C    6.000236
    24  N    7.000455
    25  C    5.997852
    26  C    6.000676
    27  C    6.000291
    28  C    5.998916
    29  C    6.000111
    30  C    5.999791
    31  C    6.000042
    32  N    7.000402
    33  C    5.998686
    34  C    6.003894
    35  C    5.999058
    36  C    6.001219
    37  C    5.999004
    38  C    6.000935
    39  O    8.001333
    40  C    5.999958
    41  C    6.000189
    42  O    8.000137
    43  O    8.000017
    44  C    6.000010
    45  H    0.999272
    46  H    0.999484
    47  H    0.999558
    48  H    0.999627
    49  H    0.999698
    50  H    0.999183
    51  H    0.999940
    52  H    0.999860
    53  H    1.000369
    54  H    1.000174
    55  H    0.999915
    56  H    0.999587
    57  H    0.998988
    58  H    0.999331
    59  H    0.999255
    60  H    0.999569
    61  H    0.999263
    62  H    0.999609
    63  H    0.999421
    64  H    0.999355
    65  H    0.999715
    66  H    0.999891
    67  H    0.999248
    68  H    0.999867
    69  H    0.999534
    70  H    0.999251
    71  H    1.000432
    72  H    0.999956
    73  H    1.000129
    74  H    1.001123
    75  H    1.001462
    76  H    1.000023
    77  H    1.000055
    78  H    0.999889
    79  H    1.000376
    80  Mg  12.000184
    81  C    6.000826
    82  C    6.000343
    83  C    5.999912
    84  C    6.000241
    85  N    7.000265
    86  C    5.999449
    87  C    6.000143
    88  C    6.000003
    89  C    6.000238
    90  C    5.999855
    91  C    6.000024
    92  C    5.999886
    93  H    1.000288
    94  N    6.999901
    95  C    6.000507
    96  C    6.000418
    97  C    6.000268
    98  C    6.000432
    99  C    5.999996
   100  C    6.000289
   101  O    8.000621
   102  C    5.999883
   103  N    6.999879
   104  C    6.000442
   105  C    5.999961
   106  C    5.999990
   107  C    5.999718
   108  C    5.999906
   109  C    5.999721
   110  C    6.000036
   111  N    7.000191
   112  C    5.999101
   113  C    5.999914
   114  C    6.000438
   115  C    5.999171
   116  C    5.999025
   117  C    6.000366
   118  O    8.001036
   119  C    5.999818
   120  C    5.999958
   121  O    8.000198
   122  O    8.000017
   123  C    5.999870
   124  H    1.000497
   125  H    1.000310
   126  H    1.000206
   127  H    1.000119
   128  H    1.000161
   129  H    1.000042
   130  H    1.000207
   131  H    1.000330
   132  H    0.999963
   133  H    0.999858
   134  H    1.000084
   135  H    1.000093
   136  H    1.000437
   137  H    1.000302
   138  H    1.000365
   139  H    1.000249
   140  H    1.000399
   141  H    1.000137
   142  H    1.000104
   143  H    1.000279
   144  H    1.000161
   145  H    1.000020
   146  H    1.000319
   147  H    1.000429
   148  H    0.999725
   149  H    0.999991
   150  H    1.000055
   151  H    1.000349
   152  H    1.000490
   153  H    1.001766
   154  H    1.000787
   155  H    0.999989
   156  H    1.000108
   157  H    1.000136
   158  H    1.000265
 Sum of Mulliken charges = 624.00000

 Dipole moment (field-independent basis, Debye):
    X=             -0.9999    Y=              0.1263    Z=             -0.0385  Tot=              1.0086
 Quadrupole moment (field-independent basis, Debye-Ang):
   XX=             -3.4092   YY=             -0.2011   ZZ=              0.2894
   XY=              1.1258   XZ=              0.1201   YZ=              0.1942

 Normal termination of Gaussian 16 at Wed Oct 13 20:53:11 2021.
