 Gaussian 16, Revision A.03,
 Gaussian 16:  ES64L-G16RevA.03 25-Dec-2016

 --------------------------------------------------------
 #p PBE1PBE/Def2SVP td=(nstates=5) density=(transition=1)
 --------------------------------------------------------

 --------------------------------
 TDDFT excited states in gaussian
 --------------------------------
 Symbolic Z-matrix:
 Charge =  0 Multiplicity = 1

                         Standard orientation:
 ---------------------------------------------------------------------
 Center     Atomic      Atomic             Coordinates (Angstroms)
 Number     Number       Type             X           Y           Z
 ---------------------------------------------------------------------
      1         12           0      -33.756559   -0.354371   -0.620867
      2          6           0      -30.800765    1.517104    0.486599
      3          6           0      -32.091429   -3.131573    0.601498
      4          6           0      -36.594999   -1.806989   -0.565830
      5          6           0      -35.194725    2.863584   -1.319587
      6          7           0      -31.643323   -0.691594    0.593748
      7          6           0      -30.630946    0.188787    0.907248
      8          6           0      -29.529146   -0.560885    1.741994
      9          6           0      -29.825091   -2.054080    1.518407
     10          6           0      -31.259599   -1.965523    0.871710
     11          6           0      -28.865428   -2.883042    0.567220
     12          6           0      -29.470887   -0.123155    3.245618
     13          6           0      -28.092089   -0.001788    3.857987
     14          1           0      -27.626958   -1.174106    4.777707
     15          7           0      -34.265223   -2.217840   -0.189528
     16          6           0      -33.460243   -3.257242    0.190176
     17          6           0      -34.275722   -4.490781    0.360963
     18          6           0      -35.597700   -4.085573    0.040901
     19          6           0      -35.531604   -2.648544   -0.213110
     20          6           0      -33.791619   -5.862429    0.858900
     21          6           0      -36.899183   -4.879890    0.183493
     22          8           0      -36.804167   -6.057610    0.518242
     23          6           0      -38.188467   -4.369987   -0.071331
     24          7           0      -35.688914    0.519705   -0.650977
     25          6           0      -36.676002   -0.420317   -0.871261
     26          6           0      -37.996425    0.343490   -1.274238
     27          6           0      -37.584327    1.857431   -1.199499
     28          6           0      -36.042824    1.729686   -1.150981
     29          6           0      -38.618289   -0.060231   -2.639272
     30          6           0      -38.176839    2.754684   -0.039243
     31          6           0      -39.607426    3.296842   -0.202771
     32          7           0      -33.193991    1.786919   -0.529676
     33          6           0      -33.845034    2.922523   -0.968451
     34          6           0      -32.984680    4.080472   -0.941002
     35          6           0      -31.755620    3.564172   -0.383125
     36          6           0      -31.895990    2.165978   -0.074934
     37          6           0      -33.417510    5.460116   -1.331156
     38          6           0      -30.487826    3.947494    0.052845
     39          8           0      -29.988461    5.054955    0.198879
     40          6           0      -29.854804    2.706896    0.747044
     41          6           0      -28.541877    2.499903    0.028608
     42          8           0      -27.466431    2.339965    0.611211
     43          8           0      -28.637447    2.332090   -1.411434
     44          6           0      -27.412536    1.783905   -1.991615
     45          1           0      -31.561714   -4.034193    0.911571
     46          1           0      -37.592743   -2.203361   -0.765435
     47          1           0      -35.742871    3.748670   -1.648892
     48          1           0      -28.571134   -0.439731    1.234378
     49          1           0      -29.968399   -2.584295    2.459908
     50          1           0      -28.280662   -3.505545    1.244121
     51          1           0      -28.162854   -2.229928    0.050409
     52          1           0      -29.359420   -3.453668   -0.219132
     53          1           0      -29.913871   -0.833861    3.943771
     54          1           0      -29.927999    0.858486    3.372085
     55          1           0      -28.048929    0.970150    4.349524
     56          1           0      -27.372172    0.028390    3.039498
     57          1           0      -34.276025   -6.654306    0.286982
     58          1           0      -34.039334   -5.855444    1.920293
     59          1           0      -32.723501   -5.986633    0.685838
     60          1           0      -38.262135   -4.159597   -1.138770
     61          1           0      -38.477577   -3.522496    0.550257
     62          1           0      -38.806604   -5.189297    0.297335
     63          1           0      -38.812020    0.213659   -0.563656
     64          1           0      -37.774720    2.367436   -2.143512
     65          1           0      -38.666404    0.864908   -3.213811
     66          1           0      -39.623174   -0.439925   -2.457150
     67          1           0      -37.925068   -0.810849   -3.020872
     68          1           0      -37.480916    3.592880    0.008555
     69          1           0      -38.240163    2.194000    0.893580
     70          1           0      -39.839273    2.948047   -1.209506
     71          1           0      -39.611618    4.385373   -0.275037
     72          1           0      -40.354853    2.950580    0.510651
     73          1           0      -34.273539    5.681851   -0.695212
     74          1           0      -33.820105    5.520101   -2.342145
     75          1           0      -32.693407    6.226547   -1.054567
     76          1           0      -29.640836    2.996942    1.775549
     77          1           0      -27.897203    1.340430   -2.862227
     78          1           0      -26.860209    1.168051   -1.281888
     79          1           0      -26.840411    2.636957   -2.356621
     80         12           0       33.537418    0.457619   -0.312925
     81          6           0       31.659137   -2.372907    0.345645
     82          6           0       31.134130    2.385939    1.258554
     83          6           0       35.736444    3.018694   -0.309026
     84          6           0       36.010302   -1.724707   -1.561900
     85          7           0       31.739908    0.003329    0.944398
     86          6           0       31.121016   -1.178424    0.871923
     87          6           0       29.818678   -1.153135    1.730388
     88          6           0       29.518424    0.419052    1.780573
     89          6           0       30.865478    1.017076    1.220696
     90          6           0       28.213231    0.807451    1.044961
     91          6           0       30.093029   -1.678989    3.120936
     92          6           0       29.012197   -2.572911    3.708571
     93          1           0       28.613891   -2.541185    5.232210
     94          7           0       33.335876    2.507542    0.249170
     95          6           0       32.339502    3.099401    0.930128
     96          6           0       32.673021    4.480138    1.066118
     97          6           0       33.939005    4.738134    0.458166
     98          6           0       34.405765    3.405347    0.056598
     99          6           0       31.694677    5.469770    1.581664
    100          6           0       34.630347    6.054609    0.495043
    101          8           0       34.073435    7.026380    0.978189
    102          6           0       36.009507    6.250053   -0.123261
    103          7           0       35.646230    0.624489   -0.969860
    104          6           0       36.294249    1.806119   -0.769660
    105          6           0       37.763843    1.645022   -0.986327
    106          6           0       37.835822    0.095550   -1.385475
    107          6           0       36.415043   -0.411564   -1.386620
    108          6           0       38.378425    2.625532   -2.002687
    109          6           0       38.808628   -0.807176   -0.504752
    110          6           0       39.873418   -1.704193   -1.178697
    111          7           0       33.805284   -1.575082   -0.590609
    112          6           0       34.808172   -2.291760   -1.164055
    113          6           0       34.364772   -3.580187   -1.465528
    114          6           0       33.095441   -3.700006   -0.917019
    115          6           0       32.831519   -2.485502   -0.335037
    116          6           0       35.232496   -4.673774   -2.154664
    117          6           0       32.000976   -4.531741   -0.727751
    118          8           0       31.904008   -5.724891   -0.992597
    119          6           0       30.931966   -3.750957    0.178722
    120          6           0       29.718337   -3.514887   -0.516466
    121          8           0       29.435965   -2.694661   -1.393159
    122          8           0       28.799231   -4.423642   -0.001036
    123          6           0       27.433543   -4.462057   -0.495274
    124          1           0       30.315467    3.016982    1.610082
    125          1           0       36.549534    3.745346   -0.374147
    126          1           0       36.809250   -2.290573   -2.045789
    127          1           0       29.074949   -1.769008    1.225513
    128          1           0       29.504129    0.836463    2.786860
    129          1           0       27.773318   -0.043234    0.524840
    130          1           0       28.420604    1.609028    0.335321
    131          1           0       27.531395    1.222544    1.786829
    132          1           0       30.343967   -0.953694    3.895204
    133          1           0       31.056201   -2.181639    3.033106
    134          1           0       29.257975   -3.590792    3.406374
    135          1           0       28.148071   -2.270767    3.116904
    136          1           0       31.286908    5.899750    0.667009
    137          1           0       32.175721    6.217340    2.212698
    138          1           0       30.899655    5.018698    2.175544
    139          1           0       36.716888    5.859994    0.608721
    140          1           0       36.180548    7.326272   -0.121676
    141          1           0       36.070349    5.761976   -1.095893
    142          1           0       38.123416    1.833848    0.024668
    143          1           0       38.286369   -0.044372   -2.368106
    144          1           0       38.944429    3.347764   -1.413437
    145          1           0       37.630741    3.111903   -2.630047
    146          1           0       39.096069    2.094130   -2.627274
    147          1           0       38.196835   -1.482909    0.092733
    148          1           0       39.430327   -0.222537    0.173681
    149          1           0       39.287569   -2.615135   -1.300756
    150          1           0       40.692108   -1.904224   -0.488655
    151          1           0       40.183235   -1.510626   -2.205571
    152          1           0       35.962673   -5.038357   -1.433281
    153          1           0       35.846785   -4.342280   -2.992063
    154          1           0       34.616463   -5.513962   -2.476309
    155          1           0       30.824669   -4.346183    1.085657
    156          1           0       27.094466   -5.493992   -0.409892
    157          1           0       27.284110   -4.024751   -1.482817
    158          1           0       26.812123   -3.924275    0.220917
 ---------------------------------------------------------------------

 SCF Done:  E(RPBE1PBE) =  -4067.30565356     A.U. after   15 cycles

 Excitation energies and oscillator strengths:

 Excited State   1:      Singlet-A      1.8605 eV  666.39 nm  f=0.3810  <S**2>=0.000
     309 -> 316       -0.17802
     311 -> 313        0.69229
     311 <- 313       -0.11025
 This state for optimization and/or second-order correction.
 Total Energy, E(TD-HF/TD-DFT) =  -4067.23728011
 Copying the excited state density for this state as the 1-particle RhoCI density.

 Excited State   2:      Singlet-A      1.8703 eV  662.91 nm  f=0.3476  <S**2>=0.000
     310 -> 315       -0.19148
     312 -> 314        0.68643

 Excited State   3:      Singlet-A      1.9784 eV  626.69 nm  f=0.0000  <S**2>=0.000
     312 -> 313        0.70711

 Excited State   4:      Singlet-A      2.0888 eV  593.57 nm  f=0.0000  <S**2>=0.000
     311 -> 314        0.70711

 Excited State   5:      Singlet-A      2.2322 eV  555.44 nm  f=0.0732  <S**2>=0.000
     308 -> 314        0.10213
     310 -> 314        0.63201
     312 -> 315        0.29400

 The electronic state is 1-A.
 Alpha  occ. eigenvalues --  -46.94139 -46.93060 -19.25260 -19.24379 -19.20336
 Alpha  occ. eigenvalues --  -19.20334 -19.19510 -19.18933 -19.18600 -19.18183
 Alpha  occ. eigenvalues --  -14.42082 -14.41875 -14.41639 -14.41500 -14.40327
 Alpha  occ. eigenvalues --  -14.39464 -14.38912 -14.38875 -10.36513 -10.36461
 Alpha  occ. eigenvalues --  -10.32356 -10.31974 -10.31781 -10.30705 -10.29929
 Alpha  occ. eigenvalues --  -10.29560 -10.29467 -10.29269 -10.29145 -10.29077
 Alpha  occ. eigenvalues --  -10.29040 -10.28870 -10.28867 -10.28788 -10.28770
 Alpha  occ. eigenvalues --  -10.28622 -10.28003 -10.27480 -10.27247 -10.27151
 Alpha  occ. eigenvalues --  -10.27132 -10.27114 -10.26680 -10.26662 -10.26650
 Alpha  occ. eigenvalues --  -10.26327 -10.26306 -10.26201 -10.26198 -10.26145
 Alpha  occ. eigenvalues --  -10.26123 -10.26117 -10.26006 -10.25998 -10.25982
 Alpha  occ. eigenvalues --  -10.25968 -10.25967 -10.25953 -10.25820 -10.25658
 Alpha  occ. eigenvalues --  -10.25472 -10.25455 -10.25072 -10.25069 -10.25051
 Alpha  occ. eigenvalues --  -10.24655 -10.24620 -10.24528 -10.24459 -10.24435
 Alpha  occ. eigenvalues --  -10.24411 -10.24367 -10.24355 -10.24101 -10.23957
 Alpha  occ. eigenvalues --  -10.23950 -10.23753 -10.23634 -10.23512 -10.23353
 Alpha  occ. eigenvalues --  -10.23348 -10.23305 -10.23305 -10.23084 -10.22531
 Alpha  occ. eigenvalues --  -10.22389  -3.16132  -3.14969  -1.88913  -1.88557
 Alpha  occ. eigenvalues --   -1.88318  -1.87822  -1.87338  -1.87184  -1.10428
 Alpha  occ. eigenvalues --   -1.08671  -1.05108  -1.04789  -1.04750  -1.03799
 Alpha  occ. eigenvalues --   -1.02261  -1.01184  -1.00192  -0.99568  -0.98706
 Alpha  occ. eigenvalues --   -0.98479  -0.98008  -0.97898  -0.97307  -0.95843
 Alpha  occ. eigenvalues --   -0.88274  -0.87317  -0.83808  -0.83384  -0.83255
 Alpha  occ. eigenvalues --   -0.83202  -0.82776  -0.82688  -0.82242  -0.81273
 Alpha  occ. eigenvalues --   -0.81238  -0.81125  -0.80553  -0.80351  -0.79714
 Alpha  occ. eigenvalues --   -0.79238  -0.78900  -0.78123  -0.77930  -0.77327
 Alpha  occ. eigenvalues --   -0.76838  -0.76471  -0.75826  -0.75534  -0.75087
 Alpha  occ. eigenvalues --   -0.74238  -0.72521  -0.72518  -0.71929  -0.71671
 Alpha  occ. eigenvalues --   -0.71320  -0.70869  -0.70784  -0.70139  -0.69614
 Alpha  occ. eigenvalues --   -0.69534  -0.67933  -0.67343  -0.66871  -0.66386
 Alpha  occ. eigenvalues --   -0.64325  -0.63661  -0.63506  -0.63046  -0.62545
 Alpha  occ. eigenvalues --   -0.62159  -0.61769  -0.61385  -0.60555  -0.60327
 Alpha  occ. eigenvalues --   -0.60058  -0.60016  -0.59840  -0.59477  -0.59422
 Alpha  occ. eigenvalues --   -0.58610  -0.57235  -0.56405  -0.55052  -0.54886
 Alpha  occ. eigenvalues --   -0.54509  -0.54431  -0.53779  -0.53704  -0.53517
 Alpha  occ. eigenvalues --   -0.53507  -0.52824  -0.52617  -0.51855  -0.51550
 Alpha  occ. eigenvalues --   -0.51220  -0.50940  -0.50654  -0.50278  -0.50093
 Alpha  occ. eigenvalues --   -0.49366  -0.49358  -0.48916  -0.48738  -0.48429
 Alpha  occ. eigenvalues --   -0.48302  -0.48228  -0.48121  -0.47988  -0.47854
 Alpha  occ. eigenvalues --   -0.47472  -0.47164  -0.47121  -0.46904  -0.46720
 Alpha  occ. eigenvalues --   -0.46602  -0.46515  -0.46413  -0.46350  -0.46101
 Alpha  occ. eigenvalues --   -0.45915  -0.45849  -0.45597  -0.45244  -0.45005
 Alpha  occ. eigenvalues --   -0.44721  -0.44536  -0.44517  -0.44498  -0.44245
 Alpha  occ. eigenvalues --   -0.44076  -0.44063  -0.43875  -0.43710  -0.43669
 Alpha  occ. eigenvalues --   -0.43626  -0.43306  -0.43039  -0.43034  -0.42946
 Alpha  occ. eigenvalues --   -0.42851  -0.42636  -0.42409  -0.42204  -0.41873
 Alpha  occ. eigenvalues --   -0.41596  -0.41513  -0.41465  -0.41417  -0.41330
 Alpha  occ. eigenvalues --   -0.41142  -0.40914  -0.40832  -0.40679  -0.40608
 Alpha  occ. eigenvalues --   -0.40526  -0.40229  -0.40162  -0.40088  -0.39789
 Alpha  occ. eigenvalues --   -0.39752  -0.39498  -0.39488  -0.39298  -0.39276
 Alpha  occ. eigenvalues --   -0.39152  -0.38940  -0.38731  -0.38699  -0.38484
 Alpha  occ. eigenvalues --   -0.38450  -0.38263  -0.38053  -0.37967  -0.37786
 Alpha  occ. eigenvalues --   -0.37413  -0.37364  -0.37149  -0.37033  -0.36877
 Alpha  occ. eigenvalues --   -0.36848  -0.36796  -0.36740  -0.36676  -0.36377
 Alpha  occ. eigenvalues --   -0.36369  -0.36170  -0.35876  -0.35204  -0.35187
 Alpha  occ. eigenvalues --   -0.35065  -0.34845  -0.34646  -0.34264  -0.33807
 Alpha  occ. eigenvalues --   -0.33260  -0.33170  -0.32963  -0.32885  -0.32562
 Alpha  occ. eigenvalues --   -0.32419  -0.32241  -0.32167  -0.31352  -0.31146
 Alpha  occ. eigenvalues --   -0.30687  -0.30260  -0.29807  -0.29673  -0.29552
 Alpha  occ. eigenvalues --   -0.29229  -0.29039  -0.28415  -0.27437  -0.27113
 Alpha  occ. eigenvalues --   -0.26659  -0.26414  -0.26080  -0.25919  -0.25495
 Alpha  occ. eigenvalues --   -0.25169  -0.25087  -0.24439  -0.21503  -0.21386
 Alpha  occ. eigenvalues --   -0.19208  -0.19113
 Alpha virt. eigenvalues --   -0.11645  -0.11335  -0.06114  -0.05761  -0.04400
 Alpha virt. eigenvalues --   -0.04379  -0.02423  -0.02156  -0.02097  -0.00420
 Alpha virt. eigenvalues --   -0.00207   0.00090   0.00136   0.00486   0.01375

 Mulliken charges:
               1
     1  Mg  11.999972
     2  C    6.000209
     3  C    5.999975
     4  C    5.999641
     5  C    6.000151
     6  N    7.000108
     7  C    5.999673
     8  C    6.000076
     9  C    5.999960
    10  C    6.000274
    11  C    5.999926
    12  C    6.000001
    13  C    6.000020
    14  H    0.999931
    15  N    6.999963
    16  C    6.000305
    17  C    6.000248
    18  C    6.000005
    19  C    6.000427
    20  C    5.999945
    21  C    6.000142
    22  O    8.000173
    23  C    5.999951
    24  N    6.999980
    25  C    6.000413
    26  C    5.999881
    27  C    6.000047
    28  C    5.999690
    29  C    5.999995
    30  C    6.000031
    31  C    5.999989
    32  N    7.000027
    33  C    5.999740
    34  C    5.999563
    35  C    6.000120
    36  C    5.999573
    37  C    6.000037
    38  C    5.999840
    39  O    7.999726
    40  C    6.000012
    41  C    5.999962
    42  O    7.999912
    43  O    8.000030
    44  C    6.000019
    45  H    1.000131
    46  H    1.000072
    47  H    0.999904
    48  H    1.000007
    49  H    0.999998
    50  H    1.000067
    51  H    1.000130
    52  H    0.999976
    53  H    0.999922
    54  H    1.000064
    55  H    1.000015
    56  H    1.000008
    57  H    1.000153
    58  H    1.000173
    59  H    1.000156
    60  H    1.000085
    61  H    1.000101
    62  H    1.000106
    63  H    1.000043
    64  H    1.000028
    65  H    1.000097
    66  H    1.000002
    67  H    0.999974
    68  H    1.000063
    69  H    0.999911
    70  H    0.999958
    71  H    1.000000
    72  H    0.999948
    73  H    0.999796
    74  H    0.999797
    75  H    0.999857
    76  H    0.999922
    77  H    0.999962
    78  H    0.999940
    79  H    0.999973
    80  Mg  12.002431
    81  C    6.001439
    82  C    5.973962
    83  C    5.992481
    84  C    6.022785
    85  N    6.986330
    86  C    5.981429
    87  C    6.007214
    88  C    5.990848
    89  C    6.037915
    90  C    5.999555
    91  C    6.000724
    92  C    6.002516
    93  H    0.990850
    94  N    6.998219
    95  C    6.042056
    96  C    6.023180
    97  C    6.010486
    98  C    6.033381
    99  C    5.995729
   100  C    6.009759
   101  O    8.017213
   102  C    5.997755
   103  N    7.008000
   104  C    6.026410
   105  C    5.990325
   106  C    6.008928
   107  C    5.966616
   108  C    5.996570
   109  C    6.002273
   110  C    5.997647
   111  N    6.997316
   112  C    5.969637
   113  C    5.970381
   114  C    5.996164
   115  C    5.981585
   116  C    5.998845
   117  C    5.982754
   118  O    7.968523
   119  C    5.995766
   120  C    5.998866
   121  O    7.989041
   122  O    7.998130
   123  C    6.003437
   124  H    1.005074
   125  H    1.011323
   126  H    0.994306
   127  H    1.001717
   128  H    0.999210
   129  H    1.011132
   130  H    0.995719
   131  H    1.001288
   132  H    0.989281
   133  H    1.005977
   134  H    1.004666
   135  H    0.996389
   136  H    1.021050
   137  H    1.016753
   138  H    1.020774
   139  H    1.009422
   140  H    1.012164
   141  H    1.007488
   142  H    0.999477
   143  H    0.999354
   144  H    0.999201
   145  H    0.998998
   146  H    1.010981
   147  H    1.004804
   148  H    0.990818
   149  H    1.007257
   150  H    0.997383
   151  H    0.997444
   152  H    0.980870
   153  H    0.980775
   154  H    0.988916
   155  H    0.990528
   156  H    0.996090
   157  H    0.995622
   158  H    0.992283
 Sum of Mulliken charges = 624.00000

 Dipole moment (field-independent basis, Debye):
    X=              0.4318    Y=             10.2198    Z=              1.8339  Tot=             10.3920
 Quadrupole moment (field-independent basis, Debye-Ang):
   XX=             29.5748   YY=              9.3313   ZZ=             -2.0790
   XY=            346.6424   XZ=             61.0755   YZ=             -0.8452

 Normal termination of Gaussian 16 at Fri Oct 15 07:23:05 2021.
