 Gaussian 16, Revision A.03,
 Gaussian 16:  ES64L-G16RevA.03 25-Dec-2016

 --------------------------------------------------------
 #p PBE1PBE/Def2SVP td=(nstates=5) density=(transition=1)
 --------------------------------------------------------

 --------------------------------
 TDDFT excited states in gaussian
 --------------------------------
 Symbolic Z-matrix:
 Charge =  0 Multiplicity = 1

                         Standard orientation:
 ---------------------------------------------------------------------
 Center     Atomic      Atomic             Coordinates (Angstroms)
 Number     Number       Type             X           Y           Z
 ---------------------------------------------------------------------
      1         12           0      -11.771052    0.169996   -0.572079
      2          6           0       -8.636158   -1.279020    0.668248
      3          6           0      -13.249723   -2.694592    0.687824
      4          6           0      -14.523929    1.778292   -0.642227
      5          6           0       -9.814269    3.095612   -1.295637
      6          7           0      -10.953143   -1.757059    0.721081
      7          6           0       -9.675865   -2.126170    1.082441
      8          6           0       -9.738655   -3.434564    1.952460
      9          6           0      -11.149116   -3.996375    1.703113
     10          6           0      -11.827742   -2.758949    1.001604
     11          6           0      -11.303043   -5.277523    0.782323
     12          6           0       -9.382510   -3.205871    3.461349
     13          6           0       -8.556049   -4.284215    4.128393
     14          1           0       -9.319987   -5.282025    5.054317
     15          7           0      -13.627007   -0.394066   -0.178923
     16          6           0      -14.080304   -1.621380    0.222013
     17          6           0      -15.563207   -1.594893    0.348865
     18          6           0      -15.924092   -0.272460   -0.018824
     19          6           0      -14.670705    0.439300   -0.256229
     20          6           0      -16.472511   -2.727835    0.852177
     21          6           0      -17.297804    0.399116    0.065041
     22          8           0      -18.248418   -0.306285    0.391920
     23          6           0      -17.554813    1.752263   -0.235176
     24          7           0      -12.074007    2.267053   -0.669454
     25          6           0      -13.390629    2.585323   -0.937256
     26          6           0      -13.446213    4.097402   -1.384285
     27          6           0      -11.951413    4.568466   -1.278916
     28          6           0      -11.230739    3.203201   -1.171285
     29          6           0      -14.081111    4.365384   -2.776446
     30          6           0      -11.548457    5.583135   -0.134189
     31          6           0      -11.857020    7.075166   -0.348409
     32          7           0       -9.667336    0.852942   -0.438348
     33          6           0       -9.048430    2.000861   -0.891353
     34          6           0       -7.610830    1.901371   -0.819099
     35          6           0       -7.400473    0.603910   -0.218496
     36          6           0       -8.662708   -0.022885    0.070509
     37          6           0       -6.670343    2.998455   -1.212631
     38          6           0       -6.407966   -0.244712    0.270461
     39          8           0       -5.210652   -0.064201    0.446579
     40          6           0       -7.132465   -1.426939    0.976968
     41          6           0       -6.579172   -2.663815    0.308554
     42          8           0       -6.152057   -3.639205    0.931270
     43          8           0       -6.729908   -2.713858   -1.135673
     44          6           0       -6.515407   -4.056671   -1.672671
     45          1           0      -13.733935   -3.618383    1.009719
     46          1           0      -15.388980    2.399103   -0.884559
     47          1           0       -9.354185    4.024935   -1.637638
     48          1           0       -9.106151   -4.189926    1.483946
     49          1           0      -11.700336   -4.135289    2.633139
     50          1           0      -11.532396   -6.086489    1.475595
     51          1           0      -10.359692   -5.531397    0.299728
     52          1           0      -12.026597   -5.191047   -0.028223
     53          1           0      -10.239946   -3.196536    4.134753
     54          1           0       -8.805410   -2.288472    3.579243
     55          1           0       -7.728519   -3.783061    4.630561
     56          1           0       -8.119246   -4.896807    3.339059
     57          1           0      -17.383524   -2.762706    0.254140
     58          1           0      -16.630950   -2.485995    1.903070
     59          1           0      -15.997175   -3.698820    0.719899
     60          1           0      -17.386085    1.897975   -1.302611
     61          1           0      -17.014740    2.469698    0.382726
     62          1           0      -18.588376    1.841359    0.101104
     63          1           0      -14.015299    4.733836   -0.707475
     64          1           0      -11.596752    4.977356   -2.224716
     65          1           0      -13.310997    4.888503   -3.343511
     66          1           0      -14.947105    5.011815   -2.637481
     67          1           0      -14.329090    3.366619   -3.137796
     68          1           0      -10.469280    5.450316   -0.051116
     69          1           0      -12.082037    5.360223    0.790006
     70          1           0      -12.246196    7.054369   -1.366758
     71          1           0      -10.940307    7.663338   -0.410318
     72          1           0      -12.571795    7.537646    0.331829
     73          1           0       -6.962891    3.856327   -0.608603
     74          1           0       -6.806986    3.341597   -2.237990
     75          1           0       -5.643126    2.809599   -0.900538
     76          1           0       -6.803031   -1.422145    2.015804
     77          1           0       -7.124383   -3.911864   -2.565820
     78          1           0       -6.757578   -4.833831   -0.947806
     79          1           0       -5.478295   -4.088745   -2.006773
     80         12           0       11.211668    0.830279   -0.131591
     81          6           0       10.593836   -2.600668   -0.547729
     82          6           0        7.853976    1.322860    0.028408
     83          6           0       11.948635    3.910610    0.683784
     84          6           0       14.617214   -0.153623    0.501337
     85          7           0        9.475720   -0.483077   -0.315875
     86          6           0        9.445576   -1.841377   -0.460603
     87          6           0        8.010010   -2.320221   -0.197538
     88          6           0        7.194944   -1.089796   -0.580178
     89          6           0        8.220076   -0.014802   -0.170996
     90          6           0        6.871875   -1.027718   -2.090943
     91          6           0        7.807311   -2.728504    1.308480
     92          6           0        7.525987   -4.273602    1.650125
     93          1           0        8.518938   -5.033623    2.545942
     94          7           0       10.065222    2.388754    0.353809
     95          6           0        8.689435    2.408299    0.341856
     96          6           0        8.261482    3.755410    0.555365
     97          6           0        9.412010    4.607602    0.638036
     98          6           0       10.562375    3.660584    0.568062
     99          6           0        6.754242    4.177604    0.632084
    100          6           0        9.364277    6.174722    0.749593
    101          8           0        8.321041    6.747633    0.675230
    102          6           0       10.619014    6.911628    0.660626
    103          7           0       12.974526    1.693387    0.813117
    104          6           0       13.051735    3.036423    0.657291
    105          6           0       14.477661    3.542096    0.516030
    106          6           0       15.314430    2.311463    0.830641
    107          6           0       14.234567    1.179850    0.717553
    108          6           0       14.785050    4.120181   -0.914773
    109          6           0       16.129267    2.240611    2.206931
    110          6           0       17.628854    2.361803    2.253026
    111          7           0       12.425807   -0.916713   -0.230545
    112          6           0       13.775150   -1.169885    0.047732
    113          6           0       14.090720   -2.576722   -0.074106
    114          6           0       12.874714   -3.159612   -0.333616
    115          6           0       11.861396   -2.147577   -0.402702
    116          6           0       15.417846   -3.177469    0.137451
    117          6           0       12.217858   -4.435411   -0.573567
    118          8           0       12.709239   -5.564166   -0.696833
    119          6           0       10.758723   -4.119806   -0.826808
    120          6           0       10.439069   -4.568818   -2.248516
    121          8           0       11.057511   -4.113175   -3.207735
    122          8           0        9.495558   -5.607822   -2.262808
    123          6           0        9.172114   -6.104379   -3.573583
    124          1           0        6.777349    1.466153   -0.081901
    125          1           0       12.159833    4.979720    0.630164
    126          1           0       15.671338   -0.426855    0.585195
    127          1           0        7.879752   -3.242912   -0.763579
    128          1           0        6.281159   -1.093135    0.012726
    129          1           0        5.800535   -0.843371   -2.019340
    130          1           0        7.125949   -2.018935   -2.467542
    131          1           0        7.387630   -0.264837   -2.674255
    132          1           0        6.928630   -2.195016    1.670779
    133          1           0        8.651021   -2.333066    1.873506
    134          1           0        7.579123   -4.791661    0.692281
    135          1           0        6.530605   -4.478500    2.042437
    136          1           0        6.437437    4.792652    1.473806
    137          1           0        6.191135    3.244252    0.662510
    138          1           0        6.422268    4.714625   -0.256637
    139          1           0       11.352439    6.645383    1.422056
    140          1           0       10.397850    7.975891    0.740999
    141          1           0       10.999568    6.882045   -0.359434
    142          1           0       14.692756    4.380359    1.179556
    143          1           0       16.020750    2.118701    0.023124
    144          1           0       14.724631    5.207303   -0.962965
    145          1           0       14.182375    3.595941   -1.656415
    146          1           0       15.820134    3.863871   -1.145145
    147          1           0       15.850987    1.473108    2.928346
    148          1           0       15.720313    3.166582    2.612079
    149          1           0       17.976810    3.267210    2.749279
    150          1           0       18.024431    2.380698    1.237228
    151          1           0       17.954416    1.466999    2.783035
    152          1           0       15.976468   -2.520285    0.804452
    153          1           0       15.905400   -3.155385   -0.837592
    154          1           0       15.339083   -4.210038    0.474504
    155          1           0       10.252382   -4.766302   -0.111315
    156          1           0        8.501698   -5.465120   -4.148651
    157          1           0        8.700670   -7.085549   -3.525057
    158          1           0       10.035774   -6.272061   -4.216499
 ---------------------------------------------------------------------

 SCF Done:  E(RPBE1PBE) =  -4067.33162696     A.U. after   17 cycles

 Excitation energies and oscillator strengths:

 Excited State   1:      Singlet-A      1.7765 eV  697.92 nm  f=0.0000  <S**2>=0.000
     312 -> 313        0.70707
 This state for optimization and/or second-order correction.
 Total Energy, E(TD-HF/TD-DFT) =  -4067.26634244
 Copying the excited state density for this state as the 1-particle RhoCI density.

 Excited State   2:      Singlet-A      1.8688 eV  663.43 nm  f=0.4211  <S**2>=0.000
     309 -> 315       -0.17945
     311 -> 313        0.64517
     312 -> 314       -0.23633

 Excited State   3:      Singlet-A      1.8795 eV  659.67 nm  f=0.2840  <S**2>=0.000
     310 -> 316        0.17277
     311 -> 313        0.23454
     312 -> 314        0.64829

 Excited State   4:      Singlet-A      2.1359 eV  580.47 nm  f=0.0000  <S**2>=0.000
     311 -> 314        0.70709

 Excited State   5:      Singlet-A      2.2321 eV  555.47 nm  f=0.0724  <S**2>=0.000
     308 -> 313       -0.10198
     309 -> 313        0.63210
     311 -> 315        0.29390

 The electronic state is 1-A.
 Alpha  occ. eigenvalues --  -46.94173 -46.91901 -19.26489 -19.24448 -19.20602
 Alpha  occ. eigenvalues --  -19.20400 -19.19149 -19.18960 -19.18752 -19.18236
 Alpha  occ. eigenvalues --  -14.42117 -14.41672 -14.41471 -14.41405 -14.40360
 Alpha  occ. eigenvalues --  -14.38949 -14.38899 -14.38823 -10.37089 -10.36526
 Alpha  occ. eigenvalues --  -10.32056 -10.32001 -10.31476 -10.30757 -10.29961
 Alpha  occ. eigenvalues --  -10.29597 -10.29505 -10.29112 -10.28901 -10.28822
 Alpha  occ. eigenvalues --  -10.28713 -10.28698 -10.28543 -10.28339 -10.28227
 Alpha  occ. eigenvalues --  -10.28143 -10.28079 -10.27282 -10.27265 -10.27190
 Alpha  occ. eigenvalues --  -10.27165 -10.27105 -10.26717 -10.26702 -10.26689
 Alpha  occ. eigenvalues --  -10.26566 -10.26224 -10.26162 -10.26051 -10.26040
 Alpha  occ. eigenvalues --  -10.26020 -10.25992 -10.25859 -10.25844 -10.25802
 Alpha  occ. eigenvalues --  -10.25792 -10.25481 -10.25461 -10.25417 -10.25208
 Alpha  occ. eigenvalues --  -10.25104 -10.25103 -10.25083 -10.24688 -10.24644
 Alpha  occ. eigenvalues --  -10.24573 -10.24547 -10.24472 -10.24449 -10.24383
 Alpha  occ. eigenvalues --  -10.24339 -10.24325 -10.24244 -10.24125 -10.23985
 Alpha  occ. eigenvalues --  -10.23946 -10.23791 -10.23536 -10.23495 -10.23461
 Alpha  occ. eigenvalues --  -10.23318 -10.23206 -10.23124 -10.23000 -10.22790
 Alpha  occ. eigenvalues --  -10.22603  -3.16166  -3.14090  -1.88948  -1.88592
 Alpha  occ. eigenvalues --   -1.88353  -1.86904  -1.86479  -1.86313  -1.10531
 Alpha  occ. eigenvalues --   -1.08738  -1.06543  -1.05135  -1.03853  -1.03612
 Alpha  occ. eigenvalues --   -1.02825  -1.01252  -0.99602  -0.99189  -0.98718
 Alpha  occ. eigenvalues --   -0.98040  -0.97935  -0.97315  -0.96603  -0.95880
 Alpha  occ. eigenvalues --   -0.87360  -0.87196  -0.83303  -0.83287  -0.83236
 Alpha  occ. eigenvalues --   -0.83042  -0.82805  -0.82686  -0.81748  -0.81307
 Alpha  occ. eigenvalues --   -0.81271  -0.81156  -0.80388  -0.79270  -0.79148
 Alpha  occ. eigenvalues --   -0.78681  -0.78363  -0.78149  -0.77963  -0.76875
 Alpha  occ. eigenvalues --   -0.76624  -0.76579  -0.75570  -0.75202  -0.75000
 Alpha  occ. eigenvalues --   -0.74286  -0.72552  -0.72182  -0.71703  -0.71357
 Alpha  occ. eigenvalues --   -0.71355  -0.70542  -0.70365  -0.70191  -0.69653
 Alpha  occ. eigenvalues --   -0.69259  -0.67380  -0.67134  -0.66423  -0.66415
 Alpha  occ. eigenvalues --   -0.63536  -0.63263  -0.63074  -0.62841  -0.62274
 Alpha  occ. eigenvalues --   -0.62196  -0.61419  -0.61049  -0.60096  -0.60052
 Alpha  occ. eigenvalues --   -0.59898  -0.59873  -0.59509  -0.59220  -0.58850
 Alpha  occ. eigenvalues --   -0.58647  -0.57103  -0.56469  -0.54918  -0.54569
 Alpha  occ. eigenvalues --   -0.54469  -0.54431  -0.53817  -0.53565  -0.53549
 Alpha  occ. eigenvalues --   -0.53300  -0.52784  -0.52113  -0.51893  -0.51580
 Alpha  occ. eigenvalues --   -0.51274  -0.50675  -0.50495  -0.50314  -0.49626
 Alpha  occ. eigenvalues --   -0.49406  -0.49221  -0.48768  -0.48464  -0.48416
 Alpha  occ. eigenvalues --   -0.48341  -0.48156  -0.47985  -0.47901  -0.47533
 Alpha  occ. eigenvalues --   -0.47504  -0.47409  -0.47260  -0.47157  -0.47004
 Alpha  occ. eigenvalues --   -0.46645  -0.46566  -0.46454  -0.46148  -0.45958
 Alpha  occ. eigenvalues --   -0.45632  -0.45411  -0.45318  -0.45270  -0.44962
 Alpha  occ. eigenvalues --   -0.44577  -0.44557  -0.44537  -0.44254  -0.44091
 Alpha  occ. eigenvalues --   -0.43982  -0.43917  -0.43724  -0.43664  -0.43478
 Alpha  occ. eigenvalues --   -0.43334  -0.43104  -0.43071  -0.42897  -0.42848
 Alpha  occ. eigenvalues --   -0.42676  -0.42568  -0.42451  -0.42054  -0.41905
 Alpha  occ. eigenvalues --   -0.41696  -0.41502  -0.41178  -0.41128  -0.40956
 Alpha  occ. eigenvalues --   -0.40865  -0.40813  -0.40670  -0.40646  -0.40505
 Alpha  occ. eigenvalues --   -0.40200  -0.39938  -0.39835  -0.39783  -0.39534
 Alpha  occ. eigenvalues --   -0.39320  -0.39192  -0.39055  -0.38971  -0.38899
 Alpha  occ. eigenvalues --   -0.38833  -0.38765  -0.38517  -0.38468  -0.38189
 Alpha  occ. eigenvalues --   -0.38093  -0.37964  -0.37687  -0.37444  -0.37396
 Alpha  occ. eigenvalues --   -0.37218  -0.37193  -0.37072  -0.36886  -0.36856
 Alpha  occ. eigenvalues --   -0.36790  -0.36660  -0.36413  -0.36382  -0.36270
 Alpha  occ. eigenvalues --   -0.36207  -0.35802  -0.35625  -0.35373  -0.35212
 Alpha  occ. eigenvalues --   -0.35121  -0.35104  -0.34867  -0.34723  -0.34301
 Alpha  occ. eigenvalues --   -0.33836  -0.33742  -0.32916  -0.32801  -0.32597
 Alpha  occ. eigenvalues --   -0.32262  -0.32203  -0.31889  -0.31529  -0.31403
 Alpha  occ. eigenvalues --   -0.31389  -0.30329  -0.29735  -0.29716  -0.29530
 Alpha  occ. eigenvalues --   -0.29266  -0.28835  -0.28467  -0.27149  -0.26779
 Alpha  occ. eigenvalues --   -0.26692  -0.26107  -0.25953  -0.25681  -0.25410
 Alpha  occ. eigenvalues --   -0.25220  -0.25085  -0.24483  -0.21421  -0.21107
 Alpha  occ. eigenvalues --   -0.19148  -0.18492
 Alpha virt. eigenvalues --   -0.11371  -0.10703  -0.06148  -0.05469  -0.04417
 Alpha virt. eigenvalues --   -0.03529  -0.02460  -0.02191  -0.01709  -0.00705
 Alpha virt. eigenvalues --   -0.00178   0.00050   0.00079   0.00945   0.01339

 Mulliken charges:
               1
     1  Mg  12.000000
     2  C    6.000000
     3  C    6.000000
     4  C    6.000000
     5  C    6.000000
     6  N    7.000000
     7  C    6.000000
     8  C    6.000000
     9  C    6.000000
    10  C    6.000000
    11  C    6.000000
    12  C    6.000000
    13  C    6.000000
    14  H    1.000000
    15  N    7.000000
    16  C    6.000000
    17  C    6.000000
    18  C    6.000000
    19  C    6.000000
    20  C    6.000000
    21  C    6.000000
    22  O    8.000000
    23  C    6.000000
    24  N    7.000000
    25  C    6.000000
    26  C    6.000000
    27  C    6.000000
    28  C    6.000000
    29  C    6.000000
    30  C    6.000000
    31  C    6.000000
    32  N    7.000000
    33  C    6.000000
    34  C    6.000000
    35  C    6.000000
    36  C    6.000000
    37  C    6.000000
    38  C    6.000000
    39  O    8.000000
    40  C    6.000000
    41  C    6.000000
    42  O    8.000000
    43  O    8.000000
    44  C    6.000000
    45  H    1.000000
    46  H    1.000000
    47  H    1.000000
    48  H    1.000000
    49  H    1.000000
    50  H    1.000000
    51  H    1.000000
    52  H    1.000000
    53  H    1.000000
    54  H    1.000000
    55  H    1.000000
    56  H    1.000000
    57  H    1.000000
    58  H    1.000000
    59  H    1.000000
    60  H    1.000000
    61  H    1.000000
    62  H    1.000000
    63  H    1.000000
    64  H    1.000000
    65  H    1.000000
    66  H    1.000000
    67  H    1.000000
    68  H    1.000000
    69  H    1.000000
    70  H    1.000000
    71  H    1.000000
    72  H    1.000000
    73  H    1.000000
    74  H    1.000000
    75  H    1.000000
    76  H    1.000000
    77  H    1.000000
    78  H    1.000000
    79  H    1.000000
    80  Mg  12.000000
    81  C    6.000000
    82  C    6.000000
    83  C    6.000000
    84  C    6.000000
    85  N    7.000000
    86  C    6.000000
    87  C    6.000000
    88  C    6.000000
    89  C    6.000000
    90  C    6.000000
    91  C    6.000000
    92  C    6.000000
    93  H    1.000000
    94  N    7.000000
    95  C    6.000000
    96  C    6.000000
    97  C    6.000000
    98  C    6.000000
    99  C    6.000000
   100  C    6.000000
   101  O    8.000000
   102  C    6.000000
   103  N    7.000000
   104  C    6.000000
   105  C    6.000000
   106  C    6.000000
   107  C    6.000000
   108  C    6.000000
   109  C    6.000000
   110  C    6.000000
   111  N    7.000000
   112  C    6.000000
   113  C    6.000000
   114  C    6.000000
   115  C    6.000000
   116  C    6.000000
   117  C    6.000000
   118  O    8.000000
   119  C    6.000000
   120  C    6.000000
   121  O    8.000000
   122  O    8.000000
   123  C    6.000000
   124  H    1.000000
   125  H    1.000000
   126  H    1.000000
   127  H    1.000000
   128  H    1.000000
   129  H    1.000000
   130  H    1.000000
   131  H    1.000000
   132  H    1.000000
   133  H    1.000000
   134  H    1.000000
   135  H    1.000000
   136  H    1.000000
   137  H    1.000000
   138  H    1.000000
   139  H    1.000000
   140  H    1.000000
   141  H    1.000000
   142  H    1.000000
   143  H    1.000000
   144  H    1.000000
   145  H    1.000000
   146  H    1.000000
   147  H    1.000000
   148  H    1.000000
   149  H    1.000000
   150  H    1.000000
   151  H    1.000000
   152  H    1.000000
   153  H    1.000000
   154  H    1.000000
   155  H    1.000000
   156  H    1.000000
   157  H    1.000000
   158  H    1.000000
 Sum of Mulliken charges = 624.00000

 Dipole moment (field-independent basis, Debye):
    X=              0.0000    Y=              0.0000    Z=              0.0000  Tot=              0.0000
 Quadrupole moment (field-independent basis, Debye-Ang):
   XX=             -0.0000   YY=              0.0000   ZZ=             -0.0000
   XY=              0.0000   XZ=             -0.0000   YZ=              0.0000

 Normal termination of Gaussian 16 at Fri Oct 15 08:57:59 2021.
