 Gaussian 16, Revision A.03,
 Gaussian 16:  ES64L-G16RevA.03 25-Dec-2016

 --------------------------------------------------------
 #p PBE1PBE/Def2SVP td=(nstates=5) density=(transition=1)
 --------------------------------------------------------

 --------------------------------
 TDDFT excited states in gaussian
 --------------------------------
 Symbolic Z-matrix:
 Charge =  0 Multiplicity = 1

                         Standard orientation:
 ---------------------------------------------------------------------
 Center     Atomic      Atomic             Coordinates (Angstroms)
 Number     Number       Type             X           Y           Z
 ---------------------------------------------------------------------
      1         12           0       20.983548    0.283760    0.166913
      2          6           0       18.020764   -1.558058   -0.117497
      3          6           0       22.466022   -2.254128   -1.655742
      4          6           0       23.768014    2.122570    0.080096
      5          6           0       19.133472    3.055554    1.222734
      6          7           0       20.168187   -1.690737   -0.983944
      7          6           0       18.957450   -2.258637   -0.824325
      8          6           0       18.806419   -3.573497   -1.550933
      9          6           0       20.345921   -3.847430   -1.749493
     10          6           0       21.080720   -2.532491   -1.510031
     11          6           0       20.838910   -4.882452   -0.703316
     12          6           0       17.882179   -3.436575   -2.767489
     13          6           0       17.960641   -2.175554   -3.653012
     14          1           0       18.049311   -2.420052   -5.154758
     15          7           0       22.836413   -0.015181   -0.646893
     16          6           0       23.260440   -1.172700   -1.243944
     17          6           0       24.728842   -1.201633   -1.235016
     18          6           0       25.165728    0.136362   -0.877582
     19          6           0       23.893882    0.792696   -0.446233
     20          6           0       25.563880   -2.367066   -1.890898
     21          6           0       26.593186    0.685308   -0.941541
     22          8           0       27.516383   -0.040786   -1.184959
     23          6           0       26.854065    2.135351   -0.652075
     24          7           0       21.309887    2.419459    0.407417
     25          6           0       22.608487    2.960934    0.435468
     26          6           0       22.631367    4.494523    0.843967
     27          6           0       21.102995    4.727384    1.266399
     28          6           0       20.461574    3.291188    0.989186
     29          6           0       23.691526    5.031684    1.929937
     30          6           0       20.317286    5.923422    0.558487
     31          6           0       19.254760    6.579777    1.571524
     32          7           0       18.978442    0.721433    0.561175
     33          6           0       18.397977    1.865252    1.070423
     34          6           0       16.983401    1.613942    1.317589
     35          6           0       16.741758    0.266756    0.943885
     36          6           0       17.989227   -0.217703    0.407915
     37          6           0       16.016341    2.535406    2.013706
     38          6           0       15.753981   -0.843720    0.746510
     39          8           0       14.550917   -0.853923    0.883020
     40          6           0       16.591492   -2.035587    0.114900
     41          6           0       16.511718   -3.178905    1.088820
     42          8           0       15.506222   -3.920843    1.220373
     43          8           0       17.748439   -3.365898    1.689088
     44          6           0       17.881470   -4.555536    2.461795
     45          1           0       22.956620   -3.095101   -2.150418
     46          1           0       24.638962    2.747895    0.288248
     47          1           0       18.610854    3.863722    1.738918
     48          1           0       18.457677   -4.364041   -0.886729
     49          1           0       20.677333   -4.217804   -2.718645
     50          1           0       21.866354   -4.602035   -0.470049
     51          1           0       20.697248   -5.897183   -1.072583
     52          1           0       20.416501   -4.864884    0.301846
     53          1           0       16.871120   -3.401373   -2.362924
     54          1           0       18.005972   -4.324913   -3.386987
     55          1           0       18.863298   -1.621325   -3.397019
     56          1           0       17.049474   -1.598177   -3.499118
     57          1           0       25.619060   -2.340140   -2.979508
     58          1           0       25.154281   -3.327964   -1.579265
     59          1           0       26.590038   -2.475906   -1.541711
     60          1           0       27.881281    2.419261   -0.883133
     61          1           0       26.652731    2.409354    0.383728
     62          1           0       26.242565    2.624993   -1.410445
     63          1           0       22.842191    4.932657   -0.130856
     64          1           0       21.015101    4.888269    2.340485
     65          1           0       24.583028    5.335222    1.382365
     66          1           0       23.932126    4.265806    2.666740
     67          1           0       23.241259    5.867869    2.465264
     68          1           0       19.679649    5.552294   -0.243795
     69          1           0       21.009011    6.656217    0.142265
     70          1           0       18.238227    6.477939    1.191319
     71          1           0       19.474830    7.640457    1.688881
     72          1           0       19.127500    6.142510    2.561229
     73          1           0       15.968807    3.468827    1.453864
     74          1           0       16.377092    2.751282    3.019598
     75          1           0       15.004414    2.131560    2.040981
     76          1           0       16.000059   -2.339322   -0.748558
     77          1           0       18.912436   -4.647996    2.802581
     78          1           0       17.491420   -5.420828    1.925576
     79          1           0       17.348788   -4.488999    3.410400
     80         12           0      -20.834198    0.651923    0.076142
     81          6           0      -18.827662   -2.204773    0.449485
     82          6           0      -17.995589    2.504345   -0.154425
     83          6           0      -22.811666    3.139661   -0.696627
     84          6           0      -23.529491   -1.668065   -0.489067
     85          7           0      -18.704126    0.186007    0.210649
     86          6           0      -18.104928   -1.034740    0.343216
     87          6           0      -16.607412   -0.869220    0.044223
     88          6           0      -16.373187    0.590023    0.418977
     89          6           0      -17.763489    1.136589    0.041798
     90          6           0      -16.069960    0.784134    1.922643
     91          6           0      -16.288297   -1.157691   -1.469323
     92          6           0      -15.394431   -2.443769   -1.830159
     93          1           0      -15.999195   -3.551097   -2.710019
     94          7           0      -20.456997    2.546349   -0.421512
     95          6           0      -19.215780    3.139942   -0.440032
     96          6           0      -19.396011    4.542144   -0.651655
     97          6           0      -20.799175    4.834422   -0.701501
     98          6           0      -21.445671    3.492987   -0.613913
     99          6           0      -18.206042    5.556292   -0.758355
    100          6           0      -21.414261    6.277469   -0.800880
    101          8           0      -20.705054    7.234544   -0.744938
    102          6           0      -22.859720    6.421715   -0.677787
    103          7           0      -22.818354    0.696395   -0.821769
    104          6           0      -23.446758    1.884080   -0.652947
    105          6           0      -24.949640    1.746760   -0.475713
    106          6           0      -25.201868    0.278358   -0.781975
    107          6           0      -23.745214   -0.297216   -0.702503
    108          6           0      -25.436649    2.145502    0.966402
    109          6           0      -25.944719   -0.129323   -2.140328
    110          6           0      -27.358040   -0.646971   -2.151997
    111          7           0      -21.203153   -1.442691    0.187379
    112          6           0      -22.328923   -2.237839   -0.062908
    113          6           0      -22.023840   -3.647400    0.054064
    114          6           0      -20.669718   -3.667399    0.281510
    115          6           0      -20.171555   -2.324043    0.336543
    116          6           0      -22.982408   -4.748803   -0.132945
    117          6           0      -19.533775   -4.550756    0.496013
    118          8           0      -19.504647   -5.781344    0.620671
    119          6           0      -18.335042   -3.652996    0.719352
    120          6           0      -17.823160   -3.924633    2.129755
    121          8           0      -18.552545   -3.768064    3.106313
    122          8           0      -16.531403   -4.473332    2.114275
    123          6           0      -15.998820   -4.786747    3.413291
    124          1           0      -17.075435    3.085278   -0.066913
    125          1           0      -23.449522    4.022319   -0.629308
    126          1           0      -24.374212   -2.357546   -0.551733
    127          1           0      -16.089597   -1.651745    0.599426
    128          1           0      -15.556223    0.968459   -0.194134
    129          1           0      -15.176105    1.399837    1.828759
    130          1           0      -15.876912   -0.221799    2.296438
    131          1           0      -16.843607    1.262088    2.523705
    132          1           0      -15.722367   -0.306019   -1.846588
    133          1           0      -17.233217   -1.152623   -2.012069
    134          1           0      -15.203139   -2.934913   -0.875770
    135          1           0      -14.414275   -2.213902   -2.246252
    136          1           0      -18.195770    6.246071   -1.601708
    137          1           0      -17.304937    4.944256   -0.809179
    138          1           0      -18.108248    6.184436    0.127248
    139          1           0      -23.432287    5.871677   -1.424913
    140          1           0      -23.106178    7.480708   -0.754091
    141          1           0      -23.168629    6.237269    0.350209
    142          1           0      -25.511468    2.416937   -1.127195
    143          1           0      -25.743312   -0.190987    0.039416
    144          1           0      -25.835563    3.158191    1.022398
    145          1           0      -24.652477    1.922867    1.689995
    146          1           0      -26.263701    1.479881    1.217597
    147          1           0      -25.388028   -0.711097   -2.874204
    148          1           0      -25.970522    0.882129   -2.546662
    149          1           0      -28.064620    0.028857   -2.632729
    150          1           0      -27.700976   -0.793684   -1.127519
    151          1           0      -27.291776   -1.596773   -2.682149
    152          1           0      -23.780442   -4.386867   -0.781779
    153          1           0      -23.411155   -4.931184    0.852864
    154          1           0      -22.486816   -5.654175   -0.480361
    155          1           0      -17.621784   -4.029409   -0.012663
    156          1           0      -15.643977   -3.924621    3.978656
    157          1           0      -15.161358   -5.480605    3.346011
    158          1           0      -16.697521   -5.299441    4.073843
 ---------------------------------------------------------------------

 SCF Done:  E(RPBE1PBE) =  -4067.37521019     A.U. after   16 cycles

 Excitation energies and oscillator strengths:

 Excited State   1:      Singlet-A      1.8785 eV  660.00 nm  f=0.3527  <S**2>=0.000
     309 -> 315       -0.18349
     312 -> 314        0.68999
     312 <- 314       -0.10094
 This state for optimization and/or second-order correction.
 Total Energy, E(TD-HF/TD-DFT) =  -4067.30617504
 Copying the excited state density for this state as the 1-particle RhoCI density.

 Excited State   2:      Singlet-A      1.8968 eV  653.63 nm  f=0.3499  <S**2>=0.000
     310 -> 316        0.18771
     311 -> 313        0.68730

 Excited State   3:      Singlet-A      1.9448 eV  637.50 nm  f=0.0000  <S**2>=0.000
     312 -> 313        0.70710

 Excited State   4:      Singlet-A      2.1429 eV  578.59 nm  f=0.0000  <S**2>=0.000
     311 -> 314        0.70711

 Excited State   5:      Singlet-A      2.2341 eV  554.97 nm  f=0.1044  <S**2>=0.000
     310 -> 313        0.64930
     311 -> 316       -0.26849

 The electronic state is 1-A.
 Alpha  occ. eigenvalues --  -46.93793 -46.92038 -19.26699 -19.26616 -19.20728
 Alpha  occ. eigenvalues --  -19.20286 -19.19887 -19.19276 -19.19114 -19.18880
 Alpha  occ. eigenvalues --  -14.41865 -14.41601 -14.41552 -14.41201 -14.40063
 Alpha  occ. eigenvalues --  -14.39228 -14.39037 -14.38957 -10.37215 -10.37028
 Alpha  occ. eigenvalues --  -10.33085 -10.32326 -10.32181 -10.31605 -10.30490
 Alpha  occ. eigenvalues --  -10.29305 -10.29190 -10.28840 -10.28828 -10.28740
 Alpha  occ. eigenvalues --  -10.28662 -10.28489 -10.28448 -10.28363 -10.28359
 Alpha  occ. eigenvalues --  -10.28296 -10.28063 -10.27711 -10.27509 -10.27398
 Alpha  occ. eigenvalues --  -10.27248 -10.27195 -10.27054 -10.26873 -10.26760
 Alpha  occ. eigenvalues --  -10.26243 -10.26229 -10.26188 -10.26149 -10.26021
 Alpha  occ. eigenvalues --  -10.26021 -10.25953 -10.25937 -10.25902 -10.25703
 Alpha  occ. eigenvalues --  -10.25669 -10.25641 -10.25584 -10.25558 -10.25507
 Alpha  occ. eigenvalues --  -10.25465 -10.25340 -10.25285 -10.25243 -10.25211
 Alpha  occ. eigenvalues --  -10.24836 -10.24710 -10.24513 -10.24488 -10.24479
 Alpha  occ. eigenvalues --  -10.24469 -10.24344 -10.24047 -10.23943 -10.23887
 Alpha  occ. eigenvalues --  -10.23820 -10.23804 -10.23691 -10.23607 -10.23573
 Alpha  occ. eigenvalues --  -10.23528 -10.23460 -10.23316 -10.23088 -10.22963
 Alpha  occ. eigenvalues --  -10.22734  -3.15740  -3.14227  -1.88541  -1.88133
 Alpha  occ. eigenvalues --   -1.87951  -1.87041  -1.86616  -1.86450  -1.11232
 Alpha  occ. eigenvalues --   -1.10657  -1.06668  -1.06147  -1.05531  -1.03738
 Alpha  occ. eigenvalues --   -1.02951  -1.01867  -0.99342  -0.99336  -0.98851
 Alpha  occ. eigenvalues --   -0.98440  -0.97689  -0.97450  -0.96741  -0.96636
 Alpha  occ. eigenvalues --   -0.87332  -0.86892  -0.83413  -0.83278  -0.83220
 Alpha  occ. eigenvalues --   -0.82821  -0.82597  -0.82009  -0.81878  -0.81704
 Alpha  occ. eigenvalues --   -0.81411  -0.80494  -0.79816  -0.79287  -0.79107
 Alpha  occ. eigenvalues --   -0.78812  -0.78479  -0.77669  -0.76874  -0.76772
 Alpha  occ. eigenvalues --   -0.76720  -0.76076  -0.75333  -0.75151  -0.75141
 Alpha  occ. eigenvalues --   -0.74741  -0.72304  -0.71846  -0.71606  -0.71486
 Alpha  occ. eigenvalues --   -0.70930  -0.70717  -0.70667  -0.70538  -0.69660
 Alpha  occ. eigenvalues --   -0.69410  -0.67313  -0.67271  -0.66556  -0.66474
 Alpha  occ. eigenvalues --   -0.64252  -0.63778  -0.63372  -0.62985  -0.62760
 Alpha  occ. eigenvalues --   -0.62447  -0.61548  -0.61189  -0.60347  -0.60222
 Alpha  occ. eigenvalues --   -0.60043  -0.59433  -0.59366  -0.59325  -0.59169
 Alpha  occ. eigenvalues --   -0.58985  -0.58304  -0.57232  -0.54714  -0.54572
 Alpha  occ. eigenvalues --   -0.54569  -0.53882  -0.53697  -0.53467  -0.53440
 Alpha  occ. eigenvalues --   -0.52916  -0.52825  -0.52306  -0.52245  -0.51915
 Alpha  occ. eigenvalues --   -0.50809  -0.50776  -0.50634  -0.50625  -0.50071
 Alpha  occ. eigenvalues --   -0.49756  -0.49635  -0.49346  -0.48841  -0.48537
 Alpha  occ. eigenvalues --   -0.48353  -0.48100  -0.47799  -0.47653  -0.47566
 Alpha  occ. eigenvalues --   -0.47502  -0.47400  -0.47317  -0.47128  -0.46706
 Alpha  occ. eigenvalues --   -0.46543  -0.46274  -0.46177  -0.46026  -0.45750
 Alpha  occ. eigenvalues --   -0.45565  -0.45452  -0.45344  -0.45168  -0.45084
 Alpha  occ. eigenvalues --   -0.44709  -0.44629  -0.44547  -0.44416  -0.44330
 Alpha  occ. eigenvalues --   -0.44127  -0.44110  -0.43859  -0.43627  -0.43603
 Alpha  occ. eigenvalues --   -0.43367  -0.43257  -0.43064  -0.42966  -0.42702
 Alpha  occ. eigenvalues --   -0.42225  -0.42198  -0.41969  -0.41907  -0.41805
 Alpha  occ. eigenvalues --   -0.41592  -0.41349  -0.41261  -0.41082  -0.40988
 Alpha  occ. eigenvalues --   -0.40959  -0.40814  -0.40791  -0.40668  -0.40496
 Alpha  occ. eigenvalues --   -0.40265  -0.40120  -0.40088  -0.39964  -0.39956
 Alpha  occ. eigenvalues --   -0.39622  -0.39178  -0.39033  -0.39030  -0.38959
 Alpha  occ. eigenvalues --   -0.38809  -0.38675  -0.38599  -0.38440  -0.38338
 Alpha  occ. eigenvalues --   -0.38169  -0.38098  -0.37993  -0.37853  -0.37801
 Alpha  occ. eigenvalues --   -0.37640  -0.37349  -0.37197  -0.37197  -0.37044
 Alpha  occ. eigenvalues --   -0.36987  -0.36857  -0.36791  -0.36629  -0.36513
 Alpha  occ. eigenvalues --   -0.36407  -0.36151  -0.35966  -0.35765  -0.35548
 Alpha  occ. eigenvalues --   -0.35275  -0.35242  -0.34890  -0.34840  -0.34192
 Alpha  occ. eigenvalues --   -0.33895  -0.33858  -0.33148  -0.32941  -0.32424
 Alpha  occ. eigenvalues --   -0.32256  -0.32213  -0.32018  -0.31730  -0.31673
 Alpha  occ. eigenvalues --   -0.31553  -0.31377  -0.29871  -0.29798  -0.29660
 Alpha  occ. eigenvalues --   -0.29455  -0.28969  -0.28705  -0.26927  -0.26917
 Alpha  occ. eigenvalues --   -0.26186  -0.26079  -0.26072  -0.25810  -0.25765
 Alpha  occ. eigenvalues --   -0.25538  -0.25450  -0.25224  -0.21245  -0.20984
 Alpha  occ. eigenvalues --   -0.19035  -0.18630
 Alpha virt. eigenvalues --   -0.11164  -0.10840  -0.05604  -0.05541  -0.04134
 Alpha virt. eigenvalues --   -0.03663  -0.02403  -0.01981  -0.01839  -0.00833
 Alpha virt. eigenvalues --   -0.00307  -0.00130   0.00797   0.01140   0.01820

 Mulliken charges:
               1
     1  Mg  11.999988
     2  C    6.000123
     3  C    5.999994
     4  C    5.999724
     5  C    5.999997
     6  N    7.000118
     7  C    5.999731
     8  C    6.000067
     9  C    5.999961
    10  C    6.000223
    11  C    5.999962
    12  C    6.000032
    13  C    6.000046
    14  H    0.999937
    15  N    6.999933
    16  C    6.000348
    17  C    6.000232
    18  C    6.000123
    19  C    6.000358
    20  C    5.999944
    21  C    6.000117
    22  O    8.000203
    23  C    5.999968
    24  N    6.999902
    25  C    6.000411
    26  C    5.999911
    27  C    6.000062
    28  C    5.999780
    29  C    5.999993
    30  C    6.000049
    31  C    6.000020
    32  N    7.000008
    33  C    5.999693
    34  C    5.999673
    35  C    5.999967
    36  C    5.999744
    37  C    6.000032
    38  C    5.999787
    39  O    7.999735
    40  C    6.000019
    41  C    5.999998
    42  O    7.999986
    43  O    7.999978
    44  C    6.000004
    45  H    1.000142
    46  H    1.000041
    47  H    0.999860
    48  H    1.000035
    49  H    1.000012
    50  H    0.999914
    51  H    1.000123
    52  H    1.000137
    53  H    1.000071
    54  H    0.999970
    55  H    0.999901
    56  H    1.000046
    57  H    1.000198
    58  H    1.000184
    59  H    1.000156
    60  H    1.000118
    61  H    1.000098
    62  H    1.000061
    63  H    0.999987
    64  H    0.999978
    65  H    0.999959
    66  H    1.000019
    67  H    1.000054
    68  H    0.999993
    69  H    0.999870
    70  H    0.999999
    71  H    0.999899
    72  H    1.000024
    73  H    0.999767
    74  H    0.999800
    75  H    0.999844
    76  H    0.999937
    77  H    0.999926
    78  H    0.999992
    79  H    1.000004
    80  Mg  12.000383
    81  C    6.021495
    82  C    5.985610
    83  C    5.982706
    84  C    6.011569
    85  N    7.004550
    86  C    5.970275
    87  C    5.999921
    88  C    5.992628
    89  C    6.031539
    90  C    5.998585
    91  C    6.000908
    92  C    5.999634
    93  H    1.005495
    94  N    6.993790
    95  C    6.038477
    96  C    6.018381
    97  C    6.011184
    98  C    6.036986
    99  C    5.997360
   100  C    6.014052
   101  O    8.016991
   102  C    5.993147
   103  N    7.001528
   104  C    6.031269
   105  C    5.991830
   106  C    6.005323
   107  C    5.966738
   108  C    5.995678
   109  C    6.009093
   110  C    5.999241
   111  N    7.001353
   112  C    5.965546
   113  C    5.970997
   114  C    6.000758
   115  C    5.967276
   116  C    6.002155
   117  C    5.979672
   118  O    7.969596
   119  C    6.003199
   120  C    5.992722
   121  O    7.998150
   122  O    7.997525
   123  C    6.002934
   124  H    1.010776
   125  H    1.007998
   126  H    0.990686
   127  H    1.004533
   128  H    1.002233
   129  H    1.000964
   130  H    1.015427
   131  H    0.998963
   132  H    0.987705
   133  H    1.000364
   134  H    1.002179
   135  H    0.995922
   136  H    1.016649
   137  H    1.015380
   138  H    1.017689
   139  H    1.009677
   140  H    1.012441
   141  H    1.009310
   142  H    0.999417
   143  H    1.000603
   144  H    0.997765
   145  H    1.003047
   146  H    1.011306
   147  H    1.000400
   148  H    0.986760
   149  H    0.994468
   150  H    0.998375
   151  H    1.001769
   152  H    0.983509
   153  H    0.981543
   154  H    0.986311
   155  H    0.990116
   156  H    0.993015
   157  H    0.995574
   158  H    0.998876
 Sum of Mulliken charges = 624.00000

 Dipole moment (field-independent basis, Debye):
    X=              1.6821    Y=              9.7749    Z=             -0.7931  Tot=              9.9502
 Quadrupole moment (field-independent basis, Debye-Ang):
   XX=            -63.5966   YY=              9.2874   ZZ=             -0.5705
   XY=           -202.1816   XZ=             13.0221   YZ=             -1.3940

 Normal termination of Gaussian 16 at Fri Oct 15 00:29:55 2021.
