 Gaussian 16, Revision A.03,
 Gaussian 16:  ES64L-G16RevA.03 25-Dec-2016

 --------------------------------------------------------
 #p PBE1PBE/Def2SVP td=(nstates=5) density=(transition=1)
 --------------------------------------------------------

 --------------------------------
 TDDFT excited states in gaussian
 --------------------------------
 Symbolic Z-matrix:
 Charge =  0 Multiplicity = 1

                         Standard orientation:
 ---------------------------------------------------------------------
 Center     Atomic      Atomic             Coordinates (Angstroms)
 Number     Number       Type             X           Y           Z
 ---------------------------------------------------------------------
      1         12           0      -29.869589   -0.224139    0.119180
      2          6           0      -26.539875    0.067088   -0.919795
      3          6           0      -28.614465   -1.802751    2.928686
      4          6           0      -32.968580   -0.239855    1.359344
      5          6           0      -30.811522    2.092726   -2.323213
      6          7           0      -27.644138   -0.629144    0.997397
      7          6           0      -26.489408   -0.521378    0.312665
      8          6           0      -25.283240   -1.002698    1.082806
      9          6           0      -26.077080   -1.845087    2.152727
     10          6           0      -27.534432   -1.398304    2.099391
     11          6           0      -26.012927   -3.353470    1.792921
     12          6           0      -24.397628    0.169592    1.523719
     13          6           0      -25.047240    1.476238    2.024881
     14          1           0      -24.502279    2.031633    3.335391
     15          7           0      -30.677891   -0.921079    1.864367
     16          6           0      -30.003947   -1.638390    2.816933
     17          6           0      -30.976709   -2.379710    3.630138
     18          6           0      -32.283368   -1.831911    3.311680
     19          6           0      -31.997400   -0.969704    2.124562
     20          6           0      -30.557247   -3.272893    4.859763
     21          6           0      -33.599276   -2.107903    4.043312
     22          8           0      -33.657829   -2.945790    4.899626
     23          6           0      -34.843451   -1.360244    3.659243
     24          7           0      -31.608741    1.000734   -0.328686
     25          6           0      -32.859611    0.735073    0.258760
     26          6           0      -34.034827    1.596676   -0.370367
     27          6           0      -33.286048    2.289672   -1.606360
     28          6           0      -31.798342    1.731130   -1.446082
     29          6           0      -35.431205    0.900978   -0.767787
     30          6           0      -33.360980    3.880789   -1.714608
     31          6           0      -33.386106    4.342167   -3.254901
     32          7           0      -28.930181    0.860459   -1.400233
     33          6           0      -29.463725    1.689504   -2.365949
     34          6           0      -28.411961    2.075225   -3.298841
     35          6           0      -27.225916    1.434051   -2.857086
     36          6           0      -27.581482    0.758791   -1.634082
     37          6           0      -28.588678    2.839931   -4.584483
     38          6           0      -25.749053    1.233389   -3.019661
     39          8           0      -24.971094    1.742955   -3.795047
     40          6           0      -25.320418    0.307875   -1.802862
     41          6           0      -24.775607   -0.960442   -2.400033
     42          8           0      -23.632947   -1.061235   -2.912840
     43          8           0      -25.657780   -2.004007   -2.160225
     44          6           0      -25.166185   -3.305496   -2.467593
     45          1           0      -28.230062   -2.381665    3.771134
     46          1           0      -34.040707   -0.330202    1.547203
     47          1           0      -31.158371    2.653057   -3.194094
     48          1           0      -24.705950   -1.731727    0.514476
     49          1           0      -25.765984   -1.770481    3.193841
     50          1           0      -26.963888   -3.776527    2.117553
     51          1           0      -25.121114   -3.811018    2.218862
     52          1           0      -26.033858   -3.651225    0.744116
     53          1           0      -23.858229    0.479883    0.629336
     54          1           0      -23.697369   -0.199719    2.273047
     55          1           0      -26.106488    1.295665    2.206210
     56          1           0      -24.869742    2.249254    1.277745
     57          1           0      -30.294583   -2.721735    5.763130
     58          1           0      -29.720332   -3.911421    4.576800
     59          1           0      -31.277136   -4.029629    5.169421
     60          1           0      -35.660938   -1.542264    4.357635
     61          1           0      -35.196324   -1.600562    2.656134
     62          1           0      -34.541831   -0.326838    3.832169
     63          1           0      -34.189299    2.303742    0.443810
     64          1           0      -33.649831    1.894506   -2.554398
     65          1           0      -36.078033    0.961567    0.106677
     66          1           0      -35.289112   -0.135415   -1.072804
     67          1           0      -35.851424    1.435962   -1.619684
     68          1           0      -32.444947    4.341883   -1.345489
     69          1           0      -34.202749    4.274386   -1.144328
     70          1           0      -32.520712    4.961420   -3.491300
     71          1           0      -34.288327    4.923272   -3.443476
     72          1           0      -33.292897    3.587306   -4.034909
     73          1           0      -29.026285    3.809530   -4.349251
     74          1           0      -29.272250    2.299748   -5.239840
     75          1           0      -27.640578    3.034485   -5.085570
     76          1           0      -24.463372    0.825420   -1.372484
     77          1           0      -25.897972   -4.048701   -2.151826
     78          1           0      -24.159539   -3.450646   -2.075169
     79          1           0      -25.129480   -3.485844   -3.541910
     80         12           0       29.297155    0.735582    0.535136
     81          6           0       29.588552   -2.629966   -0.888091
     82          6           0       26.954030    1.371156   -1.991076
     83          6           0       29.240312    3.844693    1.513797
     84          6           0       31.474702   -0.167611    3.026011
     85          7           0       28.545166   -0.401616   -1.331653
     86          6           0       28.688772   -1.814503   -1.660332
     87          6           0       27.911700   -2.242188   -2.923843
     88          6           0       27.247137   -0.800534   -3.324456
     89          6           0       27.591779    0.160266   -2.169619
     90          6           0       27.684778   -0.280852   -4.680078
     91          6           0       26.939108   -3.416174   -2.599270
     92          6           0       25.922949   -3.720007   -3.658794
     93          1           0       25.642194   -5.156419   -4.040326
     94          7           0       28.256209    2.433180   -0.147419
     95          6           0       27.328560    2.503629   -1.192929
     96          6           0       26.793961    3.860925   -1.285868
     97          6           0       27.456313    4.627133   -0.241287
     98          6           0       28.380076    3.658872    0.457451
     99          6           0       25.656621    4.316548   -2.271948
    100          6           0       27.375755    6.065277    0.125103
    101          8           0       27.970861    6.585797    1.059263
    102          6           0       26.440601    6.955237   -0.583295
    103          7           0       30.124284    1.657166    2.061426
    104          6           0       30.067903    2.981665    2.212497
    105          6           0       30.867560    3.477587    3.440068
    106          6           0       31.180869    2.166304    4.130296
    107          6           0       30.976866    1.114262    2.972187
    108          6           0       32.115643    4.268789    3.066145
    109          6           0       30.474808    1.710066    5.380796
    110          6           0       28.990097    1.472045    5.206137
    111          7           0       30.410820   -0.973061    0.957085
    112          6           0       31.194831   -1.211426    2.100309
    113          6           0       31.717844   -2.553844    2.035279
    114          6           0       31.027422   -3.098935    0.922286
    115          6           0       30.254946   -2.110976    0.282395
    116          6           0       32.592715   -3.267973    3.023797
    117          6           0       30.841103   -4.401764    0.211629
    118          8           0       31.238831   -5.552260    0.493962
    119          6           0       29.936558   -4.095985   -0.980102
    120          6           0       30.618504   -4.528626   -2.279750
    121          8           0       31.678142   -4.103944   -2.828103
    122          8           0       29.781028   -5.415598   -2.889074
    123          6           0       30.216298   -5.901316   -4.218162
    124          1           0       26.087622    1.500712   -2.641505
    125          1           0       29.285638    4.892380    1.818190
    126          1           0       32.191864   -0.516829    3.771940
    127          1           0       28.667301   -2.650523   -3.594920
    128          1           0       26.162581   -0.881985   -3.252029
    129          1           0       26.798305   -0.143167   -5.299858
    130          1           0       28.311277   -1.057589   -5.117136
    131          1           0       28.419683    0.523638   -4.698651
    132          1           0       26.540083   -3.196859   -1.608319
    133          1           0       27.528884   -4.319991   -2.445874
    134          1           0       26.108030   -3.314190   -4.653092
    135          1           0       24.941260   -3.395335   -3.315066
    136          1           0       24.837338    4.625872   -1.622307
    137          1           0       25.302448    3.518861   -2.924732
    138          1           0       26.068761    5.147224   -2.844993
    139          1           0       26.435266    6.818579   -1.664879
    140          1           0       26.808060    7.952215   -0.342723
    141          1           0       25.459751    6.607227   -0.260810
    142          1           0       30.204884    4.131128    4.007495
    143          1           0       32.216238    2.118826    4.468896
    144          1           0       32.207416    5.111070    3.750914
    145          1           0       32.048572    4.655242    2.049719
    146          1           0       33.010367    3.680127    3.271915
    147          1           0       30.710935    2.419034    6.174815
    148          1           0       30.805713    0.713961    5.674228
    149          1           0       28.407558    1.915635    6.012755
    150          1           0       28.725674    0.414971    5.241866
    151          1           0       28.574118    1.882791    4.286079
    152          1           0       32.134941   -4.218472    3.296734
    153          1           0       32.866396   -2.797073    3.967934
    154          1           0       33.537450   -3.470346    2.518764
    155          1           0       29.049058   -4.724428   -0.900611
    156          1           0       29.681462   -5.362420   -4.999962
    157          1           0       29.981555   -6.958220   -4.091786
    158          1           0       31.299757   -5.868467   -4.339759
 ---------------------------------------------------------------------

 SCF Done:  E(RPBE1PBE) =  -4067.38083552     A.U. after   16 cycles

 Excitation energies and oscillator strengths:

 Excited State   1:      Singlet-A      1.8175 eV  682.18 nm  f=0.3864  <S**2>=0.000
     309 -> 316        0.16217
     311 -> 313        0.69597
     311 <- 313       -0.11404
 This state for optimization and/or second-order correction.
 Total Energy, E(TD-HF/TD-DFT) =  -4067.31404467
 Copying the excited state density for this state as the 1-particle RhoCI density.

 Excited State   2:      Singlet-A      1.8968 eV  653.64 nm  f=0.3484  <S**2>=0.000
     310 -> 315        0.18781
     312 -> 314        0.68732

 Excited State   3:      Singlet-A      1.9393 eV  639.32 nm  f=0.0000  <S**2>=0.000
     312 -> 313        0.70711

 Excited State   4:      Singlet-A      2.0966 eV  591.35 nm  f=0.0000  <S**2>=0.000
     311 -> 314        0.70711

 Excited State   5:      Singlet-A      2.1799 eV  568.77 nm  f=0.1283  <S**2>=0.000
     309 -> 313        0.66143
     311 -> 316       -0.23371

 The electronic state is 1-A.
 Alpha  occ. eigenvalues --  -46.93804 -46.91162 -19.26712 -19.26512 -19.20299
 Alpha  occ. eigenvalues --  -19.20008 -19.19899 -19.19125 -19.18900 -19.18771
 Alpha  occ. eigenvalues --  -14.42085 -14.41876 -14.41657 -14.41213 -14.40074
 Alpha  occ. eigenvalues --  -14.39518 -14.39239 -14.38672 -10.37093 -10.37040
 Alpha  occ. eigenvalues --  -10.33096 -10.32337 -10.31986 -10.31610 -10.30501
 Alpha  occ. eigenvalues --  -10.29912 -10.29317 -10.29206 -10.29203 -10.29046
 Alpha  occ. eigenvalues --  -10.28793 -10.28752 -10.28648 -10.28573 -10.28460
 Alpha  occ. eigenvalues --  -10.28375 -10.28142 -10.28075 -10.27853 -10.27722
 Alpha  occ. eigenvalues --  -10.27521 -10.27313 -10.27206 -10.27065 -10.26884
 Alpha  occ. eigenvalues --  -10.26832 -10.26801 -10.26568 -10.26555 -10.26457
 Alpha  occ. eigenvalues --  -10.26324 -10.26255 -10.26241 -10.26162 -10.26035
 Alpha  occ. eigenvalues --  -10.26032 -10.25815 -10.25715 -10.25706 -10.25595
 Alpha  occ. eigenvalues --  -10.25517 -10.25476 -10.25475 -10.25296 -10.25221
 Alpha  occ. eigenvalues --  -10.25124 -10.25092 -10.24842 -10.24704 -10.24501
 Alpha  occ. eigenvalues --  -10.24466 -10.23954 -10.23900 -10.23831 -10.23814
 Alpha  occ. eigenvalues --  -10.23689 -10.23618 -10.23547 -10.23538 -10.23471
 Alpha  occ. eigenvalues --  -10.23334 -10.23257 -10.23061 -10.22919 -10.22722
 Alpha  occ. eigenvalues --  -10.21976  -3.15751  -3.13478  -1.88552  -1.88144
 Alpha  occ. eigenvalues --   -1.87962  -1.86326  -1.85865  -1.85703  -1.11245
 Alpha  occ. eigenvalues --   -1.10870  -1.06158  -1.05543  -1.04896  -1.02696
 Alpha  occ. eigenvalues --   -1.01879  -1.00654  -0.99659  -0.99354  -0.98452
 Alpha  occ. eigenvalues --   -0.97703  -0.97700  -0.96726  -0.96647  -0.95153
 Alpha  occ. eigenvalues --   -0.86904  -0.86764  -0.83992  -0.83291  -0.83126
 Alpha  occ. eigenvalues --   -0.82949  -0.82609  -0.82020  -0.81715  -0.81617
 Alpha  occ. eigenvalues --   -0.81078  -0.80506  -0.80337  -0.79828  -0.79119
 Alpha  occ. eigenvalues --   -0.79015  -0.78405  -0.77680  -0.77220  -0.76886
 Alpha  occ. eigenvalues --   -0.76304  -0.76087  -0.75810  -0.75163  -0.74753
 Alpha  occ. eigenvalues --   -0.74402  -0.72659  -0.71858  -0.71619  -0.71618
 Alpha  occ. eigenvalues --   -0.71202  -0.70942  -0.70729  -0.70325  -0.69806
 Alpha  occ. eigenvalues --   -0.69672  -0.67324  -0.67293  -0.66486  -0.66328
 Alpha  occ. eigenvalues --   -0.64585  -0.64263  -0.63815  -0.63790  -0.62772
 Alpha  occ. eigenvalues --   -0.62054  -0.61625  -0.61559  -0.60358  -0.59582
 Alpha  occ. eigenvalues --   -0.59445  -0.59337  -0.59228  -0.59181  -0.58752
 Alpha  occ. eigenvalues --   -0.58377  -0.58316  -0.56581  -0.54666  -0.54581
 Alpha  occ. eigenvalues --   -0.53894  -0.53793  -0.53707  -0.53479  -0.52913
 Alpha  occ. eigenvalues --   -0.52837  -0.52318  -0.52284  -0.51946  -0.51927
 Alpha  occ. eigenvalues --   -0.50814  -0.50787  -0.50637  -0.50449  -0.50082
 Alpha  occ. eigenvalues --   -0.49986  -0.49785  -0.49648  -0.49350  -0.48943
 Alpha  occ. eigenvalues --   -0.48853  -0.48365  -0.47857  -0.47810  -0.47513
 Alpha  occ. eigenvalues --   -0.47491  -0.47344  -0.47328  -0.47078  -0.46805
 Alpha  occ. eigenvalues --   -0.46555  -0.46189  -0.46037  -0.45821  -0.45761
 Alpha  occ. eigenvalues --   -0.45415  -0.45355  -0.45179  -0.45165  -0.44999
 Alpha  occ. eigenvalues --   -0.44807  -0.44641  -0.44558  -0.44493  -0.44342
 Alpha  occ. eigenvalues --   -0.44138  -0.43939  -0.43615  -0.43510  -0.43475
 Alpha  occ. eigenvalues --   -0.43378  -0.43216  -0.43076  -0.42937  -0.42749
 Alpha  occ. eigenvalues --   -0.42420  -0.42237  -0.42156  -0.41980  -0.41918
 Alpha  occ. eigenvalues --   -0.41730  -0.41603  -0.41481  -0.41360  -0.41326
 Alpha  occ. eigenvalues --   -0.41093  -0.40901  -0.40803  -0.40702  -0.40506
 Alpha  occ. eigenvalues --   -0.40494  -0.40278  -0.40198  -0.40131  -0.39967
 Alpha  occ. eigenvalues --   -0.39692  -0.39634  -0.39250  -0.39144  -0.39085
 Alpha  occ. eigenvalues --   -0.39045  -0.38842  -0.38820  -0.38687  -0.38452
 Alpha  occ. eigenvalues --   -0.38358  -0.38181  -0.38004  -0.37907  -0.37812
 Alpha  occ. eigenvalues --   -0.37652  -0.37477  -0.37350  -0.37209  -0.37056
 Alpha  occ. eigenvalues --   -0.37045  -0.36869  -0.36688  -0.36640  -0.36480
 Alpha  occ. eigenvalues --   -0.36162  -0.36080  -0.35733  -0.35353  -0.35288
 Alpha  occ. eigenvalues --   -0.34851  -0.34844  -0.34203  -0.34199  -0.33999
 Alpha  occ. eigenvalues --   -0.33907  -0.33846  -0.33160  -0.32332  -0.32268
 Alpha  occ. eigenvalues --   -0.32225  -0.32174  -0.31814  -0.31742  -0.31582
 Alpha  occ. eigenvalues --   -0.31389  -0.31183  -0.29810  -0.29532  -0.29467
 Alpha  occ. eigenvalues --   -0.29129  -0.28717  -0.28616  -0.27078  -0.26939
 Alpha  occ. eigenvalues --   -0.26198  -0.26083  -0.25852  -0.25782  -0.25776
 Alpha  occ. eigenvalues --   -0.25462  -0.25383  -0.25013  -0.21159  -0.20995
 Alpha  occ. eigenvalues --   -0.19105  -0.19047
 Alpha virt. eigenvalues --   -0.11695  -0.11176  -0.05553  -0.05233  -0.04145
 Alpha virt. eigenvalues --   -0.03871  -0.02415  -0.02202  -0.01996  -0.00324
 Alpha virt. eigenvalues --   -0.00143   0.00094   0.01129   0.01472   0.01947

 Mulliken charges:
               1
     1  Mg  12.000006
     2  C    5.999960
     3  C    5.999962
     4  C    6.000088
     5  C    6.000044
     6  N    6.999982
     7  C    6.000109
     8  C    5.999967
     9  C    6.000018
    10  C    5.999978
    11  C    6.000001
    12  C    6.000010
    13  C    5.999969
    14  H    1.000040
    15  N    6.999983
    16  C    5.999977
    17  C    5.999922
    18  C    6.000004
    19  C    5.999911
    20  C    6.000015
    21  C    5.999960
    22  O    7.999947
    23  C    6.000025
    24  N    6.999985
    25  C    5.999899
    26  C    6.000005
    27  C    5.999985
    28  C    6.000056
    29  C    6.000004
    30  C    5.999998
    31  C    6.000003
    32  N    7.000012
    33  C    6.000054
    34  C    6.000045
    35  C    5.999959
    36  C    6.000065
    37  C    5.999999
    38  C    6.000049
    39  O    8.000084
    40  C    6.000001
    41  C    5.999999
    42  O    8.000022
    43  O    8.000012
    44  C    5.999983
    45  H    0.999971
    46  H    0.999976
    47  H    1.000014
    48  H    1.000004
    49  H    1.000001
    50  H    1.000004
    51  H    0.999986
    52  H    0.999968
    53  H    1.000001
    54  H    1.000019
    55  H    1.000002
    56  H    1.000001
    57  H    0.999962
    58  H    0.999956
    59  H    0.999955
    60  H    0.999953
    61  H    0.999976
    62  H    0.999994
    63  H    1.000003
    64  H    0.999996
    65  H    0.999996
    66  H    0.999992
    67  H    0.999979
    68  H    1.000008
    69  H    1.000014
    70  H    1.000001
    71  H    1.000004
    72  H    0.999992
    73  H    1.000047
    74  H    1.000029
    75  H    1.000043
    76  H    1.000037
    77  H    0.999999
    78  H    1.000017
    79  H    1.000003
    80  Mg  12.002245
    81  C    5.984038
    82  C    6.006134
    83  C    6.014546
    84  C    5.990420
    85  N    6.994228
    86  C    6.031266
    87  C    5.989476
    88  C    6.007683
    89  C    5.975823
    90  C    6.006684
    91  C    5.996984
    92  C    6.000387
    93  H    1.000523
    94  N    7.004502
    95  C    5.964384
    96  C    5.978007
    97  C    5.984899
    98  C    5.970608
    99  C    5.998558
   100  C    5.988048
   101  O    7.969858
   102  C    6.003181
   103  N    6.998433
   104  C    5.966911
   105  C    6.007487
   106  C    5.998315
   107  C    6.032402
   108  C    6.001656
   109  C    5.993010
   110  C    5.994977
   111  N    6.998684
   112  C    6.039401
   113  C    6.021478
   114  C    6.006026
   115  C    6.032432
   116  C    5.997282
   117  C    6.019254
   118  O    8.030649
   119  C    5.998007
   120  C    6.002480
   121  O    8.005963
   122  O    8.001674
   123  C    5.998948
   124  H    0.989262
   125  H    0.993722
   126  H    1.009296
   127  H    0.999998
   128  H    1.000051
   129  H    0.998708
   130  H    0.987242
   131  H    1.002020
   132  H    1.002441
   133  H    0.994251
   134  H    1.004628
   135  H    1.005102
   136  H    0.984707
   137  H    0.983135
   138  H    0.985129
   139  H    0.993125
   140  H    0.986199
   141  H    0.992144
   142  H    1.001491
   143  H    1.000351
   144  H    0.997581
   145  H    1.005240
   146  H    0.987491
   147  H    1.010070
   148  H    0.995600
   149  H    1.005731
   150  H    0.994513
   151  H    1.014704
   152  H    1.014339
   153  H    1.017438
   154  H    1.016739
   155  H    1.008125
   156  H    1.006485
   157  H    1.002878
   158  H    1.002113
 Sum of Mulliken charges = 624.00000

 Dipole moment (field-independent basis, Debye):
    X=              4.9378    Y=             -8.9725    Z=              2.6911  Tot=             10.5891
 Quadrupole moment (field-independent basis, Debye-Ang):
   XX=            286.7356   YY=            -12.4828   ZZ=              4.3818
   XY=           -259.0405   XZ=             81.0634   YZ=              1.0173

 Normal termination of Gaussian 16 at Thu Oct 14 22:18:53 2021.
