 Gaussian 16, Revision A.03,
 Gaussian 16:  ES64L-G16RevA.03 25-Dec-2016

 --------------------------------------------------------
 #p PBE1PBE/Def2SVP td=(nstates=5) density=(transition=1)
 --------------------------------------------------------

 --------------------------------
 TDDFT excited states in gaussian
 --------------------------------
 Symbolic Z-matrix:
 Charge =  0 Multiplicity = 1

                         Standard orientation:
 ---------------------------------------------------------------------
 Center     Atomic      Atomic             Coordinates (Angstroms)
 Number     Number       Type             X           Y           Z
 ---------------------------------------------------------------------
      1         12           0       28.827103    0.605845   -0.312553
      2          6           0       28.146325   -2.775444   -0.061596
      3          6           0       25.942467    1.249127    1.651597
      4          6           0       29.733149    3.897562   -0.019553
      5          6           0       31.870752   -0.056377   -1.804756
      6          7           0       27.188472   -0.648149    0.546931
      7          6           0       27.192291   -2.026116    0.601316
      8          6           0       26.080460   -2.631321    1.537905
      9          6           0       25.143837   -1.350473    1.753139
     10          6           0       26.090461   -0.120232    1.260094
     11          6           0       23.724536   -1.309440    1.068813
     12          6           0       26.571480   -3.196012    2.824347
     13          6           0       26.370710   -4.662406    3.155351
     14          1           0       26.261665   -5.007869    4.649179
     15          7           0       27.898056    2.365853    0.609587
     16          6           0       26.680028    2.365505    1.315129
     17          6           0       26.337244    3.703262    1.680021
     18          6           0       27.540622    4.502098    1.328647
     19          6           0       28.492420    3.599762    0.609588
     20          6           0       25.110545    4.078331    2.518030
     21          6           0       27.637752    5.997324    1.678427
     22          8           0       26.808459    6.676213    2.277183
     23          6           0       28.980626    6.628988    1.573577
     24          7           0       30.709122    1.789250   -0.696457
     25          6           0       30.703579    3.128340   -0.646964
     26          6           0       32.151183    3.575897   -0.844146
     27          6           0       32.895167    2.332837   -1.522897
     28          6           0       31.743180    1.242027   -1.371380
     29          6           0       32.196701    4.790245   -1.837955
     30          6           0       34.275568    1.824293   -0.936030
     31          6           0       35.552340    1.935218   -1.755887
     32          7           0       29.820224   -1.096364   -0.924025
     33          6           0       31.058037   -1.225240   -1.561745
     34          6           0       31.369053   -2.609636   -1.747320
     35          6           0       30.257588   -3.298620   -1.170678
     36          6           0       29.328497   -2.276639   -0.731355
     37          6           0       32.585911   -3.216712   -2.371374
     38          6           0       29.656356   -4.543144   -0.919917
     39          8           0       30.084831   -5.648048   -1.186747
     40          6           0       28.318705   -4.275074   -0.127241
     41          6           0       27.254139   -5.107385   -0.709150
     42          8           0       26.825772   -6.123439   -0.173647
     43          8           0       26.852275   -4.585239   -1.929546
     44          6           0       25.810821   -5.401054   -2.593502
     45          1           0       25.062319    1.572615    2.210422
     46          1           0       29.901477    4.975052    0.043227
     47          1           0       32.854613   -0.247111   -2.238165
     48          1           0       25.528364   -3.397588    0.994840
     49          1           0       25.052030   -1.214717    2.831347
     50          1           0       23.509988   -2.319214    0.719060
     51          1           0       23.637354   -0.600375    0.245465
     52          1           0       23.018136   -0.972912    1.826742
     53          1           0       26.027606   -2.675385    3.613981
     54          1           0       27.648058   -3.050674    2.906848
     55          1           0       27.257338   -5.200369    2.821078
     56          1           0       25.461208   -5.081606    2.725632
     57          1           0       24.449830    3.315844    2.929942
     58          1           0       24.595844    4.778498    1.860504
     59          1           0       25.519758    4.763948    3.259351
     60          1           0       29.288470    7.089342    0.635724
     61          1           0       29.772485    5.978298    1.944913
     62          1           0       28.958969    7.486515    2.247123
     63          1           0       32.639653    3.854107    0.089993
     64          1           0       32.972717    2.484113   -2.598991
     65          1           0       32.804542    5.560484   -1.363254
     66          1           0       31.227485    5.202705   -2.121136
     67          1           0       32.641852    4.540846   -2.801424
     68          1           0       34.085290    0.778836   -0.694312
     69          1           0       34.454098    2.446833   -0.058192
     70          1           0       36.213628    1.168187   -1.352032
     71          1           0       36.013312    2.903749   -1.560861
     72          1           0       35.526493    1.766372   -2.831902
     73          1           0       32.437126   -4.295824   -2.324827
     74          1           0       33.448451   -2.857296   -1.810993
     75          1           0       32.742206   -2.969632   -3.421588
     76          1           0       28.530243   -4.667834    0.867863
     77          1           0       26.274577   -6.151621   -3.233476
     78          1           0       25.153328   -4.691476   -3.095753
     79          1           0       25.164695   -5.899488   -1.871438
     80         12           0      -29.434065   -0.116338   -0.669900
     81          6           0      -26.207780    0.551429    0.697896
     82          6           0      -29.232454   -3.069984    0.829207
     83          6           0      -32.777830   -0.456275   -1.023705
     84          6           0      -29.628060    3.393606   -1.255433
     85          7           0      -27.904995   -1.145607    0.467728
     86          6           0      -26.608992   -0.739753    0.853312
     87          6           0      -25.835651   -1.834886    1.653299
     88          6           0      -26.852449   -3.010751    1.615027
     89          6           0      -28.053009   -2.421109    0.845002
     90          6           0      -26.139876   -4.216125    0.979395
     91          6           0      -25.379666   -1.482370    3.134735
     92          6           0      -23.879030   -1.396828    3.388305
     93          1           0      -23.294022   -2.294394    4.497813
     94          7           0      -30.793938   -1.551886   -0.274749
     95          6           0      -30.491629   -2.744247    0.382628
     96          6           0      -31.608705   -3.599643    0.391925
     97          6           0      -32.642661   -2.961244   -0.267762
     98          6           0      -32.148908   -1.628138   -0.547773
     99          6           0      -31.732945   -5.053272    0.982188
    100          6           0      -33.979311   -3.614245   -0.530910
    101          8           0      -34.223194   -4.761834   -0.303498
    102          6           0      -35.058897   -2.696254   -1.289509
    103          7           0      -31.007522    1.270973   -1.010075
    104          6           0      -32.302512    0.853062   -1.152951
    105          6           0      -33.192959    2.153896   -1.302082
    106          6           0      -32.239415    3.343292   -1.504353
    107          6           0      -30.853618    2.646373   -1.224234
    108          6           0      -34.320892    2.039053   -2.287761
    109          6           0      -32.501742    4.392783   -0.431411
    110          6           0      -32.080438    5.806953   -0.730755
    111          7           0      -28.100271    1.608834   -0.586410
    112          6           0      -28.323107    2.933005   -0.879883
    113          6           0      -27.129119    3.679612   -0.715340
    114          6           0      -26.176794    2.799220   -0.149473
    115          6           0      -26.891205    1.578243    0.009298
    116          6           0      -26.939198    5.129444   -0.917015
    117          6           0      -24.829065    2.584139    0.394380
    118          8           0      -23.876543    3.374592    0.431903
    119          6           0      -24.764946    1.109970    0.950585
    120          6           0      -23.884395    0.330941    0.121483
    121          8           0      -24.239932   -0.056377   -1.016740
    122          8           0      -22.719716    0.199010    0.786279
    123          6           0      -21.690537   -0.729134    0.242810
    124          1           0      -29.186132   -4.065034    1.277403
    125          1           0      -33.844185   -0.623156   -1.190209
    126          1           0      -29.591503    4.449243   -1.531289
    127          1           0      -24.936762   -2.121980    1.107790
    128          1           0      -27.225071   -3.296282    2.598290
    129          1           0      -26.901721   -4.975824    0.807014
    130          1           0      -25.343878   -4.666335    1.572371
    131          1           0      -25.682783   -3.969796    0.020359
    132          1           0      -25.681572   -2.355619    3.713037
    133          1           0      -25.899973   -0.590589    3.484344
    134          1           0      -23.646927   -0.353153    3.603123
    135          1           0      -23.346590   -1.692524    2.483642
    136          1           0      -32.596304   -5.025770    1.647298
    137          1           0      -30.848092   -5.340139    1.550169
    138          1           0      -31.784346   -5.860670    0.251776
    139          1           0      -35.903782   -3.351617   -1.498979
    140          1           0      -34.512820   -2.356724   -2.169955
    141          1           0      -35.242165   -1.913268   -0.553741
    142          1           0      -33.666157    2.241407   -0.323424
    143          1           0      -32.268466    3.838208   -2.475033
    144          1           0      -34.517703    3.029058   -2.698265
    145          1           0      -35.171071    1.655637   -1.723239
    146          1           0      -34.170310    1.285495   -3.059911
    147          1           0      -32.071629    4.132500    0.536162
    148          1           0      -33.553882    4.439362   -0.150538
    149          1           0      -31.806068    5.956349   -1.774867
    150          1           0      -31.217044    6.035060   -0.105428
    151          1           0      -32.820422    6.516520   -0.360695
    152          1           0      -27.621581    5.524549   -1.670242
    153          1           0      -25.904911    5.244192   -1.242245
    154          1           0      -27.173616    5.587415    0.044201
    155          1           0      -24.551863    1.032777    2.016775
    156          1           0      -20.783959   -0.201653    0.542990
    157          1           0      -21.771064   -0.902465   -0.829900
    158          1           0      -21.621318   -1.641091    0.836765
 ---------------------------------------------------------------------

 SCF Done:  E(RPBE1PBE) =  -4067.36184649     A.U. after   17 cycles

 Excitation energies and oscillator strengths:

 Excited State   1:      Singlet-A      1.7680 eV  701.26 nm  f=0.0000  <S**2>=0.000
     312 -> 313        0.70711
 This state for optimization and/or second-order correction.
 Total Energy, E(TD-HF/TD-DFT) =  -4067.29687279
 Copying the excited state density for this state as the 1-particle RhoCI density.

 Excited State   2:      Singlet-A      1.8584 eV  667.14 nm  f=0.3571  <S**2>=0.000
     309 -> 315        0.17009
     311 -> 313        0.69177
     311 <- 313       -0.10671

 Excited State   3:      Singlet-A      1.8689 eV  663.41 nm  f=0.3725  <S**2>=0.000
     310 -> 316       -0.16690
     312 -> 314        0.69405
     312 <- 314       -0.10953

 Excited State   4:      Singlet-A      2.1844 eV  567.59 nm  f=0.1536  <S**2>=0.000
     309 -> 313        0.65883
     311 -> 315       -0.23362

 Excited State   5:      Singlet-A      2.2604 eV  548.50 nm  f=0.0000  <S**2>=0.000
     311 -> 314        0.70711

 The electronic state is 1-A.
 Alpha  occ. eigenvalues --  -46.93867 -46.91948 -19.27168 -19.25831 -19.20149
 Alpha  occ. eigenvalues --  -19.19942 -19.19734 -19.19165 -19.19150 -19.18798
 Alpha  occ. eigenvalues --  -14.42961 -14.41975 -14.41781 -14.41554 -14.39638
 Alpha  occ. eigenvalues --  -14.39634 -14.39101 -14.38252 -10.36518 -10.36207
 Alpha  occ. eigenvalues --  -10.32710 -10.32514 -10.32248 -10.31542 -10.30684
 Alpha  occ. eigenvalues --  -10.30076 -10.29551 -10.29514 -10.29488 -10.29253
 Alpha  occ. eigenvalues --  -10.29250 -10.28780 -10.28774 -10.28508 -10.28451
 Alpha  occ. eigenvalues --  -10.28212 -10.27981 -10.27815 -10.27239 -10.27194
 Alpha  occ. eigenvalues --  -10.27045 -10.27013 -10.26690 -10.26528 -10.26517
 Alpha  occ. eigenvalues --  -10.26495 -10.26296 -10.26285 -10.26222 -10.26183
 Alpha  occ. eigenvalues --  -10.26103 -10.25937 -10.25872 -10.25779 -10.25682
 Alpha  occ. eigenvalues --  -10.25672 -10.25652 -10.25634 -10.25625 -10.25401
 Alpha  occ. eigenvalues --  -10.25142 -10.25125 -10.25079 -10.25046 -10.25039
 Alpha  occ. eigenvalues --  -10.24747 -10.24736 -10.24551 -10.24388 -10.24354
 Alpha  occ. eigenvalues --  -10.24132 -10.23851 -10.23837 -10.23697 -10.23671
 Alpha  occ. eigenvalues --  -10.23595 -10.23562 -10.23449 -10.23444 -10.23396
 Alpha  occ. eigenvalues --  -10.23272 -10.23042 -10.22964 -10.22840 -10.22657
 Alpha  occ. eigenvalues --  -10.22635  -3.15669  -3.14120  -1.88536  -1.88017
 Alpha  occ. eigenvalues --   -1.87892  -1.86936  -1.86474  -1.86369  -1.11430
 Alpha  occ. eigenvalues --   -1.10351  -1.06612  -1.04763  -1.04637  -1.03555
 Alpha  occ. eigenvalues --   -1.02382  -1.02207  -0.99678  -0.98774  -0.98686
 Alpha  occ. eigenvalues --   -0.97878  -0.97490  -0.97059  -0.96386  -0.96265
 Alpha  occ. eigenvalues --   -0.87051  -0.86638  -0.83978  -0.83780  -0.83640
 Alpha  occ. eigenvalues --   -0.83574  -0.82982  -0.82495  -0.82023  -0.81718
 Alpha  occ. eigenvalues --   -0.81652  -0.81032  -0.80838  -0.79955  -0.79058
 Alpha  occ. eigenvalues --   -0.78727  -0.78582  -0.78221  -0.77540  -0.77157
 Alpha  occ. eigenvalues --   -0.76379  -0.76165  -0.75507  -0.75270  -0.75123
 Alpha  occ. eigenvalues --   -0.74522  -0.72262  -0.72098  -0.71660  -0.71486
 Alpha  occ. eigenvalues --   -0.71190  -0.70917  -0.70577  -0.70524  -0.69869
 Alpha  occ. eigenvalues --   -0.69447  -0.68030  -0.67270  -0.66741  -0.66178
 Alpha  occ. eigenvalues --   -0.63782  -0.63561  -0.63552  -0.63037  -0.62424
 Alpha  occ. eigenvalues --   -0.62231  -0.61629  -0.61540  -0.60080  -0.60079
 Alpha  occ. eigenvalues --   -0.60007  -0.59902  -0.59772  -0.59525  -0.59325
 Alpha  occ. eigenvalues --   -0.59159  -0.57609  -0.56858  -0.54822  -0.54655
 Alpha  occ. eigenvalues --   -0.54395  -0.54233  -0.54028  -0.53914  -0.53691
 Alpha  occ. eigenvalues --   -0.53037  -0.52832  -0.52458  -0.51833  -0.51508
 Alpha  occ. eigenvalues --   -0.51151  -0.50946  -0.50571  -0.50515  -0.50026
 Alpha  occ. eigenvalues --   -0.49586  -0.49356  -0.49291  -0.48900  -0.48514
 Alpha  occ. eigenvalues --   -0.48442  -0.48298  -0.47830  -0.47763  -0.47451
 Alpha  occ. eigenvalues --   -0.47401  -0.47341  -0.47037  -0.46942  -0.46751
 Alpha  occ. eigenvalues --   -0.46710  -0.46258  -0.46144  -0.46113  -0.45960
 Alpha  occ. eigenvalues --   -0.45850  -0.45692  -0.45189  -0.45050  -0.44979
 Alpha  occ. eigenvalues --   -0.44822  -0.44817  -0.44495  -0.44361  -0.44320
 Alpha  occ. eigenvalues --   -0.44185  -0.43763  -0.43651  -0.43578  -0.43547
 Alpha  occ. eigenvalues --   -0.43359  -0.43074  -0.42973  -0.42951  -0.42700
 Alpha  occ. eigenvalues --   -0.42681  -0.42350  -0.42214  -0.42007  -0.41938
 Alpha  occ. eigenvalues --   -0.41773  -0.41671  -0.41462  -0.41346  -0.41126
 Alpha  occ. eigenvalues --   -0.41012  -0.40815  -0.40786  -0.40766  -0.40518
 Alpha  occ. eigenvalues --   -0.40372  -0.40321  -0.40173  -0.40050  -0.39981
 Alpha  occ. eigenvalues --   -0.39913  -0.39574  -0.39506  -0.39455  -0.39323
 Alpha  occ. eigenvalues --   -0.39108  -0.39036  -0.38889  -0.38686  -0.38501
 Alpha  occ. eigenvalues --   -0.38396  -0.38322  -0.38127  -0.37906  -0.37789
 Alpha  occ. eigenvalues --   -0.37670  -0.37548  -0.37380  -0.37293  -0.37169
 Alpha  occ. eigenvalues --   -0.37046  -0.36821  -0.36596  -0.36531  -0.36435
 Alpha  occ. eigenvalues --   -0.36401  -0.36045  -0.35537  -0.35321  -0.35200
 Alpha  occ. eigenvalues --   -0.35099  -0.34963  -0.34675  -0.34417  -0.34085
 Alpha  occ. eigenvalues --   -0.33392  -0.33382  -0.33176  -0.32883  -0.32625
 Alpha  occ. eigenvalues --   -0.32463  -0.32218  -0.32211  -0.31792  -0.31774
 Alpha  occ. eigenvalues --   -0.31070  -0.30943  -0.29789  -0.29424  -0.29367
 Alpha  occ. eigenvalues --   -0.29114  -0.28776  -0.28590  -0.27446  -0.27395
 Alpha  occ. eigenvalues --   -0.26156  -0.26116  -0.25824  -0.25781  -0.25569
 Alpha  occ. eigenvalues --   -0.25522  -0.25036  -0.24756  -0.21587  -0.21176
 Alpha  occ. eigenvalues --   -0.19774  -0.18879
 Alpha virt. eigenvalues --   -0.12154  -0.11240  -0.05873  -0.05255  -0.04150
 Alpha virt. eigenvalues --   -0.03720  -0.02240  -0.01686  -0.00526  -0.00409
 Alpha virt. eigenvalues --    0.00000   0.00359   0.00555   0.00610   0.01383

 Mulliken charges:
               1
     1  Mg  12.000000
     2  C    6.000000
     3  C    6.000000
     4  C    6.000000
     5  C    6.000000
     6  N    7.000000
     7  C    6.000000
     8  C    6.000000
     9  C    6.000000
    10  C    6.000000
    11  C    6.000000
    12  C    6.000000
    13  C    6.000000
    14  H    1.000000
    15  N    7.000000
    16  C    6.000000
    17  C    6.000000
    18  C    6.000000
    19  C    6.000000
    20  C    6.000000
    21  C    6.000000
    22  O    8.000000
    23  C    6.000000
    24  N    7.000000
    25  C    6.000000
    26  C    6.000000
    27  C    6.000000
    28  C    6.000000
    29  C    6.000000
    30  C    6.000000
    31  C    6.000000
    32  N    7.000000
    33  C    6.000000
    34  C    6.000000
    35  C    6.000000
    36  C    6.000000
    37  C    6.000000
    38  C    6.000000
    39  O    8.000000
    40  C    6.000000
    41  C    6.000000
    42  O    8.000000
    43  O    8.000000
    44  C    6.000000
    45  H    1.000000
    46  H    1.000000
    47  H    1.000000
    48  H    1.000000
    49  H    1.000000
    50  H    1.000000
    51  H    1.000000
    52  H    1.000000
    53  H    1.000000
    54  H    1.000000
    55  H    1.000000
    56  H    1.000000
    57  H    1.000000
    58  H    1.000000
    59  H    1.000000
    60  H    1.000000
    61  H    1.000000
    62  H    1.000000
    63  H    1.000000
    64  H    1.000000
    65  H    1.000000
    66  H    1.000000
    67  H    1.000000
    68  H    1.000000
    69  H    1.000000
    70  H    1.000000
    71  H    1.000000
    72  H    1.000000
    73  H    1.000000
    74  H    1.000000
    75  H    1.000000
    76  H    1.000000
    77  H    1.000000
    78  H    1.000000
    79  H    1.000000
    80  Mg  12.000000
    81  C    6.000000
    82  C    6.000000
    83  C    6.000000
    84  C    6.000000
    85  N    7.000000
    86  C    6.000000
    87  C    6.000000
    88  C    6.000000
    89  C    6.000000
    90  C    6.000000
    91  C    6.000000
    92  C    6.000000
    93  H    1.000000
    94  N    7.000000
    95  C    6.000000
    96  C    6.000000
    97  C    6.000000
    98  C    6.000000
    99  C    6.000000
   100  C    6.000000
   101  O    8.000000
   102  C    6.000000
   103  N    7.000000
   104  C    6.000000
   105  C    6.000000
   106  C    6.000000
   107  C    6.000000
   108  C    6.000000
   109  C    6.000000
   110  C    6.000000
   111  N    7.000000
   112  C    6.000000
   113  C    6.000000
   114  C    6.000000
   115  C    6.000000
   116  C    6.000000
   117  C    6.000000
   118  O    8.000000
   119  C    6.000000
   120  C    6.000000
   121  O    8.000000
   122  O    8.000000
   123  C    6.000000
   124  H    1.000000
   125  H    1.000000
   126  H    1.000000
   127  H    1.000000
   128  H    1.000000
   129  H    1.000000
   130  H    1.000000
   131  H    1.000000
   132  H    1.000000
   133  H    1.000000
   134  H    1.000000
   135  H    1.000000
   136  H    1.000000
   137  H    1.000000
   138  H    1.000000
   139  H    1.000000
   140  H    1.000000
   141  H    1.000000
   142  H    1.000000
   143  H    1.000000
   144  H    1.000000
   145  H    1.000000
   146  H    1.000000
   147  H    1.000000
   148  H    1.000000
   149  H    1.000000
   150  H    1.000000
   151  H    1.000000
   152  H    1.000000
   153  H    1.000000
   154  H    1.000000
   155  H    1.000000
   156  H    1.000000
   157  H    1.000000
   158  H    1.000000
 Sum of Mulliken charges = 624.00000

 Dipole moment (field-independent basis, Debye):
    X=             -0.0000    Y=              0.0000    Z=              0.0000  Tot=              0.0000
 Quadrupole moment (field-independent basis, Debye-Ang):
   XX=             -0.0000   YY=              0.0000   ZZ=             -0.0000
   XY=              0.0000   XZ=              0.0000   YZ=              0.0000

 Normal termination of Gaussian 16 at Fri Oct 15 08:06:52 2021.
