 Gaussian 16, Revision A.03,
 Gaussian 16:  ES64L-G16RevA.03 25-Dec-2016

 --------------------------------------------------------
 #p PBE1PBE/Def2SVP td=(nstates=5) density=(transition=1)
 --------------------------------------------------------

 --------------------------------
 TDDFT excited states in gaussian
 --------------------------------
 Symbolic Z-matrix:
 Charge =  0 Multiplicity = 1

                         Standard orientation:
 ---------------------------------------------------------------------
 Center     Atomic      Atomic             Coordinates (Angstroms)
 Number     Number       Type             X           Y           Z
 ---------------------------------------------------------------------
      1         12           0      -11.843087    0.197177   -0.340965
      2          6           0       -8.816395   -1.182143    0.605696
      3          6           0      -13.446792   -2.771220    0.758839
      4          6           0      -14.905796    1.690504   -0.704220
      5          6           0      -10.331773    3.241117   -0.956894
      6          7           0      -11.148098   -1.775131    0.448541
      7          6           0       -9.858532   -2.057804    0.847139
      8          6           0       -9.720115   -3.402201    1.655271
      9          6           0      -11.135365   -4.083341    1.343378
     10          6           0      -12.016682   -2.842529    0.763420
     11          6           0      -11.193770   -5.339304    0.392827
     12          6           0       -9.477564   -3.244056    3.115089
     13          6           0       -8.213923   -3.785918    3.755231
     14          1           0       -8.328562   -4.196343    5.232108
     15          7           0      -13.912010   -0.491421   -0.103293
     16          6           0      -14.296461   -1.780138    0.312383
     17          6           0      -15.718499   -1.899313    0.250350
     18          6           0      -16.192970   -0.519586   -0.034170
     19          6           0      -14.990342    0.331913   -0.290705
     20          6           0      -16.497358   -3.141600    0.695128
     21          6           0      -17.693337   -0.179365   -0.059216
     22          8           0      -18.631692   -0.938528    0.165030
     23          6           0      -18.058658    1.262672   -0.039791
     24          7           0      -12.569864    2.315609   -0.612750
     25          6           0      -13.852455    2.572411   -0.903705
     26          6           0      -14.001389    4.093123   -0.903679
     27          6           0      -12.519068    4.668685   -1.079371
     28          6           0      -11.703547    3.311266   -0.899826
     29          6           0      -14.861211    4.538519   -2.139274
     30          6           0      -11.996222    5.808149   -0.111491
     31          6           0      -11.675038    7.193957   -0.650927
     32          7           0       -9.907632    0.910419   -0.286164
     33          6           0       -9.417166    2.181525   -0.601139
     34          6           0       -8.006816    2.232335   -0.364382
     35          6           0       -7.686578    0.928114    0.124520
     36          6           0       -8.919415    0.166762    0.091152
     37          6           0       -7.070711    3.384626   -0.550556
     38          6           0       -6.670611    0.056492    0.550301
     39          8           0       -5.483979    0.289999    0.664227
     40          6           0       -7.352032   -1.307482    0.956192
     41          6           0       -6.559255   -2.412720    0.395287
     42          8           0       -5.814517   -3.116035    1.068592
     43          8           0       -6.766865   -2.503659   -0.972970
     44          6           0       -5.962860   -3.570301   -1.610831
     45          1           0      -14.045016   -3.644904    1.024162
     46          1           0      -15.918263    2.060558   -0.880940
     47          1           0       -9.879257    4.222063   -1.115574
     48          1           0       -8.923520   -4.004833    1.220340
     49          1           0      -11.584649   -4.314604    2.309841
     50          1           0      -10.170702   -5.695173    0.271619
     51          1           0      -11.643822   -5.150911   -0.581975
     52          1           0      -11.834773   -6.073764    0.879030
     53          1           0      -10.277324   -3.789282    3.618563
     54          1           0       -9.476043   -2.187014    3.378923
     55          1           0       -7.475602   -2.984589    3.757494
     56          1           0       -7.832123   -4.681950    3.266418
     57          1           0      -15.992573   -3.998938    1.139836
     58          1           0      -17.050752   -3.394417   -0.208936
     59          1           0      -17.295616   -2.724591    1.308290
     60          1           0      -18.181011    1.800841   -0.978761
     61          1           0      -17.428781    1.838486    0.638458
     62          1           0      -19.065437    1.308489    0.377080
     63          1           0      -14.456885    4.474238    0.010594
     64          1           0      -12.344261    4.943698   -2.118932
     65          1           0      -15.633689    5.206613   -1.758473
     66          1           0      -15.317443    3.729334   -2.710910
     67          1           0      -14.283642    5.070376   -2.895694
     68          1           0      -11.104066    5.375357    0.340576
     69          1           0      -12.808464    5.967929    0.598973
     70          1           0      -10.964003    7.614970    0.060348
     71          1           0      -12.577805    7.804111   -0.614765
     72          1           0      -11.212822    7.304468   -1.631299
     73          1           0       -6.084876    3.015912   -0.266013
     74          1           0       -7.440201    4.202619    0.067138
     75          1           0       -6.982073    3.751000   -1.573464
     76          1           0       -7.231523   -1.338952    2.039579
     77          1           0       -5.000122   -3.172462   -1.931533
     78          1           0       -6.590926   -3.983725   -2.399923
     79          1           0       -5.794123   -4.409170   -0.936205
     80         12           0       11.540311    0.540150   -0.063438
     81          6           0       10.682966   -2.768726   -0.450955
     82          6           0        8.251875    1.491556    0.028298
     83          6           0       12.438939    3.874272    0.526062
     84          6           0       14.782033   -0.368127    0.706289
     85          7           0        9.712395   -0.623647    0.011288
     86          6           0        9.533335   -1.963262   -0.344320
     87          6           0        8.054841   -2.358486   -0.310757
     88          6           0        7.414922   -0.947130   -0.335155
     89          6           0        8.513204    0.079579    0.009478
     90          6           0        6.623843   -0.662654   -1.630668
     91          6           0        7.699927   -3.185927    0.940537
     92          6           0        6.742994   -4.409940    0.731227
     93          1           0        5.857989   -4.748227    1.866681
     94          7           0       10.502031    2.375508    0.173491
     95          6           0        9.166682    2.574668    0.089821
     96          6           0        8.812044    3.960167    0.012136
     97          6           0       10.016256    4.683125    0.016393
     98          6           0       11.090259    3.624943    0.220596
     99          6           0        7.389483    4.477181   -0.211567
    100          6           0       10.187392    6.241876   -0.089706
    101          8           0        9.152933    6.957020   -0.102578
    102          6           0       11.591001    6.965865   -0.266763
    103          7           0       13.291525    1.573861    0.826213
    104          6           0       13.441505    2.920701    0.810797
    105          6           0       14.856402    3.357597    1.091390
    106          6           0       15.620303    2.020481    1.202545
    107          6           0       14.527954    1.005447    0.856329
    108          6           0       15.442962    4.376456    0.058765
    109          6           0       16.365329    1.831746    2.608953
    110          6           0       17.886597    2.014336    2.556658
    111          7           0       12.578566   -1.185479    0.050244
    112          6           0       13.933350   -1.451572    0.347424
    113          6           0       14.229928   -2.856414    0.037584
    114          6           0       12.995422   -3.362251   -0.345124
    115          6           0       12.044111   -2.340306   -0.191760
    116          6           0       15.509035   -3.609033    0.127534
    117          6           0       12.311573   -4.588261   -0.780715
    118          8           0       12.746593   -5.676317   -1.192468
    119          6           0       10.774562   -4.240666   -0.912119
    120          6           0       10.282621   -4.430753   -2.340673
    121          8           0       10.832751   -4.062157   -3.383208
    122          8           0        9.140073   -5.158700   -2.188480
    123          6           0        8.520145   -5.655262   -3.405547
    124          1           0        7.207190    1.808246    0.053051
    125          1           0       12.857441    4.876564    0.639341
    126          1           0       15.791246   -0.721582    0.926905
    127          1           0        7.819358   -2.965636   -1.185470
    128          1           0        6.696045   -0.986260    0.483191
    129          1           0        6.271209   -1.495752   -2.238658
    130          1           0        7.317102   -0.132363   -2.283398
    131          1           0        5.739454   -0.052750   -1.447842
    132          1           0        7.321918   -2.574377    1.759365
    133          1           0        8.661475   -3.483183    1.359758
    134          1           0        7.341384   -5.288948    0.491854
    135          1           0        6.062590   -4.178056   -0.089343
    136          1           0        7.439553    5.086944   -1.113382
    137          1           0        7.000787    4.896462    0.716533
    138          1           0        6.819212    3.587943   -0.480021
    139          1           0       11.996303    7.085055    0.737353
    140          1           0       11.374473    7.942838   -0.698268
    141          1           0       12.122626    6.413072   -1.041765
    142          1           0       14.864292    3.866623    2.055287
    143          1           0       16.327061    1.797965    0.403462
    144          1           0       16.451533    4.100784   -0.248049
    145          1           0       15.482958    5.393230    0.449070
    146          1           0       14.761896    4.455368   -0.787593
    147          1           0       16.243915    0.826819    3.013073
    148          1           0       15.913249    2.479229    3.360199
    149          1           0       18.224287    2.537969    3.451189
    150          1           0       18.156567    2.599303    1.677701
    151          1           0       18.442245    1.079352    2.487208
    152          1           0       16.290846   -2.892801    0.380367
    153          1           0       15.617555   -4.262904   -0.738013
    154          1           0       15.428420   -4.225575    1.023429
    155          1           0       10.157702   -4.815911   -0.221187
    156          1           0        8.465242   -4.917283   -4.206852
    157          1           0        7.522818   -6.085481   -3.314367
    158          1           0        9.094835   -6.497300   -3.792149
 ---------------------------------------------------------------------

 SCF Done:  E(RPBE1PBE) =  -4067.37982382     A.U. after   16 cycles

 Excitation energies and oscillator strengths:

 Excited State   1:      Singlet-A      1.5896 eV  779.99 nm  f=0.0000  <S**2>=0.000
     312 -> 313        0.70708
 This state for optimization and/or second-order correction.
 Total Energy, E(TD-HF/TD-DFT) =  -4067.32140842
 Copying the excited state density for this state as the 1-particle RhoCI density.

 Excited State   2:      Singlet-A      1.8379 eV  674.58 nm  f=0.3680  <S**2>=0.000
     310 -> 316        0.16530
     311 -> 313       -0.11548
     312 -> 314        0.68305
     312 <- 314       -0.10306

 Excited State   3:      Singlet-A      1.8589 eV  666.98 nm  f=0.3534  <S**2>=0.000
     309 -> 315       -0.16790
     311 -> 313        0.68220
     312 -> 314        0.11517
     311 <- 313       -0.10533

 Excited State   4:      Singlet-A      2.1843 eV  567.61 nm  f=0.1546  <S**2>=0.000
     309 -> 313        0.65873
     311 -> 315        0.23352

 Excited State   5:      Singlet-A      2.2258 eV  557.02 nm  f=0.0000  <S**2>=0.000
     310 -> 313        0.70708

 The electronic state is 1-A.
 Alpha  occ. eigenvalues --  -46.93906 -46.92445 -19.26949 -19.25905 -19.20455
 Alpha  occ. eigenvalues --  -19.20220 -19.19578 -19.19198 -19.18852 -19.18786
 Alpha  occ. eigenvalues --  -14.43000 -14.41857 -14.41591 -14.41511 -14.39678
 Alpha  occ. eigenvalues --  -14.39672 -14.39587 -14.38756 -10.36925 -10.36277
 Alpha  occ. eigenvalues --  -10.33578 -10.32280 -10.31990 -10.31596 -10.30725
 Alpha  occ. eigenvalues --  -10.29593 -10.29574 -10.29552 -10.29287 -10.29182
 Alpha  occ. eigenvalues --  -10.28882 -10.28869 -10.28866 -10.28809 -10.28604
 Alpha  occ. eigenvalues --  -10.28350 -10.28251 -10.27854 -10.27674 -10.27583
 Alpha  occ. eigenvalues --  -10.27276 -10.27236 -10.27055 -10.26561 -10.26525
 Alpha  occ. eigenvalues --  -10.26337 -10.26328 -10.26251 -10.26244 -10.26139
 Alpha  occ. eigenvalues --  -10.26139 -10.25844 -10.25831 -10.25826 -10.25822
 Alpha  occ. eigenvalues --  -10.25730 -10.25720 -10.25680 -10.25679 -10.25591
 Alpha  occ. eigenvalues --  -10.25580 -10.25577 -10.25268 -10.25178 -10.25161
 Alpha  occ. eigenvalues --  -10.25107 -10.24771 -10.24684 -10.24583 -10.24534
 Alpha  occ. eigenvalues --  -10.24510 -10.24430 -10.24165 -10.24088 -10.24028
 Alpha  occ. eigenvalues --  -10.23881 -10.23737 -10.23698 -10.23476 -10.23414
 Alpha  occ. eigenvalues --  -10.23369 -10.23265 -10.23147 -10.23007 -10.22664
 Alpha  occ. eigenvalues --  -10.22480  -3.15707  -3.14557  -1.88574  -1.88056
 Alpha  occ. eigenvalues --   -1.87930  -1.87363  -1.86918  -1.86810  -1.11559
 Alpha  occ. eigenvalues --   -1.10424  -1.04818  -1.04669  -1.03132  -1.03014
 Alpha  occ. eigenvalues --   -1.02546  -1.02454  -0.99719  -0.99296  -0.98810
 Alpha  occ. eigenvalues --   -0.98607  -0.97885  -0.97098  -0.96597  -0.96304
 Alpha  occ. eigenvalues --   -0.87098  -0.85743  -0.83817  -0.83683  -0.83068
 Alpha  occ. eigenvalues --   -0.82973  -0.82795  -0.82523  -0.82060  -0.81759
 Alpha  occ. eigenvalues --   -0.81645  -0.81119  -0.80444  -0.79992  -0.78767
 Alpha  occ. eigenvalues --   -0.78432  -0.78255  -0.78108  -0.77197  -0.76653
 Alpha  occ. eigenvalues --   -0.76415  -0.75650  -0.75319  -0.75198  -0.75167
 Alpha  occ. eigenvalues --   -0.74392  -0.72299  -0.72215  -0.71597  -0.71538
 Alpha  occ. eigenvalues --   -0.71228  -0.70830  -0.70572  -0.70108  -0.69904
 Alpha  occ. eigenvalues --   -0.69469  -0.68069  -0.67076  -0.66781  -0.66013
 Alpha  occ. eigenvalues --   -0.63812  -0.63601  -0.63437  -0.63220  -0.62465
 Alpha  occ. eigenvalues --   -0.62185  -0.61583  -0.61435  -0.60458  -0.60111
 Alpha  occ. eigenvalues --   -0.59945  -0.59811  -0.59544  -0.59367  -0.59274
 Alpha  occ. eigenvalues --   -0.58994  -0.57676  -0.57208  -0.54860  -0.54436
 Alpha  occ. eigenvalues --   -0.54364  -0.54068  -0.54053  -0.53730  -0.53409
 Alpha  occ. eigenvalues --   -0.53075  -0.52498  -0.52218  -0.51640  -0.51561
 Alpha  occ. eigenvalues --   -0.51188  -0.50559  -0.50376  -0.50294  -0.50079
 Alpha  occ. eigenvalues --   -0.49680  -0.49449  -0.49414  -0.48554  -0.48343
 Alpha  occ. eigenvalues --   -0.48291  -0.47880  -0.47798  -0.47723  -0.47431
 Alpha  occ. eigenvalues --   -0.47386  -0.47147  -0.47082  -0.46864  -0.46754
 Alpha  occ. eigenvalues --   -0.46489  -0.46185  -0.45998  -0.45982  -0.45773
 Alpha  occ. eigenvalues --   -0.45735  -0.45612  -0.45418  -0.45333  -0.45009
 Alpha  occ. eigenvalues --   -0.44858  -0.44476  -0.44367  -0.44224  -0.43985
 Alpha  occ. eigenvalues --   -0.43832  -0.43695  -0.43581  -0.43554  -0.43392
 Alpha  occ. eigenvalues --   -0.43086  -0.43015  -0.42737  -0.42717  -0.42640
 Alpha  occ. eigenvalues --   -0.42383  -0.42350  -0.42119  -0.41995  -0.41976
 Alpha  occ. eigenvalues --   -0.41864  -0.41805  -0.41508  -0.41389  -0.41374
 Alpha  occ. eigenvalues --   -0.41141  -0.41024  -0.40855  -0.40808  -0.40570
 Alpha  occ. eigenvalues --   -0.40551  -0.40411  -0.40256  -0.40217  -0.40035
 Alpha  occ. eigenvalues --   -0.39945  -0.39493  -0.39415  -0.39360  -0.39076
 Alpha  occ. eigenvalues --   -0.39045  -0.38727  -0.38615  -0.38553  -0.38542
 Alpha  occ. eigenvalues --   -0.38420  -0.38159  -0.38041  -0.37839  -0.37590
 Alpha  occ. eigenvalues --   -0.37583  -0.37327  -0.37206  -0.37116  -0.37002
 Alpha  occ. eigenvalues --   -0.36869  -0.36631  -0.36472  -0.36435  -0.36351
 Alpha  occ. eigenvalues --   -0.36077  -0.35943  -0.35638  -0.35426  -0.35361
 Alpha  occ. eigenvalues --   -0.34993  -0.34715  -0.34539  -0.34460  -0.34110
 Alpha  occ. eigenvalues --   -0.33457  -0.33412  -0.33219  -0.32957  -0.32922
 Alpha  occ. eigenvalues --   -0.32504  -0.32261  -0.32250  -0.31863  -0.31782
 Alpha  occ. eigenvalues --   -0.31336  -0.30986  -0.29914  -0.29829  -0.29629
 Alpha  occ. eigenvalues --   -0.29426  -0.28818  -0.28541  -0.27487  -0.26824
 Alpha  occ. eigenvalues --   -0.26160  -0.26130  -0.25856  -0.25647  -0.25624
 Alpha  occ. eigenvalues --   -0.25489  -0.25277  -0.25072  -0.21627  -0.20953
 Alpha  occ. eigenvalues --   -0.19813  -0.18598
 Alpha virt. eigenvalues --   -0.12193  -0.10994  -0.05910  -0.05407  -0.04191
 Alpha virt. eigenvalues --   -0.03864  -0.02371  -0.02282  -0.00995  -0.00447
 Alpha virt. eigenvalues --    0.00303   0.00360   0.00562   0.00832   0.01719

 Mulliken charges:
               1
     1  Mg  12.000000
     2  C    6.000000
     3  C    6.000000
     4  C    6.000000
     5  C    6.000000
     6  N    7.000000
     7  C    6.000000
     8  C    6.000000
     9  C    6.000000
    10  C    6.000000
    11  C    6.000000
    12  C    6.000000
    13  C    6.000000
    14  H    1.000000
    15  N    7.000000
    16  C    6.000000
    17  C    6.000000
    18  C    6.000000
    19  C    6.000000
    20  C    6.000000
    21  C    6.000000
    22  O    8.000000
    23  C    6.000000
    24  N    7.000000
    25  C    6.000000
    26  C    6.000000
    27  C    6.000000
    28  C    6.000000
    29  C    6.000000
    30  C    6.000000
    31  C    6.000000
    32  N    7.000000
    33  C    6.000000
    34  C    6.000000
    35  C    6.000000
    36  C    6.000000
    37  C    6.000000
    38  C    6.000000
    39  O    8.000000
    40  C    6.000000
    41  C    6.000000
    42  O    8.000000
    43  O    8.000000
    44  C    6.000000
    45  H    1.000000
    46  H    1.000000
    47  H    1.000000
    48  H    1.000000
    49  H    1.000000
    50  H    1.000000
    51  H    1.000000
    52  H    1.000000
    53  H    1.000000
    54  H    1.000000
    55  H    1.000000
    56  H    1.000000
    57  H    1.000000
    58  H    1.000000
    59  H    1.000000
    60  H    1.000000
    61  H    1.000000
    62  H    1.000000
    63  H    1.000000
    64  H    1.000000
    65  H    1.000000
    66  H    1.000000
    67  H    1.000000
    68  H    1.000000
    69  H    1.000000
    70  H    1.000000
    71  H    1.000000
    72  H    1.000000
    73  H    1.000000
    74  H    1.000000
    75  H    1.000000
    76  H    1.000000
    77  H    1.000000
    78  H    1.000000
    79  H    1.000000
    80  Mg  12.000000
    81  C    6.000000
    82  C    6.000000
    83  C    6.000000
    84  C    6.000000
    85  N    7.000000
    86  C    6.000000
    87  C    6.000000
    88  C    6.000000
    89  C    6.000000
    90  C    6.000000
    91  C    6.000000
    92  C    6.000000
    93  H    1.000000
    94  N    7.000000
    95  C    6.000000
    96  C    6.000000
    97  C    6.000000
    98  C    6.000000
    99  C    6.000000
   100  C    6.000000
   101  O    8.000000
   102  C    6.000000
   103  N    7.000000
   104  C    6.000000
   105  C    6.000000
   106  C    6.000000
   107  C    6.000000
   108  C    6.000000
   109  C    6.000000
   110  C    6.000000
   111  N    7.000000
   112  C    6.000000
   113  C    6.000000
   114  C    6.000000
   115  C    6.000000
   116  C    6.000000
   117  C    6.000000
   118  O    8.000000
   119  C    6.000000
   120  C    6.000000
   121  O    8.000000
   122  O    8.000000
   123  C    6.000000
   124  H    1.000000
   125  H    1.000000
   126  H    1.000000
   127  H    1.000000
   128  H    1.000000
   129  H    1.000000
   130  H    1.000000
   131  H    1.000000
   132  H    1.000000
   133  H    1.000000
   134  H    1.000000
   135  H    1.000000
   136  H    1.000000
   137  H    1.000000
   138  H    1.000000
   139  H    1.000000
   140  H    1.000000
   141  H    1.000000
   142  H    1.000000
   143  H    1.000000
   144  H    1.000000
   145  H    1.000000
   146  H    1.000000
   147  H    1.000000
   148  H    1.000000
   149  H    1.000000
   150  H    1.000000
   151  H    1.000000
   152  H    1.000000
   153  H    1.000000
   154  H    1.000000
   155  H    1.000000
   156  H    1.000000
   157  H    1.000000
   158  H    1.000000
 Sum of Mulliken charges = 624.00000

 Dipole moment (field-independent basis, Debye):
    X=              0.0000    Y=              0.0000    Z=             -0.0000  Tot=              0.0000
 Quadrupole moment (field-independent basis, Debye-Ang):
   XX=             -0.0000   YY=              0.0000   ZZ=             -0.0000
   XY=              0.0000   XZ=              0.0000   YZ=             -0.0000

 Normal termination of Gaussian 16 at Fri Oct 15 09:04:15 2021.
