 Gaussian 16, Revision A.03,
 Gaussian 16:  ES64L-G16RevA.03 25-Dec-2016

 --------------------------------------------------------
 #p PBE1PBE/Def2SVP td=(nstates=5) density=(transition=1)
 --------------------------------------------------------

 --------------------------------
 TDDFT excited states in gaussian
 --------------------------------
 Symbolic Z-matrix:
 Charge =  0 Multiplicity = 1

                         Standard orientation:
 ---------------------------------------------------------------------
 Center     Atomic      Atomic             Coordinates (Angstroms)
 Number     Number       Type             X           Y           Z
 ---------------------------------------------------------------------
      1         12           0      -18.471776   -0.468169    0.338924
      2          6           0      -16.314967    2.206729   -0.381755
      3          6           0      -20.275983    0.362850   -2.417264
      4          6           0      -20.122134   -3.238682    0.883873
      5          6           0      -15.903025   -1.547953    2.619711
      6          7           0      -18.328166    1.131174   -1.142242
      7          6           0      -17.369136    2.096654   -1.264492
      8          6           0      -17.522750    2.753569   -2.644424
      9          6           0      -19.006009    2.542822   -2.927651
     10          6           0      -19.180892    1.205039   -2.183548
     11          6           0      -19.897473    3.653717   -2.326119
     12          6           0      -16.603615    2.059776   -3.716671
     13          6           0      -15.388738    2.904960   -4.343515
     14          1           0      -13.948339    2.403385   -4.144157
     15          7           0      -19.952350   -1.353789   -0.662260
     16          6           0      -20.587994   -0.845632   -1.771786
     17          6           0      -21.711441   -1.680354   -2.062548
     18          6           0      -21.810922   -2.701947   -1.060933
     19          6           0      -20.604202   -2.486093   -0.211044
     20          6           0      -22.672955   -1.437316   -3.275944
     21          6           0      -22.979944   -3.747356   -0.955589
     22          8           0      -23.919287   -3.669071   -1.686071
     23          6           0      -23.024072   -4.618150    0.212777
     24          7           0      -17.906689   -2.312199    1.351509
     25          6           0      -18.972153   -3.080740    1.680321
     26          6           0      -18.786986   -3.833984    2.986944
     27          6           0      -17.325362   -3.584821    3.326343
     28          6           0      -16.994524   -2.392801    2.362457
     29          6           0      -19.754437   -3.337401    4.124183
     30          6           0      -16.269564   -4.781662    3.199789
     31          6           0      -15.670465   -5.447842    4.409275
     32          7           0      -16.637731    0.247603    1.151240
     33          6           0      -15.711803   -0.285060    2.057435
     34          6           0      -14.550451    0.566653    2.196951
     35          6           0      -14.768225    1.563519    1.277924
     36          6           0      -16.027813    1.350456    0.626892
     37          6           0      -13.399348    0.306679    3.076889
     38          6           0      -14.196642    2.775309    0.710864
     39          8           0      -13.170161    3.387359    1.030968
     40          6           0      -15.207849    3.292466   -0.290547
     41          6           0      -15.665410    4.663334    0.195668
     42          8           0      -16.181726    4.799795    1.302455
     43          8           0      -15.298737    5.678906   -0.701055
     44          6           0      -15.670242    7.005526   -0.287073
     45          1           0      -20.918109    0.748690   -3.211385
     46          1           0      -20.870729   -3.954230    1.227492
     47          1           0      -15.183764   -1.825536    3.393324
     48          1           0      -17.136932    3.769088   -2.551716
     49          1           0      -19.137510    2.481099   -4.007210
     50          1           0      -20.484428    3.887743   -3.213586
     51          1           0      -19.199653    4.440164   -2.037259
     52          1           0      -20.520787    3.378677   -1.475191
     53          1           0      -17.237030    1.804000   -4.565972
     54          1           0      -16.267387    1.111395   -3.298345
     55          1           0      -15.411998    3.864344   -3.826103
     56          1           0      -15.495344    3.137304   -5.402443
     57          1           0      -22.895581   -2.280463   -3.929156
     58          1           0      -22.196344   -0.660430   -3.874652
     59          1           0      -23.643864   -1.046245   -2.971280
     60          1           0      -22.139827   -5.242523    0.342562
     61          1           0      -23.900236   -5.260965    0.128202
     62          1           0      -23.303576   -4.045984    1.096364
     63          1           0      -19.025121   -4.894355    2.896821
     64          1           0      -17.235915   -3.176040    4.332835
     65          1           0      -20.635750   -3.966849    4.246211
     66          1           0      -19.966092   -2.277266    3.984916
     67          1           0      -19.202132   -3.404382    5.062606
     68          1           0      -15.472589   -4.686270    2.463126
     69          1           0      -16.973483   -5.488792    2.760159
     70          1           0      -15.978030   -6.485975    4.530873
     71          1           0      -15.978380   -4.914713    5.309079
     72          1           0      -14.594696   -5.366666    4.255312
     73          1           0      -13.343693   -0.769920    3.240215
     74          1           0      -13.649708    0.775771    4.028823
     75          1           0      -12.488271    0.756713    2.685206
     76          1           0      -14.608197    3.400597   -1.193316
     77          1           0      -16.725497    7.244450   -0.421853
     78          1           0      -15.107672    7.766063   -0.827819
     79          1           0      -15.453427    7.227731    0.757428
     80         12           0       18.479069   -0.422868   -0.319315
     81          6           0       15.515175    1.311271   -0.626009
     82          6           0       19.469149    2.096510    2.025972
     83          6           0       21.451499   -1.764064   -0.181416
     84          6           0       17.527750   -2.589620   -2.842286
     85          7           0       17.612214    1.639058    0.430018
     86          6           0       16.332416    1.952569    0.317202
     87          6           0       15.913823    2.984287    1.402528
     88          6           0       17.323965    3.556400    1.783494
     89          6           0       18.245960    2.384153    1.411500
     90          6           0       17.672690    4.866248    0.991078
     91          6           0       15.234668    2.171058    2.526901
     92          6           0       14.593021    2.977566    3.664119
     93          1           0       14.854927    4.465330    3.785642
     94          7           0       20.195695   -0.049970    0.792468
     95          6           0       20.372760    1.024797    1.730266
     96          6           0       21.637579    0.763034    2.403442
     97          6           0       22.171101   -0.435103    1.833730
     98          6           0       21.287624   -0.801104    0.727593
     99          6           0       22.229147    1.633730    3.573962
    100          6           0       23.434743   -1.224641    2.310583
    101          8           0       23.809263   -2.147542    1.640350
    102          6           0       24.169951   -0.809975    3.543577
    103          7           0       19.339549   -2.037291   -1.314326
    104          6           0       20.614313   -2.429592   -1.092222
    105          6           0       21.060115   -3.575053   -2.000335
    106          6           0       19.750008   -3.917450   -2.746943
    107          6           0       18.791432   -2.754097   -2.264478
    108          6           0       22.254563   -3.249625   -2.970564
    109          6           0       19.229185   -5.326616   -2.623038
    110          6           0       19.137910   -6.032590   -1.248687
    111          7           0       16.893439   -0.661543   -1.544416
    112          6           0       16.617244   -1.579900   -2.516541
    113          6           0       15.256295   -1.344868   -2.950624
    114          6           0       14.722084   -0.224682   -2.225554
    115          6           0       15.802049    0.154370   -1.382050
    116          6           0       14.559961   -2.155224   -3.998992
    117          6           0       13.623968    0.666008   -2.053756
    118          8           0       12.505467    0.754932   -2.605459
    119          6           0       14.262436    1.870345   -1.169439
    120          6           0       13.164270    2.332055   -0.210038
    121          8           0       12.561317    1.641750    0.519477
    122          8           0       12.985966    3.674154   -0.390593
    123          6           0       12.271948    4.409170    0.633107
    124          1           0       19.788670    2.903275    2.688227
    125          1           0       22.443626   -2.219241   -0.212831
    126          1           0       17.174552   -3.227829   -3.654009
    127          1           0       15.314516    3.796286    0.990976
    128          1           0       17.255622    3.695896    2.862638
    129          1           0       17.564076    5.726578    1.650335
    130          1           0       16.999110    4.926740    0.136034
    131          1           0       18.708186    4.907622    0.653117
    132          1           0       16.010903    1.578594    3.010506
    133          1           0       14.560060    1.411412    2.133195
    134          1           0       14.611298    2.457488    4.622130
    135          1           0       13.521858    2.876922    3.488241
    136          1           0       23.265418    1.921521    3.394243
    137          1           0       22.096527    1.036930    4.476228
    138          1           0       21.597906    2.509391    3.729883
    139          1           0       24.595956   -1.756762    3.876309
    140          1           0       23.502569   -0.504576    4.348640
    141          1           0       24.797724    0.081050    3.542022
    142          1           0       21.356501   -4.372614   -1.319415
    143          1           0       19.800252   -3.703184   -3.814471
    144          1           0       22.047621   -3.807737   -3.883295
    145          1           0       23.107391   -3.662753   -2.431543
    146          1           0       22.389988   -2.171862   -3.060502
    147          1           0       20.060434   -5.871760   -3.068927
    148          1           0       18.291006   -5.564906   -3.125296
    149          1           0       19.727848   -6.934697   -1.092091
    150          1           0       18.142851   -6.443795   -1.078944
    151          1           0       19.436646   -5.333492   -0.467449
    152          1           0       13.585643   -1.685474   -4.130625
    153          1           0       14.376522   -3.164909   -3.629141
    154          1           0       15.124232   -2.313657   -4.917541
    155          1           0       14.571116    2.617236   -1.901149
    156          1           0       11.583272    4.818284   -0.106256
    157          1           0       12.905755    5.073318    1.221111
    158          1           0       11.703772    3.784860    1.323174
 ---------------------------------------------------------------------

 SCF Done:  E(RPBE1PBE) =  -4067.37652179     A.U. after   16 cycles

 Excitation energies and oscillator strengths:

 Excited State   1:      Singlet-A      1.8785 eV  660.03 nm  f=0.4253  <S**2>=0.000
     309 -> 315       -0.18253
     312 -> 314        0.68645
     312 <- 314       -0.10040
 This state for optimization and/or second-order correction.
 Total Energy, E(TD-HF/TD-DFT) =  -4067.30748936
 Copying the excited state density for this state as the 1-particle RhoCI density.

 Excited State   2:      Singlet-A      1.8860 eV  657.41 nm  f=0.2970  <S**2>=0.000
     310 -> 316       -0.18921
     311 -> 313        0.68447

 Excited State   3:      Singlet-A      1.9975 eV  620.71 nm  f=0.0000  <S**2>=0.000
     312 -> 313        0.70710

 Excited State   4:      Singlet-A      2.0433 eV  606.80 nm  f=0.0000  <S**2>=0.000
     311 -> 314        0.70710

 Excited State   5:      Singlet-A      2.2138 eV  560.06 nm  f=0.0900  <S**2>=0.000
     310 -> 313        0.64979
     311 -> 316        0.26392

 The electronic state is 1-A.
 Alpha  occ. eigenvalues --  -46.92033 -46.91636 -19.26617 -19.24988 -19.20727
 Alpha  occ. eigenvalues --  -19.20363 -19.19328 -19.19272 -19.19167 -19.18873
 Alpha  occ. eigenvalues --  -14.41596 -14.41548 -14.41225 -14.41147 -14.39032
 Alpha  occ. eigenvalues --  -14.38988 -14.38952 -14.38896 -10.37215 -10.35834
 Alpha  occ. eigenvalues --  -10.32438 -10.32177 -10.32126 -10.31598 -10.28834
 Alpha  occ. eigenvalues --  -10.28822 -10.28668 -10.28626 -10.28486 -10.28354
 Alpha  occ. eigenvalues --  -10.28351 -10.28346 -10.28293 -10.28264 -10.28222
 Alpha  occ. eigenvalues --  -10.28131 -10.27393 -10.27243 -10.27197 -10.26908
 Alpha  occ. eigenvalues --  -10.26759 -10.26671 -10.26247 -10.26235 -10.26183
 Alpha  occ. eigenvalues --  -10.26141 -10.25946 -10.25934 -10.25894 -10.25844
 Alpha  occ. eigenvalues --  -10.25669 -10.25641 -10.25609 -10.25595 -10.25553
 Alpha  occ. eigenvalues --  -10.25382 -10.25334 -10.25293 -10.25254 -10.25239
 Alpha  occ. eigenvalues --  -10.25221 -10.25089 -10.24834 -10.24705 -10.24508
 Alpha  occ. eigenvalues --  -10.24476 -10.24462 -10.24338 -10.24301 -10.24293
 Alpha  occ. eigenvalues --  -10.24162 -10.24059 -10.24036 -10.23794 -10.23728
 Alpha  occ. eigenvalues --  -10.23695 -10.23561 -10.23521 -10.23355 -10.23312
 Alpha  occ. eigenvalues --  -10.23128 -10.23075 -10.22963 -10.22728 -10.22667
 Alpha  occ. eigenvalues --  -10.22613  -3.14222  -3.13851  -1.87036  -1.86693
 Alpha  occ. eigenvalues --   -1.86611  -1.86445  -1.86242  -1.86066  -1.12309
 Alpha  occ. eigenvalues --   -1.10658  -1.06665  -1.06306  -1.04577  -1.03733
 Alpha  occ. eigenvalues --   -1.02949  -1.02643  -0.99850  -0.99332  -0.98845
 Alpha  occ. eigenvalues --   -0.98630  -0.97658  -0.97445  -0.96792  -0.96736
 Alpha  occ. eigenvalues --   -0.87328  -0.87309  -0.83637  -0.83405  -0.83220
 Alpha  occ. eigenvalues --   -0.83027  -0.82816  -0.82739  -0.81872  -0.81625
 Alpha  occ. eigenvalues --   -0.81406  -0.80679  -0.79923  -0.79283  -0.78808
 Alpha  occ. eigenvalues --   -0.78472  -0.78329  -0.77976  -0.76770  -0.76717
 Alpha  occ. eigenvalues --   -0.76690  -0.75937  -0.75702  -0.75332  -0.75136
 Alpha  occ. eigenvalues --   -0.74579  -0.72307  -0.72298  -0.71643  -0.71482
 Alpha  occ. eigenvalues --   -0.71046  -0.70663  -0.70538  -0.70150  -0.69871
 Alpha  occ. eigenvalues --   -0.69407  -0.67266  -0.67070  -0.66552  -0.66426
 Alpha  occ. eigenvalues --   -0.64611  -0.63363  -0.63267  -0.62981  -0.62473
 Alpha  occ. eigenvalues --   -0.62445  -0.61185  -0.60658  -0.60216  -0.60038
 Alpha  occ. eigenvalues --   -0.59633  -0.59395  -0.59362  -0.58982  -0.58792
 Alpha  occ. eigenvalues --   -0.58603  -0.57229  -0.56855  -0.55055  -0.54710
 Alpha  occ. eigenvalues --   -0.54567  -0.54170  -0.53692  -0.53691  -0.53436
 Alpha  occ. eigenvalues --   -0.53348  -0.52913  -0.52701  -0.52347  -0.52240
 Alpha  occ. eigenvalues --   -0.50804  -0.50735  -0.50629  -0.50553  -0.50217
 Alpha  occ. eigenvalues --   -0.49827  -0.49754  -0.49345  -0.48759  -0.48533
 Alpha  occ. eigenvalues --   -0.48249  -0.48093  -0.48042  -0.47647  -0.47640
 Alpha  occ. eigenvalues --   -0.47565  -0.47396  -0.47125  -0.46969  -0.46715
 Alpha  occ. eigenvalues --   -0.46702  -0.46574  -0.46269  -0.46230  -0.45563
 Alpha  occ. eigenvalues --   -0.45446  -0.45336  -0.45232  -0.45078  -0.44745
 Alpha  occ. eigenvalues --   -0.44706  -0.44603  -0.44415  -0.44244  -0.44105
 Alpha  occ. eigenvalues --   -0.44091  -0.43912  -0.43875  -0.43855  -0.43623
 Alpha  occ. eigenvalues --   -0.43321  -0.43254  -0.42960  -0.42889  -0.42767
 Alpha  occ. eigenvalues --   -0.42698  -0.42604  -0.42280  -0.42194  -0.41798
 Alpha  occ. eigenvalues --   -0.41514  -0.41394  -0.41256  -0.41224  -0.40979
 Alpha  occ. eigenvalues --   -0.40956  -0.40809  -0.40666  -0.40656  -0.40619
 Alpha  occ. eigenvalues --   -0.40209  -0.40085  -0.39959  -0.39906  -0.39663
 Alpha  occ. eigenvalues --   -0.39498  -0.39171  -0.39025  -0.38952  -0.38670
 Alpha  occ. eigenvalues --   -0.38595  -0.38335  -0.38165  -0.38139  -0.38094
 Alpha  occ. eigenvalues --   -0.37852  -0.37758  -0.37690  -0.37566  -0.37347
 Alpha  occ. eigenvalues --   -0.37194  -0.37194  -0.36984  -0.36917  -0.36797
 Alpha  occ. eigenvalues --   -0.36787  -0.36650  -0.36508  -0.36402  -0.36370
 Alpha  occ. eigenvalues --   -0.36278  -0.35965  -0.35807  -0.35760  -0.35546
 Alpha  occ. eigenvalues --   -0.35234  -0.35070  -0.34887  -0.34419  -0.34392
 Alpha  occ. eigenvalues --   -0.33849  -0.33305  -0.32936  -0.32774  -0.32509
 Alpha  occ. eigenvalues --   -0.32421  -0.32142  -0.32018  -0.31668  -0.31549
 Alpha  occ. eigenvalues --   -0.31256  -0.30855  -0.30103  -0.29866  -0.29658
 Alpha  occ. eigenvalues --   -0.29103  -0.28965  -0.28802  -0.26933  -0.26912
 Alpha  occ. eigenvalues --   -0.26076  -0.26011  -0.25804  -0.25597  -0.25531
 Alpha  occ. eigenvalues --   -0.25220  -0.25213  -0.24964  -0.21240  -0.20727
 Alpha  occ. eigenvalues --   -0.18707  -0.18625
 Alpha virt. eigenvalues --   -0.10917  -0.10834  -0.05599  -0.05322  -0.03983
 Alpha virt. eigenvalues --   -0.03658  -0.01834  -0.01783  -0.00833  -0.00306
 Alpha virt. eigenvalues --    0.00304   0.00801   0.01322   0.01509   0.01825

 Mulliken charges:
               1
     1  Mg  12.000408
     2  C    6.021226
     3  C    5.985799
     4  C    5.982923
     5  C    6.011565
     6  N    7.004333
     7  C    5.970709
     8  C    5.999989
     9  C    5.992667
    10  C    6.031185
    11  C    5.998625
    12  C    6.000897
    13  C    5.999640
    14  H    1.005387
    15  N    6.993577
    16  C    6.038417
    17  C    6.018351
    18  C    6.011057
    19  C    6.036812
    20  C    5.997397
    21  C    6.013733
    22  O    8.017094
    23  C    5.993167
    24  N    7.001523
    25  C    6.030887
    26  C    5.991823
    27  C    6.005324
    28  C    5.967085
    29  C    5.995697
    30  C    6.009012
    31  C    5.999259
    32  N    7.001465
    33  C    5.965800
    34  C    5.970981
    35  C    6.000820
    36  C    5.967447
    37  C    6.001966
    38  C    5.979667
    39  O    7.970023
    40  C    6.003064
    41  C    5.992929
    42  O    7.997978
    43  O    7.997585
    44  C    6.002888
    45  H    1.010723
    46  H    1.007976
    47  H    0.990705
    48  H    1.004442
    49  H    1.002229
    50  H    1.000956
    51  H    1.015311
    52  H    0.998993
    53  H    0.987768
    54  H    1.000325
    55  H    1.002161
    56  H    0.995931
    57  H    1.016571
    58  H    1.015311
    59  H    1.017625
    60  H    1.009608
    61  H    1.012426
    62  H    1.009306
    63  H    0.999477
    64  H    1.000574
    65  H    0.997823
    66  H    1.003078
    67  H    1.011294
    68  H    1.000368
    69  H    0.986822
    70  H    0.994504
    71  H    0.998411
    72  H    1.001747
    73  H    0.983614
    74  H    0.981630
    75  H    0.986376
    76  H    0.990149
    77  H    0.993096
    78  H    0.995615
    79  H    0.998876
    80  Mg  12.000299
    81  C    5.999662
    82  C    6.002500
    83  C    6.001095
    84  C    5.998425
    85  N    7.000521
    86  C    6.002354
    87  C    5.999585
    88  C    6.000869
    89  C    5.996350
    90  C    6.000255
    91  C    5.999319
    92  C    6.000078
    93  H    1.000583
    94  N    7.000726
    95  C    5.994760
    96  C    5.998961
    97  C    5.998044
    98  C    5.997476
    99  C    5.999948
   100  C    5.998505
   101  O    7.997339
   102  C    6.000468
   103  N    6.999719
   104  C    5.996600
   105  C    6.000932
   106  C    5.999521
   107  C    6.003097
   108  C    6.000117
   109  C    5.999383
   110  C    5.999824
   111  N    6.999826
   112  C    6.003252
   113  C    6.003260
   114  C    6.000445
   115  C    6.002101
   116  C    5.999869
   117  C    6.001783
   118  O    8.003508
   119  C    5.999906
   120  C    6.000593
   121  O    8.000589
   122  O    8.000139
   123  C    5.999861
   124  H    0.999148
   125  H    0.999278
   126  H    1.000485
   127  H    0.999900
   128  H    0.999834
   129  H    0.999586
   130  H    0.998614
   131  H    1.000293
   132  H    1.001214
   133  H    0.999267
   134  H    1.000406
   135  H    0.999777
   136  H    0.998551
   137  H    0.998568
   138  H    0.998414
   139  H    0.998567
   140  H    0.999365
   141  H    0.998926
   142  H    0.999998
   143  H    0.999664
   144  H    0.998845
   145  H    1.000144
   146  H    0.999943
   147  H    1.000699
   148  H    0.999477
   149  H    1.000298
   150  H    0.999663
   151  H    1.000969
   152  H    1.001231
   153  H    1.002285
   154  H    1.002008
   155  H    1.000711
   156  H    1.000286
   157  H    1.000679
   158  H    1.000462
 Sum of Mulliken charges = 624.00000

 Dipole moment (field-independent basis, Debye):
    X=             -9.3422    Y=             -3.6499    Z=             -4.3376  Tot=             10.9276
 Quadrupole moment (field-independent basis, Debye-Ang):
   XX=            273.8637   YY=              0.1018   ZZ=             -0.3140
   XY=             68.6616   XZ=             58.7315   YZ=              2.3940

 Normal termination of Gaussian 16 at Fri Oct 15 15:26:39 2021.
