 Gaussian 16, Revision A.03,
 Gaussian 16:  ES64L-G16RevA.03 25-Dec-2016

 --------------------------------------------------------
 #p PBE1PBE/Def2SVP td=(nstates=5) density=(transition=1)
 --------------------------------------------------------

 --------------------------------
 TDDFT excited states in gaussian
 --------------------------------
 Symbolic Z-matrix:
 Charge =  0 Multiplicity = 1

                         Standard orientation:
 ---------------------------------------------------------------------
 Center     Atomic      Atomic             Coordinates (Angstroms)
 Number     Number       Type             X           Y           Z
 ---------------------------------------------------------------------
      1         12           0       33.263624    0.466159   -0.402449
      2          6           0       31.520146   -2.420855    0.362397
      3          6           0       30.935099    2.293425    1.555074
      4          6           0       35.234973    3.260156   -0.625003
      5          6           0       35.775199   -1.374611   -1.896626
      6          7           0       31.380180   -0.036450    0.691329
      7          6           0       30.929751   -1.314928    0.945050
      8          6           0       29.763533   -1.383324    2.000938
      9          6           0       29.328439    0.156476    2.063140
     10          6           0       30.585135    0.918551    1.361256
     11          6           0       27.951113    0.594499    1.434244
     12          6           0       30.145809   -1.917829    3.336258
     13          6           0       29.497259   -3.174612    3.884039
     14          1           0       29.406521   -3.274335    5.415241
     15          7           0       33.055057    2.537339    0.288791
     16          6           0       31.970828    3.040161    1.032429
     17          6           0       32.125078    4.448793    1.211888
     18          6           0       33.491336    4.738800    0.703012
     19          6           0       34.023946    3.484122    0.087151
     20          6           0       31.168885    5.320765    2.032307
     21          6           0       34.109868    6.142106    0.828038
     22          8           0       33.607742    7.131877    1.352774
     23          6           0       35.572399    6.259252    0.581897
     24          7           0       35.392478    0.878788   -1.024978
     25          6           0       35.837156    2.134490   -1.170287
     26          6           0       37.328941    2.032914   -1.484937
     27          6           0       37.556393    0.536701   -2.003615
     28          6           0       36.124277   -0.067635   -1.651878
     29          6           0       37.691600    3.025799   -2.645552
     30          6           0       38.733321   -0.335706   -1.401716
     31          6           0       39.899832   -0.769706   -2.276652
     32          7           0       33.577944   -1.534580   -0.797351
     33          6           0       34.643495   -2.156164   -1.455919
     34          6           0       34.459090   -3.575207   -1.450117
     35          6           0       33.234815   -3.766348   -0.737949
     36          6           0       32.739636   -2.442575   -0.416889
     37          6           0       35.346962   -4.633502   -2.024941
     38          6           0       32.277204   -4.689634   -0.286586
     39          8           0       32.289248   -5.898419   -0.406144
     40          6           0       31.177354   -3.885093    0.508744
     41          6           0       29.851193   -4.369216    0.094518
     42          8           0       29.156116   -5.103386    0.787690
     43          8           0       29.544090   -3.896610   -1.172696
     44          6           0       28.238170   -4.383410   -1.671309
     45          1           0       30.263538    2.964472    2.093862
     46          1           0       35.757004    4.214405   -0.725759
     47          1           0       36.598981   -1.941844   -2.334615
     48          1           0       28.943943   -1.976046    1.596157
     49          1           0       29.378816    0.447786    3.112898
     50          1           0       27.383881   -0.316406    1.243190
     51          1           0       28.035425    1.182995    0.520548
     52          1           0       27.463952    1.243032    2.161422
     53          1           0       29.875249   -1.149322    4.061906
     54          1           0       31.212264   -2.139713    3.356033
     55          1           0       30.122560   -4.019906    3.598159
     56          1           0       28.467128   -3.307917    3.554431
     57          1           0       30.329509    4.886870    2.575248
     58          1           0       30.862782    6.067441    1.300005
     59          1           0       31.844251    5.911662    2.650209
     60          1           0       35.935219    6.466987   -0.423821
     61          1           0       36.131002    5.428630    1.013590
     62          1           0       35.894576    7.149021    1.124114
     63          1           0       37.959494    2.241029   -0.620234
     64          1           0       37.588339    0.517958   -3.092424
     65          1           0       38.559071    3.594728   -2.311045
     66          1           0       36.894613    3.705911   -2.948790
     67          1           0       37.944977    2.522186   -3.578721
     68          1           0       38.227154   -1.214920   -1.003731
     69          1           0       39.182618    0.292068   -0.630964
     70          1           0       40.299843   -1.660127   -1.790981
     71          1           0       40.671652   -0.000505   -2.241898
     72          1           0       39.728131   -1.051412   -3.314991
     73          1           0       34.852015   -5.582400   -1.816599
     74          1           0       36.324168   -4.523692   -1.555694
     75          1           0       35.486943   -4.586658   -3.105051
     76          1           0       31.329672   -4.200063    1.541620
     77          1           0       28.369644   -5.320286   -2.212574
     78          1           0       27.814258   -3.559997   -2.246063
     79          1           0       27.526676   -4.537861   -0.860622
     80         12           0      -33.494717   -0.406852   -0.640654
     81          6           0      -30.616783    1.597403   -0.281446
     82          6           0      -31.766462   -2.933434    0.854899
     83          6           0      -36.460799   -2.069546   -0.295317
     84          6           0      -35.167398    2.562153   -1.683324
     85          7           0      -31.431433   -0.591702    0.334285
     86          6           0      -30.366902    0.258799    0.245549
     87          6           0      -29.139907   -0.260640    1.014671
     88          6           0      -29.524922   -1.820333    0.974139
     89          6           0      -31.007974   -1.787905    0.700095
     90          6           0      -28.773313   -2.672582   -0.083352
     91          6           0      -29.024324    0.267698    2.514963
     92          6           0      -27.657945    0.293891    3.182368
     93          1           0      -27.290296   -0.657890    4.340587
     94          7           0      -34.124564   -2.307798    0.142473
     95          6           0      -33.207644   -3.220982    0.575571
     96          6           0      -33.798972   -4.468827    0.779855
     97          6           0      -35.189187   -4.283517    0.428936
     98          6           0      -35.353903   -2.840698    0.094137
     99          6           0      -33.064871   -5.721170    1.243688
    100          6           0      -36.194771   -5.411996    0.466460
    101          8           0      -35.821852   -6.564706    0.805436
    102          6           0      -37.684752   -5.266541   -0.004201
    103          7           0      -35.457756    0.205179   -0.959183
    104          6           0      -36.536250   -0.701916   -0.775220
    105          6           0      -37.783407   -0.150613   -1.408437
    106          6           0      -37.512966    1.364585   -1.532124
    107          6           0      -35.958199    1.407079   -1.470945
    108          6           0      -38.223963   -0.650684   -2.802793
    109          6           0      -38.139257    2.204281   -0.298124
    110          6           0      -39.602287    2.615326   -0.367603
    111          7           0      -32.928211    1.619705   -1.095298
    112          6           0      -33.705104    2.690388   -1.511586
    113          6           0      -32.966137    3.855311   -1.596736
    114          6           0      -31.684110    3.474001   -1.165201
    115          6           0      -31.727107    2.105544   -0.849366
    116          6           0      -33.491954    5.179890   -2.052257
    117          6           0      -30.393587    3.903365   -1.028740
    118          8           0      -29.879258    4.955416   -1.353473
    119          6           0      -29.718931    2.781450   -0.211693
    120          6           0      -29.532102    3.361874    1.158337
    121          8           0      -30.420547    3.780808    1.833048
    122          8           0      -28.174893    3.407307    1.482003
    123          6           0      -27.933332    4.102140    2.698485
    124          1           0      -31.200245   -3.824549    1.134626
    125          1           0      -37.402107   -2.614057   -0.399301
    126          1           0      -35.713595    3.389521   -2.140639
    127          1           0      -28.219783   -0.176607    0.437353
    128          1           0      -29.246526   -2.229017    1.945119
    129          1           0      -27.982015   -3.134309    0.507872
    130          1           0      -28.310819   -2.059043   -0.856414
    131          1           0      -29.411457   -3.453766   -0.496746
    132          1           0      -29.616799   -0.356690    3.183770
    133          1           0      -29.508943    1.244092    2.534267
    134          1           0      -27.558559    1.322571    3.531862
    135          1           0      -26.914878    0.160072    2.396374
    136          1           0      -33.355945   -6.695411    0.849536
    137          1           0      -33.214178   -5.594181    2.315667
    138          1           0      -32.023689   -5.680779    0.923603
    139          1           0      -37.706725   -5.014935   -1.064192
    140          1           0      -38.057448   -4.481278    0.653201
    141          1           0      -38.344943   -6.103230    0.223883
    142          1           0      -38.581732   -0.290382   -0.680296
    143          1           0      -37.896035    1.778692   -2.464866
    144          1           0      -38.164474    0.089326   -3.600690
    145          1           0      -39.062585   -1.343378   -2.729153
    146          1           0      -37.432870   -1.343670   -3.088779
    147          1           0      -37.482819    3.074033   -0.315849
    148          1           0      -38.006182    1.668683    0.642027
    149          1           0      -40.106737    2.293934    0.543226
    150          1           0      -40.069644    2.134646   -1.227484
    151          1           0      -39.708992    3.699640   -0.408233
    152          1           0      -33.176613    5.900791   -1.298518
    153          1           0      -34.581909    5.218593   -2.063622
    154          1           0      -33.083426    5.490636   -3.013995
    155          1           0      -28.753548    2.566992   -0.668813
    156          1           0      -27.732847    5.151913    2.486029
    157          1           0      -27.003126    3.811023    3.187890
    158          1           0      -28.773565    4.038203    3.387766
 ---------------------------------------------------------------------

 SCF Done:  E(RPBE1PBE) =  -4067.33953775     A.U. after   16 cycles

 Excitation energies and oscillator strengths:

 Excited State   1:      Singlet-A      1.8584 eV  667.14 nm  f=0.3446  <S**2>=0.000
     309 -> 316        0.16998
     311 -> 313        0.69154
     311 <- 313       -0.10669
 This state for optimization and/or second-order correction.
 Total Energy, E(TD-HF/TD-DFT) =  -4067.27124165
 Copying the excited state density for this state as the 1-particle RhoCI density.

 Excited State   2:      Singlet-A      1.8621 eV  665.85 nm  f=0.4017  <S**2>=0.000
     310 -> 315       -0.18178
     312 -> 314        0.68834
     312 <- 314       -0.10546

 Excited State   3:      Singlet-A      1.9796 eV  626.30 nm  f=0.0000  <S**2>=0.000
     312 -> 313        0.70711

 Excited State   4:      Singlet-A      2.0646 eV  600.52 nm  f=0.0000  <S**2>=0.000
     311 -> 314        0.70711

 Excited State   5:      Singlet-A      2.1541 eV  575.57 nm  f=0.1184  <S**2>=0.000
     310 -> 314        0.65690
     312 -> 315        0.24319

 The electronic state is 1-A.
 Alpha  occ. eigenvalues --  -46.93869 -46.93696 -19.26015 -19.25832 -19.21083
 Alpha  occ. eigenvalues --  -19.20150 -19.19167 -19.18800 -19.18360 -19.18162
 Alpha  occ. eigenvalues --  -14.42963 -14.42504 -14.42340 -14.41555 -14.39640
 Alpha  occ. eigenvalues --  -14.39636 -14.39445 -14.38837 -10.36681 -10.36209
 Alpha  occ. eigenvalues --  -10.32250 -10.32231 -10.31544 -10.30686 -10.30462
 Alpha  occ. eigenvalues --  -10.30113 -10.30101 -10.29553 -10.29516 -10.29455
 Alpha  occ. eigenvalues --  -10.29252 -10.28781 -10.28776 -10.28539 -10.28360
 Alpha  occ. eigenvalues --  -10.28214 -10.28201 -10.27923 -10.27817 -10.27690
 Alpha  occ. eigenvalues --  -10.27241 -10.27196 -10.27051 -10.27015 -10.26587
 Alpha  occ. eigenvalues --  -10.26519 -10.26497 -10.26298 -10.26287 -10.26224
 Alpha  occ. eigenvalues --  -10.26218 -10.26104 -10.25969 -10.25840 -10.25833
 Alpha  occ. eigenvalues --  -10.25780 -10.25699 -10.25683 -10.25665 -10.25627
 Alpha  occ. eigenvalues --  -10.25609 -10.25500 -10.25463 -10.25255 -10.25216
 Alpha  occ. eigenvalues --  -10.25144 -10.25127 -10.25015 -10.24929 -10.24749
 Alpha  occ. eigenvalues --  -10.24389 -10.24175 -10.24134 -10.24058 -10.23993
 Alpha  occ. eigenvalues --  -10.23839 -10.23699 -10.23673 -10.23666 -10.23555
 Alpha  occ. eigenvalues --  -10.23397 -10.23286 -10.23106 -10.22966 -10.22638
 Alpha  occ. eigenvalues --  -10.21876  -3.15670  -3.15576  -1.88538  -1.88413
 Alpha  occ. eigenvalues --   -1.88019  -1.87942  -1.87894  -1.87793  -1.12360
 Alpha  occ. eigenvalues --   -1.10352  -1.04826  -1.04765  -1.04639  -1.04293
 Alpha  occ. eigenvalues --   -1.02383  -1.02060  -1.00335  -0.99680  -0.99347
 Alpha  occ. eigenvalues --   -0.98776  -0.98600  -0.97061  -0.96526  -0.96267
 Alpha  occ. eigenvalues --   -0.88721  -0.87052  -0.83781  -0.83641  -0.83225
 Alpha  occ. eigenvalues --   -0.83027  -0.82987  -0.82497  -0.82025  -0.81930
 Alpha  occ. eigenvalues --   -0.81720  -0.81424  -0.80219  -0.79957  -0.78729
 Alpha  occ. eigenvalues --   -0.78653  -0.78223  -0.77920  -0.77171  -0.77159
 Alpha  occ. eigenvalues --   -0.76380  -0.76156  -0.75272  -0.75125  -0.75012
 Alpha  occ. eigenvalues --   -0.74586  -0.72396  -0.72264  -0.71703  -0.71488
 Alpha  occ. eigenvalues --   -0.71218  -0.71192  -0.70526  -0.70277  -0.70048
 Alpha  occ. eigenvalues --   -0.69871  -0.68071  -0.68032  -0.66742  -0.66695
 Alpha  occ. eigenvalues --   -0.63915  -0.63784  -0.63562  -0.62916  -0.62793
 Alpha  occ. eigenvalues --   -0.62426  -0.61644  -0.61542  -0.60683  -0.60081
 Alpha  occ. eigenvalues --   -0.59904  -0.59796  -0.59774  -0.59327  -0.59286
 Alpha  occ. eigenvalues --   -0.58771  -0.57610  -0.57355  -0.55024  -0.54823
 Alpha  occ. eigenvalues --   -0.54723  -0.54396  -0.54142  -0.54029  -0.53777
 Alpha  occ. eigenvalues --   -0.53693  -0.53554  -0.52713  -0.52460  -0.51510
 Alpha  occ. eigenvalues --   -0.51153  -0.51127  -0.50517  -0.50189  -0.50027
 Alpha  occ. eigenvalues --   -0.49857  -0.49662  -0.49358  -0.48516  -0.48447
 Alpha  occ. eigenvalues --   -0.48300  -0.48159  -0.47832  -0.47810  -0.47402
 Alpha  occ. eigenvalues --   -0.47343  -0.47338  -0.47224  -0.47039  -0.46712
 Alpha  occ. eigenvalues --   -0.46685  -0.46426  -0.46146  -0.46053  -0.45962
 Alpha  occ. eigenvalues --   -0.45784  -0.45694  -0.45476  -0.45151  -0.44981
 Alpha  occ. eigenvalues --   -0.44819  -0.44717  -0.44478  -0.44340  -0.44322
 Alpha  occ. eigenvalues --   -0.44187  -0.43986  -0.43653  -0.43638  -0.43549
 Alpha  occ. eigenvalues --   -0.43547  -0.43361  -0.43097  -0.42974  -0.42683
 Alpha  occ. eigenvalues --   -0.42650  -0.42352  -0.42021  -0.41940  -0.41889
 Alpha  occ. eigenvalues --   -0.41774  -0.41701  -0.41464  -0.41348  -0.41281
 Alpha  occ. eigenvalues --   -0.41129  -0.41086  -0.40816  -0.40791  -0.40768
 Alpha  occ. eigenvalues --   -0.40544  -0.40520  -0.40373  -0.40174  -0.40061
 Alpha  occ. eigenvalues --   -0.39982  -0.39844  -0.39501  -0.39457  -0.39408
 Alpha  occ. eigenvalues --   -0.39325  -0.39037  -0.38688  -0.38658  -0.38627
 Alpha  occ. eigenvalues --   -0.38503  -0.38161  -0.38003  -0.37791  -0.37781
 Alpha  occ. eigenvalues --   -0.37550  -0.37415  -0.37295  -0.37294  -0.37085
 Alpha  occ. eigenvalues --   -0.37048  -0.36437  -0.36402  -0.36401  -0.36204
 Alpha  occ. eigenvalues --   -0.36046  -0.36006  -0.35839  -0.35384  -0.35322
 Alpha  occ. eigenvalues --   -0.35217  -0.34965  -0.34677  -0.34418  -0.34359
 Alpha  occ. eigenvalues --   -0.33487  -0.33384  -0.32884  -0.32825  -0.32630
 Alpha  occ. eigenvalues --   -0.32465  -0.32219  -0.32080  -0.31909  -0.31793
 Alpha  occ. eigenvalues --   -0.31606  -0.30944  -0.30387  -0.30253  -0.29791
 Alpha  occ. eigenvalues --   -0.29369  -0.29014  -0.28777  -0.27447  -0.27083
 Alpha  occ. eigenvalues --   -0.26117  -0.25826  -0.25698  -0.25570  -0.25339
 Alpha  occ. eigenvalues --   -0.25235  -0.25038  -0.24622  -0.21589  -0.21308
 Alpha  occ. eigenvalues --   -0.19776  -0.19629
 Alpha virt. eigenvalues --   -0.12156  -0.11990  -0.05982  -0.05875  -0.04273
 Alpha virt. eigenvalues --   -0.04152  -0.02242  -0.01860  -0.01394  -0.00411
 Alpha virt. eigenvalues --    0.00106   0.00358   0.00609   0.00753   0.01250

 Mulliken charges:
               1
     1  Mg  11.997859
     2  C    5.978474
     3  C    5.997572
     4  C    6.030548
     5  C    6.003829
     6  N    6.985030
     7  C    6.028254
     8  C    5.989787
     9  C    6.004037
    10  C    5.973085
    11  C    6.004120
    12  C    6.001242
    13  C    5.998410
    14  H    1.003386
    15  N    7.010319
    16  C    5.964665
    17  C    5.981830
    18  C    5.988831
    19  C    5.960706
    20  C    6.001421
    21  C    5.989405
    22  O    7.980194
    23  C    6.005342
    24  N    7.009045
    25  C    5.966421
    26  C    6.008808
    27  C    5.996346
    28  C    6.022588
    29  C    6.001869
    30  C    5.996041
    31  C    5.999273
    32  N    6.997069
    33  C    6.034552
    34  C    6.024748
    35  C    6.002322
    36  C    6.030263
    37  C    6.000397
    38  C    6.016558
    39  O    8.030419
    40  C    6.003493
    41  C    6.004838
    42  O    8.006802
    43  O    7.997772
    44  C    5.997444
    45  H    0.986875
    46  H    1.000379
    47  H    1.013046
    48  H    0.997345
    49  H    0.998153
    50  H    0.986244
    51  H    0.999579
    52  H    0.997883
    53  H    1.007926
    54  H    0.995175
    55  H    0.993449
    56  H    1.001092
    57  H    0.984675
    58  H    0.984537
    59  H    0.986769
    60  H    0.986751
    61  H    0.990158
    62  H    0.989802
    63  H    0.999403
    64  H    1.000865
    65  H    1.000362
    66  H    1.005335
    67  H    0.993785
    68  H    0.993699
    69  H    1.010509
    70  H    1.000773
    71  H    1.007118
    72  H    1.000503
    73  H    1.011333
    74  H    1.016450
    75  H    1.018118
    76  H    1.005369
    77  H    0.999882
    78  H    1.006030
    79  H    1.005214
    80  Mg  11.999987
    81  C    6.000141
    82  C    6.000728
    83  C    6.000205
    84  C    5.999190
    85  N    7.000354
    86  C    6.000883
    87  C    5.999676
    88  C    6.000308
    89  C    5.998874
    90  C    6.000084
    91  C    5.999933
    92  C    5.999946
    93  H    1.000365
    94  N    7.000170
    95  C    5.998831
    96  C    5.999391
    97  C    5.999644
    98  C    5.998907
    99  C    5.999980
   100  C    5.999736
   101  O    7.999240
   102  C    6.000058
   103  N    6.999519
   104  C    5.999211
   105  C    6.000325
   106  C    5.999830
   107  C    6.001179
   108  C    5.999926
   109  C    5.999949
   110  C    5.999999
   111  N    7.000065
   112  C    6.001066
   113  C    6.000675
   114  C    6.000239
   115  C    6.000481
   116  C    5.999954
   117  C    6.000538
   118  O    8.001006
   119  C    5.999847
   120  C    6.000124
   121  O    8.000142
   122  O    8.000075
   123  C    5.999886
   124  H    0.999898
   125  H    0.999630
   126  H    1.000113
   127  H    1.000058
   128  H    0.999977
   129  H    0.999898
   130  H    0.999685
   131  H    1.000212
   132  H    1.000340
   133  H    0.999826
   134  H    0.999949
   135  H    1.000041
   136  H    0.999607
   137  H    0.999527
   138  H    0.999452
   139  H    0.999697
   140  H    0.999758
   141  H    0.999574
   142  H    0.999942
   143  H    0.999968
   144  H    0.999610
   145  H    0.999965
   146  H    1.000059
   147  H    0.999796
   148  H    1.000286
   149  H    1.000120
   150  H    1.000120
   151  H    0.999935
   152  H    1.000415
   153  H    1.000554
   154  H    1.000506
   155  H    1.000341
   156  H    1.000106
   157  H    1.000228
   158  H    1.000141
 Sum of Mulliken charges = 624.00000

 Dipole moment (field-independent basis, Debye):
    X=              2.6860    Y=             -9.0193    Z=             -3.0373  Tot=              9.8888
 Quadrupole moment (field-independent basis, Debye-Ang):
   XX=            162.5614   YY=             -7.9097   ZZ=              1.0939
   XY=           -318.1565   XZ=            -98.6500   YZ=             -0.9868

 Normal termination of Gaussian 16 at Fri Oct 15 07:51:53 2021.
