 Gaussian 16, Revision A.03,
 Gaussian 16:  ES64L-G16RevA.03 25-Dec-2016

 --------------------------------------------------------
 #p PBE1PBE/Def2SVP td=(nstates=5) density=(transition=1)
 --------------------------------------------------------

 --------------------------------
 TDDFT excited states in gaussian
 --------------------------------
 Symbolic Z-matrix:
 Charge =  0 Multiplicity = 1

                         Standard orientation:
 ---------------------------------------------------------------------
 Center     Atomic      Atomic             Coordinates (Angstroms)
 Number     Number       Type             X           Y           Z
 ---------------------------------------------------------------------
      1         12           0      -28.511743    0.509827   -0.672606
      2          6           0      -27.897444   -2.527473    1.285671
      3          6           0      -26.998062    2.258279    1.959431
      4          6           0      -29.334396    3.281566   -2.178688
      5          6           0      -29.788327   -1.422015   -3.202477
      6          7           0      -27.759001   -0.036129    1.443739
      7          6           0      -27.473895   -1.352679    2.000798
      8          6           0      -26.831380   -1.309541    3.403841
      9          6           0      -26.771328    0.312787    3.615845
     10          6           0      -27.211997    0.931785    2.274869
     11          6           0      -27.587710    0.806263    4.794536
     12          6           0      -25.479735   -2.085749    3.412964
     13          6           0      -24.622043   -1.867735    4.623055
     14          1           0      -23.945544   -3.046689    5.286445
     15          7           0      -28.238695    2.539670   -0.186329
     16          6           0      -27.586388    3.070097    0.932478
     17          6           0      -27.564535    4.528973    0.843660
     18          6           0      -28.252983    4.867616   -0.392582
     19          6           0      -28.660145    3.552175   -1.011402
     20          6           0      -26.837398    5.483472    1.860367
     21          6           0      -28.598349    6.180086   -0.998498
     22          8           0      -29.161178    6.329676   -2.074879
     23          6           0      -28.155989    7.428452   -0.354859
     24          7           0      -29.320894    0.872236   -2.426731
     25          6           0      -29.687972    2.098023   -2.804882
     26          6           0      -30.380616    2.114364   -4.187740
     27          6           0      -30.108944    0.702529   -4.664139
     28          6           0      -29.768295   -0.051016   -3.320355
     29          6           0      -31.867028    2.443765   -4.112865
     30          6           0      -29.083856    0.377515   -5.719594
     31          6           0      -27.660306    0.713676   -5.329688
     32          7           0      -28.893845   -1.523617   -0.911052
     33          6           0      -29.339685   -2.169887   -2.078106
     34          6           0      -29.383386   -3.590971   -1.836302
     35          6           0      -28.755292   -3.706486   -0.569529
     36          6           0      -28.484490   -2.434673   -0.029713
     37          6           0      -29.780238   -4.690320   -2.777836
     38          6           0      -28.268556   -4.754526    0.380108
     39          8           0      -28.200275   -5.996786    0.263199
     40          6           0      -27.742317   -3.996459    1.596798
     41          6           0      -28.454613   -4.478356    2.862391
     42          8           0      -29.673763   -4.398056    3.195712
     43          8           0      -27.487526   -4.920375    3.716043
     44          6           0      -27.958827   -5.358878    5.049253
     45          1           0      -26.353374    2.771622    2.674526
     46          1           0      -29.675709    4.195559   -2.669076
     47          1           0      -30.204337   -2.096745   -3.953717
     48          1           0      -27.510330   -1.874529    4.042455
     49          1           0      -25.727641    0.618632    3.688774
     50          1           0      -26.921840    1.330486    5.480632
     51          1           0      -27.982409   -0.082293    5.285984
     52          1           0      -28.541691    1.287911    4.581068
     53          1           0      -25.011349   -1.864048    2.453397
     54          1           0      -25.694666   -3.152841    3.354919
     55          1           0      -25.103349   -1.434095    5.499338
     56          1           0      -23.762845   -1.257567    4.346023
     57          1           0      -26.069946    5.982535    1.268006
     58          1           0      -26.355182    4.955556    2.682949
     59          1           0      -27.598256    6.175208    2.222110
     60          1           0      -28.293805    7.440069    0.726528
     61          1           0      -28.789479    8.187678   -0.812168
     62          1           0      -27.074957    7.419094   -0.490714
     63          1           0      -29.888242    2.885646   -4.780126
     64          1           0      -30.992015    0.243491   -5.109519
     65          1           0      -32.115842    3.103305   -4.943448
     66          1           0      -32.112339    2.953017   -3.181495
     67          1           0      -32.461048    1.551717   -4.314817
     68          1           0      -29.402340    0.848122   -6.650160
     69          1           0      -29.003744   -0.699362   -5.867053
     70          1           0      -27.129717    1.231937   -6.127583
     71          1           0      -27.053734   -0.172938   -5.143705
     72          1           0      -27.574095    1.358814   -4.455261
     73          1           0      -28.989204   -5.438666   -2.819596
     74          1           0      -30.027185   -4.472202   -3.816818
     75          1           0      -30.674532   -5.153837   -2.360790
     76          1           0      -26.695724   -4.268105    1.737389
     77          1           0      -27.781616   -4.569886    5.779840
     78          1           0      -27.363961   -6.267415    5.143147
     79          1           0      -28.993727   -5.703075    5.033182
     80         12           0       29.088788   -0.307838    0.053990
     81          6           0       26.100329    1.271701    1.037663
     82          6           0       27.123768   -3.018433   -0.886850
     83          6           0       31.770389   -1.728723   -1.317749
     84          6           0       30.644600    2.790711    0.201751
     85          7           0       26.816780   -0.690453   -0.050571
     86          6           0       25.771479    0.016175    0.511490
     87          6           0       24.484352   -0.761057    0.691070
     88          6           0       24.821863   -2.147821    0.093404
     89          6           0       26.318189   -1.981416   -0.329735
     90          6           0       24.596933   -3.359035    1.086844
     91          6           0       23.181782   -0.148663    0.006653
     92          6           0       23.359171    0.650259   -1.294831
     93          1           0       22.959585   -0.028234   -2.638541
     94          7           0       29.391688   -2.087287   -0.930647
     95          6           0       28.487903   -3.084247   -1.165112
     96          6           0       29.164198   -4.242192   -1.766581
     97          6           0       30.540507   -3.883274   -1.899487
     98          6           0       30.607114   -2.486359   -1.370568
     99          6           0       28.454405   -5.542765   -2.123616
    100          6           0       31.527927   -4.881959   -2.610649
    101          8           0       31.066260   -5.922529   -3.058006
    102          6           0       33.051959   -4.490715   -2.813876
    103          7           0       30.862026    0.454266   -0.582568
    104          6           0       31.912256   -0.367586   -0.985082
    105          6           0       33.286334    0.495902   -1.154584
    106          6           0       32.746427    1.980564   -0.779748
    107          6           0       31.337976    1.710235   -0.358175
    108          6           0       34.433133   -0.013870   -0.232879
    109          6           0       32.810998    3.043859   -1.958509
    110          6           0       33.488479    4.398984   -1.702266
    111          7           0       28.564194    1.652164    0.639051
    112          6           0       29.268632    2.828750    0.647161
    113          6           0       28.370555    3.910167    1.104267
    114          6           0       27.130519    3.273149    1.378026
    115          6           0       27.316886    1.908074    1.022384
    116          6           0       28.685880    5.374593    1.234098
    117          6           0       25.742463    3.558646    1.787451
    118          8           0       25.186338    4.575129    2.228301
    119          6           0       25.082315    2.188112    1.762093
    120          6           0       24.669357    1.747196    3.051768
    121          8           0       25.480355    1.260631    3.881734
    122          8           0       23.279628    1.897640    3.228879
    123          6           0       22.672581    1.342814    4.434464
    124          1           0       26.589786   -3.958063   -1.041007
    125          1           0       32.701744   -2.215713   -1.612759
    126          1           0       31.222333    3.713810    0.277107
    127          1           0       24.365399   -0.771423    1.773849
    128          1           0       24.281909   -2.196092   -0.851537
    129          1           0       23.753388   -3.957673    0.743202
    130          1           0       24.392877   -2.912518    2.060396
    131          1           0       25.472110   -4.008326    1.127986
    132          1           0       22.851775    0.551109    0.775499
    133          1           0       22.434150   -0.934645   -0.102458
    134          1           0       24.390941    0.987048   -1.400794
    135          1           0       22.801993    1.581088   -1.197518
    136          1           0       28.249463   -5.674747   -3.186032
    137          1           0       27.613486   -5.726788   -1.454850
    138          1           0       29.059120   -6.403166   -1.837566
    139          1           0       33.411602   -4.118904   -1.854141
    140          1           0       33.089218   -3.720471   -3.583764
    141          1           0       33.646779   -5.263064   -3.301488
    142          1           0       33.637425    0.298504   -2.166998
    143          1           0       33.306272    2.307993    0.096595
    144          1           0       34.410319    0.585891    0.676754
    145          1           0       35.403153   -0.023860   -0.730067
    146          1           0       34.347350   -1.064065    0.045620
    147          1           0       31.787291    3.180226   -2.308594
    148          1           0       33.401059    2.504101   -2.699167
    149          1           0       33.179414    5.154723   -2.424896
    150          1           0       34.543949    4.153062   -1.816721
    151          1           0       33.184021    4.659955   -0.688490
    152          1           0       29.485926    5.536191    0.512167
    153          1           0       29.108718    5.430767    2.237153
    154          1           0       27.826699    6.043558    1.176986
    155          1           0       24.229728    2.374736    1.109497
    156          1           0       22.962926    1.780912    5.389419
    157          1           0       22.868071    0.271513    4.489790
    158          1           0       21.595967    1.345357    4.263394
 ---------------------------------------------------------------------

 SCF Done:  E(RPBE1PBE) =  -4067.37864919     A.U. after   16 cycles

 Excitation energies and oscillator strengths:

 Excited State   1:      Singlet-A      1.7862 eV  694.13 nm  f=0.0000  <S**2>=0.000
     312 -> 313        0.70711
 This state for optimization and/or second-order correction.
 Total Energy, E(TD-HF/TD-DFT) =  -4067.31300792
 Copying the excited state density for this state as the 1-particle RhoCI density.

 Excited State   2:      Singlet-A      1.8175 eV  682.18 nm  f=0.3845  <S**2>=0.000
     309 -> 316       -0.16208
     311 -> 313        0.69598
     311 <- 313       -0.11405

 Excited State   3:      Singlet-A      1.8697 eV  663.14 nm  f=0.3692  <S**2>=0.000
     310 -> 315       -0.17504
     312 -> 314        0.69213
     312 <- 314       -0.10392

 Excited State   4:      Singlet-A      2.1799 eV  568.77 nm  f=0.1284  <S**2>=0.000
     309 -> 313        0.66143
     311 -> 316        0.23369

 Excited State   5:      Singlet-A      2.2108 eV  560.81 nm  f=0.0000  <S**2>=0.000
     311 -> 314        0.70711

 The electronic state is 1-A.
 Alpha  occ. eigenvalues --  -46.92365 -46.91175 -19.26524 -19.26428 -19.20447
 Alpha  occ. eigenvalues --  -19.20020 -19.19808 -19.19483 -19.18912 -19.18784
 Alpha  occ. eigenvalues --  -14.42098 -14.42073 -14.41737 -14.41670 -14.39542
 Alpha  occ. eigenvalues --  -14.39531 -14.39031 -14.38685 -10.37105 -10.36988
 Alpha  occ. eigenvalues --  -10.33655 -10.32550 -10.31999 -10.31623 -10.29924
 Alpha  occ. eigenvalues --  -10.29571 -10.29328 -10.29218 -10.29093 -10.29059
 Alpha  occ. eigenvalues --  -10.28806 -10.28661 -10.28585 -10.28472 -10.28453
 Alpha  occ. eigenvalues --  -10.28452 -10.28154 -10.27980 -10.27866 -10.27461
 Alpha  occ. eigenvalues --  -10.27326 -10.27165 -10.26845 -10.26814 -10.26582
 Alpha  occ. eigenvalues --  -10.26568 -10.26508 -10.26471 -10.26337 -10.26258
 Alpha  occ. eigenvalues --  -10.26228 -10.26133 -10.26112 -10.25946 -10.25919
 Alpha  occ. eigenvalues --  -10.25828 -10.25719 -10.25494 -10.25488 -10.25390
 Alpha  occ. eigenvalues --  -10.25188 -10.25136 -10.25105 -10.25034 -10.24854
 Alpha  occ. eigenvalues --  -10.24717 -10.24670 -10.24495 -10.24480 -10.24442
 Alpha  occ. eigenvalues --  -10.24427 -10.24278 -10.24271 -10.24075 -10.23702
 Alpha  occ. eigenvalues --  -10.23559 -10.23546 -10.23404 -10.23345 -10.23270
 Alpha  occ. eigenvalues --  -10.23072 -10.23039 -10.22932 -10.22855 -10.22734
 Alpha  occ. eigenvalues --  -10.21988  -3.14565  -3.13491  -1.87363  -1.86957
 Alpha  occ. eigenvalues --   -1.86792  -1.86338  -1.85878  -1.85716  -1.10883
 Alpha  occ. eigenvalues --   -1.09694  -1.05127  -1.04909  -1.03832  -1.02708
 Alpha  occ. eigenvalues --   -1.01791  -1.00667  -0.99671  -0.98874  -0.98194
 Alpha  occ. eigenvalues --   -0.97715  -0.97236  -0.96738  -0.96504  -0.95166
 Alpha  occ. eigenvalues --   -0.87538  -0.86777  -0.84004  -0.83500  -0.83139
 Alpha  occ. eigenvalues --   -0.83108  -0.82962  -0.82353  -0.81630  -0.81145
 Alpha  occ. eigenvalues --   -0.81091  -0.80466  -0.80350  -0.79826  -0.79028
 Alpha  occ. eigenvalues --   -0.78842  -0.78417  -0.78187  -0.77233  -0.77073
 Alpha  occ. eigenvalues --   -0.76318  -0.75877  -0.75823  -0.75249  -0.74438
 Alpha  occ. eigenvalues --   -0.74415  -0.72672  -0.72538  -0.71631  -0.71520
 Alpha  occ. eigenvalues --   -0.71215  -0.71024  -0.70853  -0.70338  -0.69819
 Alpha  occ. eigenvalues --   -0.69288  -0.67305  -0.66827  -0.66341  -0.66205
 Alpha  occ. eigenvalues --   -0.64598  -0.63828  -0.63663  -0.63355  -0.62851
 Alpha  occ. eigenvalues --   -0.62067  -0.61638  -0.61251  -0.60216  -0.59696
 Alpha  occ. eigenvalues --   -0.59594  -0.59241  -0.59126  -0.58765  -0.58754
 Alpha  occ. eigenvalues --   -0.58390  -0.57050  -0.56593  -0.54801  -0.54679
 Alpha  occ. eigenvalues --   -0.54155  -0.53805  -0.53720  -0.53630  -0.53240
 Alpha  occ. eigenvalues --   -0.52926  -0.52362  -0.52297  -0.51959  -0.51790
 Alpha  occ. eigenvalues --   -0.50827  -0.50681  -0.50462  -0.50089  -0.49999
 Alpha  occ. eigenvalues --   -0.49797  -0.49518  -0.49363  -0.48999  -0.48956
 Alpha  occ. eigenvalues --   -0.48812  -0.48408  -0.47869  -0.47622  -0.47504
 Alpha  occ. eigenvalues --   -0.47357  -0.47195  -0.47090  -0.46966  -0.46818
 Alpha  occ. eigenvalues --   -0.46691  -0.46182  -0.45833  -0.45819  -0.45494
 Alpha  occ. eigenvalues --   -0.45428  -0.45193  -0.45178  -0.45013  -0.44959
 Alpha  occ. eigenvalues --   -0.44820  -0.44570  -0.44505  -0.43963  -0.43952
 Alpha  occ. eigenvalues --   -0.43943  -0.43857  -0.43559  -0.43522  -0.43487
 Alpha  occ. eigenvalues --   -0.43239  -0.43229  -0.42950  -0.42947  -0.42858
 Alpha  occ. eigenvalues --   -0.42762  -0.42432  -0.42169  -0.42114  -0.41805
 Alpha  occ. eigenvalues --   -0.41744  -0.41494  -0.41368  -0.41338  -0.41153
 Alpha  occ. eigenvalues --   -0.41003  -0.40956  -0.40913  -0.40716  -0.40578
 Alpha  occ. eigenvalues --   -0.40507  -0.40211  -0.40098  -0.39773  -0.39704
 Alpha  occ. eigenvalues --   -0.39549  -0.39453  -0.39315  -0.39263  -0.39157
 Alpha  occ. eigenvalues --   -0.39098  -0.38947  -0.38854  -0.38718  -0.38370
 Alpha  occ. eigenvalues --   -0.38056  -0.37920  -0.37831  -0.37783  -0.37490
 Alpha  occ. eigenvalues --   -0.37470  -0.37363  -0.37274  -0.37086  -0.37057
 Alpha  occ. eigenvalues --   -0.36919  -0.36700  -0.36523  -0.36493  -0.36093
 Alpha  occ. eigenvalues --   -0.35985  -0.35746  -0.35547  -0.35365  -0.35256
 Alpha  occ. eigenvalues --   -0.34857  -0.34807  -0.34671  -0.34212  -0.34012
 Alpha  occ. eigenvalues --   -0.33874  -0.33858  -0.32624  -0.32537  -0.32344
 Alpha  occ. eigenvalues --   -0.32187  -0.32103  -0.32076  -0.31827  -0.31622
 Alpha  occ. eigenvalues --   -0.31595  -0.31196  -0.30002  -0.29545  -0.29142
 Alpha  occ. eigenvalues --   -0.29089  -0.28876  -0.28628  -0.27091  -0.26916
 Alpha  occ. eigenvalues --   -0.26222  -0.25998  -0.25864  -0.25795  -0.25633
 Alpha  occ. eigenvalues --   -0.25396  -0.25343  -0.25025  -0.21172  -0.21055
 Alpha  occ. eigenvalues --   -0.19117  -0.18503
 Alpha virt. eigenvalues --   -0.11708  -0.10762  -0.05293  -0.05246  -0.03994
 Alpha virt. eigenvalues --   -0.03884  -0.02410  -0.02215  -0.01188  -0.01049
 Alpha virt. eigenvalues --   -0.00336   0.00082   0.00798   0.01088   0.01460

 Mulliken charges:
               1
     1  Mg  12.000000
     2  C    6.000000
     3  C    6.000000
     4  C    6.000000
     5  C    6.000000
     6  N    7.000000
     7  C    6.000000
     8  C    6.000000
     9  C    6.000000
    10  C    6.000000
    11  C    6.000000
    12  C    6.000000
    13  C    6.000000
    14  H    1.000000
    15  N    7.000000
    16  C    6.000000
    17  C    6.000000
    18  C    6.000000
    19  C    6.000000
    20  C    6.000000
    21  C    6.000000
    22  O    8.000000
    23  C    6.000000
    24  N    7.000000
    25  C    6.000000
    26  C    6.000000
    27  C    6.000000
    28  C    6.000000
    29  C    6.000000
    30  C    6.000000
    31  C    6.000000
    32  N    7.000000
    33  C    6.000000
    34  C    6.000000
    35  C    6.000000
    36  C    6.000000
    37  C    6.000000
    38  C    6.000000
    39  O    8.000000
    40  C    6.000000
    41  C    6.000000
    42  O    8.000000
    43  O    8.000000
    44  C    6.000000
    45  H    1.000000
    46  H    1.000000
    47  H    1.000000
    48  H    1.000000
    49  H    1.000000
    50  H    1.000000
    51  H    1.000000
    52  H    1.000000
    53  H    1.000000
    54  H    1.000000
    55  H    1.000000
    56  H    1.000000
    57  H    1.000000
    58  H    1.000000
    59  H    1.000000
    60  H    1.000000
    61  H    1.000000
    62  H    1.000000
    63  H    1.000000
    64  H    1.000000
    65  H    1.000000
    66  H    1.000000
    67  H    1.000000
    68  H    1.000000
    69  H    1.000000
    70  H    1.000000
    71  H    1.000000
    72  H    1.000000
    73  H    1.000000
    74  H    1.000000
    75  H    1.000000
    76  H    1.000000
    77  H    1.000000
    78  H    1.000000
    79  H    1.000000
    80  Mg  12.000000
    81  C    6.000000
    82  C    6.000000
    83  C    6.000000
    84  C    6.000000
    85  N    7.000000
    86  C    6.000000
    87  C    6.000000
    88  C    6.000000
    89  C    6.000000
    90  C    6.000000
    91  C    6.000000
    92  C    6.000000
    93  H    1.000000
    94  N    7.000000
    95  C    6.000000
    96  C    6.000000
    97  C    6.000000
    98  C    6.000000
    99  C    6.000000
   100  C    6.000000
   101  O    8.000000
   102  C    6.000000
   103  N    7.000000
   104  C    6.000000
   105  C    6.000000
   106  C    6.000000
   107  C    6.000000
   108  C    6.000000
   109  C    6.000000
   110  C    6.000000
   111  N    7.000000
   112  C    6.000000
   113  C    6.000000
   114  C    6.000000
   115  C    6.000000
   116  C    6.000000
   117  C    6.000000
   118  O    8.000000
   119  C    6.000000
   120  C    6.000000
   121  O    8.000000
   122  O    8.000000
   123  C    6.000000
   124  H    1.000000
   125  H    1.000000
   126  H    1.000000
   127  H    1.000000
   128  H    1.000000
   129  H    1.000000
   130  H    1.000000
   131  H    1.000000
   132  H    1.000000
   133  H    1.000000
   134  H    1.000000
   135  H    1.000000
   136  H    1.000000
   137  H    1.000000
   138  H    1.000000
   139  H    1.000000
   140  H    1.000000
   141  H    1.000000
   142  H    1.000000
   143  H    1.000000
   144  H    1.000000
   145  H    1.000000
   146  H    1.000000
   147  H    1.000000
   148  H    1.000000
   149  H    1.000000
   150  H    1.000000
   151  H    1.000000
   152  H    1.000000
   153  H    1.000000
   154  H    1.000000
   155  H    1.000000
   156  H    1.000000
   157  H    1.000000
   158  H    1.000000
 Sum of Mulliken charges = 624.00000

 Dipole moment (field-independent basis, Debye):
    X=              0.0000    Y=             -0.0000    Z=             -0.0000  Tot=              0.0000
 Quadrupole moment (field-independent basis, Debye-Ang):
   XX=              0.0000   YY=              0.0000   ZZ=              0.0000
   XY=             -0.0000   XZ=             -0.0000   YZ=              0.0000

 Normal termination of Gaussian 16 at Thu Oct 14 09:37:15 2021.
