 Gaussian 16, Revision A.03,
 Gaussian 16:  ES64L-G16RevA.03 25-Dec-2016

 --------------------------------------------------------
 #p PBE1PBE/Def2SVP td=(nstates=5) density=(transition=1)
 --------------------------------------------------------

 --------------------------------
 TDDFT excited states in gaussian
 --------------------------------
 Symbolic Z-matrix:
 Charge =  0 Multiplicity = 1

                         Standard orientation:
 ---------------------------------------------------------------------
 Center     Atomic      Atomic             Coordinates (Angstroms)
 Number     Number       Type             X           Y           Z
 ---------------------------------------------------------------------
      1         12           0       28.693044    0.561234    0.471207
      2          6           0       29.240148   -2.293205   -1.434104
      3          6           0       27.632708    2.178818   -2.287166
      4          6           0       28.911512    3.494065    2.141509
      5          6           0       30.570836   -0.919679    3.085503
      6          7           0       28.417567   -0.094280   -1.534741
      7          6           0       28.534957   -1.328711   -2.135512
      8          6           0       28.147710   -1.241872   -3.637507
      9          6           0       28.203596    0.298543   -3.876616
     10          6           0       27.961118    0.846157   -2.477806
     11          6           0       29.567445    0.825848   -4.446232
     12          6           0       26.848039   -2.043171   -3.835930
     13          6           0       26.828841   -2.879592   -5.058381
     14          1           0       25.852305   -3.966951   -5.046462
     15          7           0       28.108403    2.489950    0.037095
     16          6           0       27.633385    2.931491   -1.156173
     17          6           0       27.039081    4.229476   -0.957392
     18          6           0       27.420241    4.622603    0.376138
     19          6           0       28.262826    3.536873    0.885953
     20          6           0       26.325830    4.982024   -2.022926
     21          6           0       27.210478    5.961573    1.155682
     22          8           0       27.600316    6.129795    2.312926
     23          6           0       26.386544    7.078615    0.578690
     24          7           0       29.928654    1.244229    2.209094
     25          6           0       29.692115    2.530969    2.765275
     26          6           0       30.303626    2.716544    4.114504
     27          6           0       30.611928    1.217345    4.432767
     28          6           0       30.284935    0.431996    3.165394
     29          6           0       31.545938    3.670274    4.131897
     30          6           0       29.780746    0.650979    5.641449
     31          6           0       28.248450    0.871512    5.565219
     32          7           0       29.617953   -1.259646    0.845672
     33          6           0       30.300315   -1.740545    1.973871
     34          6           0       30.688020   -3.068140    1.674869
     35          6           0       30.265234   -3.313914    0.374453
     36          6           0       29.643919   -2.194721   -0.072649
     37          6           0       31.366507   -4.007960    2.619881
     38          6           0       30.315085   -4.254065   -0.644728
     39          8           0       30.831354   -5.386436   -0.651653
     40          6           0       29.637580   -3.693497   -1.931418
     41          6           0       28.469289   -4.695320   -2.190284
     42          8           0       27.453820   -4.818393   -1.482491
     43          8           0       28.770415   -5.418930   -3.339063
     44          6           0       27.933978   -6.617982   -3.663411
     45          1           0       27.402065    2.616505   -3.260738
     46          1           0       28.954385    4.300240    2.877800
     47          1           0       30.966185   -1.494010    3.925986
     48          1           0       28.869982   -1.784814   -4.246199
     49          1           0       27.359745    0.593083   -4.499822
     50          1           0       30.310796    0.067379   -4.693360
     51          1           0       30.093263    1.414294   -3.695423
     52          1           0       29.374378    1.353402   -5.380092
     53          1           0       26.070163   -1.298987   -4.000990
     54          1           0       26.684401   -2.634779   -2.934788
     55          1           0       27.810592   -3.351092   -5.105570
     56          1           0       26.738605   -2.223728   -5.924068
     57          1           0       26.006634    4.323701   -2.830677
     58          1           0       26.918579    5.863192   -2.270769
     59          1           0       25.390580    5.371753   -1.620881
     60          1           0       26.762409    7.974142    1.074044
     61          1           0       25.335922    6.964367    0.846592
     62          1           0       26.539513    7.188173   -0.495397
     63          1           0       29.607453    3.086752    4.868398
     64          1           0       31.676242    1.118326    4.648571
     65          1           0       31.955183    3.735176    3.123365
     66          1           0       32.375255    3.384508    4.779139
     67          1           0       31.354228    4.698192    4.441027
     68          1           0       30.237369    1.072340    6.537186
     69          1           0       30.052599   -0.404388    5.658272
     70          1           0       27.688381   -0.063697    5.579548
     71          1           0       28.059165    1.427112    4.646331
     72          1           0       27.867363    1.464567    6.396040
     73          1           0       32.279347   -4.324539    2.115381
     74          1           0       30.674180   -4.823218    2.829919
     75          1           0       31.700515   -3.567901    3.559583
     76          1           0       30.352781   -3.766445   -2.750296
     77          1           0       28.045222   -7.299379   -2.820257
     78          1           0       28.173426   -7.173051   -4.570366
     79          1           0       26.975288   -6.100593   -3.700864
     80         12           0      -29.443837   -0.257316    0.038787
     81          6           0      -26.264725    0.197101   -1.125952
     82          6           0      -28.130619   -2.766139    2.193755
     83          6           0      -32.481508   -0.462065    1.493623
     84          6           0      -30.374314    2.772711   -1.406995
     85          7           0      -27.261420   -0.936270    0.750760
     86          6           0      -26.189794   -0.754957   -0.071104
     87          6           0      -24.999382   -1.495305    0.472728
     88          6           0      -25.605145   -2.451076    1.590359
     89          6           0      -27.120934   -2.078654    1.547039
     90          6           0      -25.068501   -3.834954    1.639523
     91          6           0      -23.691235   -0.684900    0.916999
     92          6           0      -23.867729    0.699719    1.466224
     93          1           0      -23.137749    1.028566    2.760937
     94          7           0      -30.237080   -1.605646    1.443146
     95          6           0      -29.581420   -2.546903    2.174516
     96          6           0      -30.458024   -3.240440    3.071286
     97          6           0      -31.793190   -2.643365    2.788198
     98          6           0      -31.545875   -1.516454    1.862375
     99          6           0      -30.143216   -4.310526    4.003910
    100          6           0      -33.157057   -3.060632    3.319336
    101          8           0      -33.246141   -3.866714    4.176073
    102          6           0      -34.485279   -2.470728    2.933772
    103          7           0      -31.099119    1.026097    0.142676
    104          6           0      -32.267758    0.609453    0.653597
    105          6           0      -33.363209    1.799329    0.619388
    106          6           0      -32.773388    2.624783   -0.625681
    107          6           0      -31.340779    2.149116   -0.581486
    108          6           0      -34.818004    1.361529    0.428102
    109          6           0      -33.041483    4.136953   -0.520312
    110          6           0      -33.599493    4.919764   -1.714744
    111          7           0      -28.493252    1.264179   -0.961088
    112          6           0      -28.975597    2.431070   -1.540728
    113          6           0      -27.992988    3.062212   -2.333020
    114          6           0      -26.896897    2.217556   -2.272188
    115          6           0      -27.238839    1.112928   -1.414175
    116          6           0      -28.127930    4.318837   -3.136243
    117          6           0      -25.596858    1.910726   -2.703042
    118          8           0      -24.888567    2.573228   -3.458484
    119          6           0      -25.056904    0.712155   -1.871937
    120          6           0      -24.519156   -0.231538   -2.937574
    121          8           0      -23.367621   -0.715954   -2.928637
    122          8           0      -25.561081   -0.537919   -3.780847
    123          6           0      -25.465196   -1.620487   -4.790467
    124          1           0      -27.646756   -3.430898    2.912298
    125          1           0      -33.380683   -0.413393    2.111142
    126          1           0      -30.695633    3.684326   -1.914388
    127          1           0      -24.565764   -2.087222   -0.334150
    128          1           0      -25.314884   -2.012753    2.544764
    129          1           0      -25.843791   -4.599525    1.687655
    130          1           0      -24.303927   -3.954051    2.407226
    131          1           0      -24.563717   -4.057477    0.699381
    132          1           0      -22.970839   -0.519440    0.115820
    133          1           0      -23.224008   -1.189850    1.763051
    134          1           0      -24.894450    1.064186    1.465180
    135          1           0      -23.324655    1.372099    0.801271
    136          1           0      -29.316115   -4.893638    3.600163
    137          1           0      -30.977523   -4.979105    4.212751
    138          1           0      -29.834515   -3.832278    4.934171
    139          1           0      -34.194040   -2.243507    1.907994
    140          1           0      -34.721796   -1.560569    3.484042
    141          1           0      -35.356209   -3.123852    2.991055
    142          1           0      -33.191111    2.382479    1.524562
    143          1           0      -33.093415    2.353085   -1.631292
    144          1           0      -35.090370    1.612059   -0.597519
    145          1           0      -35.435871    1.730631    1.246184
    146          1           0      -34.955302    0.283696    0.509593
    147          1           0      -32.095584    4.599442   -0.237131
    148          1           0      -33.661017    4.303661    0.361000
    149          1           0      -34.456686    5.574190   -1.555759
    150          1           0      -33.771906    4.293439   -2.590990
    151          1           0      -32.718541    5.464501   -2.052777
    152          1           0      -27.555034    4.331062   -4.063779
    153          1           0      -27.807614    5.157962   -2.518259
    154          1           0      -29.147673    4.506452   -3.474971
    155          1           0      -24.281358    1.174512   -1.262534
    156          1           0      -26.390866   -2.187835   -4.885592
    157          1           0      -24.662846   -2.293887   -4.488591
    158          1           0      -25.217844   -1.394349   -5.826911
 ---------------------------------------------------------------------

 SCF Done:  E(RPBE1PBE) =  -4067.33163500     A.U. after   17 cycles

 Excitation energies and oscillator strengths:

 Excited State   1:      Singlet-A      1.7791 eV  696.89 nm  f=0.0000  <S**2>=0.000
     312 -> 313        0.70711
 This state for optimization and/or second-order correction.
 Total Energy, E(TD-HF/TD-DFT) =  -4067.26625427
 Copying the excited state density for this state as the 1-particle RhoCI density.

 Excited State   2:      Singlet-A      1.7944 eV  690.97 nm  f=0.3678  <S**2>=0.000
     309 -> 315        0.16553
     311 -> 313        0.69590
     311 <- 313       -0.11768

 Excited State   3:      Singlet-A      1.8237 eV  679.85 nm  f=0.3640  <S**2>=0.000
     310 -> 316        0.15437
     312 -> 314        0.69682
     312 <- 314       -0.11765

 Excited State   4:      Singlet-A      2.1026 eV  589.68 nm  f=0.0000  <S**2>=0.000
     311 -> 314        0.70711

 Excited State   5:      Singlet-A      2.1559 eV  575.10 nm  f=0.1300  <S**2>=0.000
     308 -> 313       -0.10048
     309 -> 313        0.65391
     311 -> 315       -0.23172

 The electronic state is 1-A.
 Alpha  occ. eigenvalues --  -46.93360 -46.91701 -19.26776 -19.25391 -19.20512
 Alpha  occ. eigenvalues --  -19.20214 -19.18979 -19.18524 -19.17849 -19.17625
 Alpha  occ. eigenvalues --  -14.42123 -14.41537 -14.41515 -14.40914 -14.39839
 Alpha  occ. eigenvalues --  -14.39231 -14.39014 -14.38145 -10.37445 -10.37057
 Alpha  occ. eigenvalues --  -10.32454 -10.31261 -10.30921 -10.30721 -10.29949
 Alpha  occ. eigenvalues --  -10.29665 -10.29210 -10.29159 -10.28901 -10.28790
 Alpha  occ. eigenvalues --  -10.28662 -10.28651 -10.28358 -10.28244 -10.28186
 Alpha  occ. eigenvalues --  -10.28119 -10.27994 -10.27851 -10.26942 -10.26933
 Alpha  occ. eigenvalues --  -10.26870 -10.26778 -10.26247 -10.26243 -10.26128
 Alpha  occ. eigenvalues --  -10.26126 -10.25998 -10.25967 -10.25923 -10.25905
 Alpha  occ. eigenvalues --  -10.25819 -10.25786 -10.25757 -10.25704 -10.25500
 Alpha  occ. eigenvalues --  -10.25406 -10.25383 -10.25316 -10.25258 -10.25150
 Alpha  occ. eigenvalues --  -10.25018 -10.24987 -10.24974 -10.24833 -10.24757
 Alpha  occ. eigenvalues --  -10.24466 -10.24406 -10.24317 -10.24261 -10.24177
 Alpha  occ. eigenvalues --  -10.24056 -10.24009 -10.23891 -10.23842 -10.23653
 Alpha  occ. eigenvalues --  -10.23580 -10.23566 -10.23346 -10.23285 -10.23223
 Alpha  occ. eigenvalues --  -10.23086 -10.22987 -10.22966 -10.22713 -10.22630
 Alpha  occ. eigenvalues --  -10.21377  -3.15412  -3.13874  -1.88208  -1.87822
 Alpha  occ. eigenvalues --   -1.87609  -1.86695  -1.86252  -1.86099  -1.10335
 Alpha  occ. eigenvalues --   -1.09132  -1.06391  -1.04218  -1.03918  -1.02604
 Alpha  occ. eigenvalues --   -1.01990  -1.01430  -0.99761  -0.99432  -0.98948
 Alpha  occ. eigenvalues --   -0.98585  -0.98151  -0.97640  -0.96921  -0.96841
 Alpha  occ. eigenvalues --   -0.87945  -0.86874  -0.84119  -0.83448  -0.83297
 Alpha  occ. eigenvalues --   -0.83015  -0.82881  -0.82750  -0.82189  -0.82100
 Alpha  occ. eigenvalues --   -0.81588  -0.81422  -0.80832  -0.80368  -0.78879
 Alpha  occ. eigenvalues --   -0.78872  -0.78236  -0.77784  -0.77391  -0.76450
 Alpha  occ. eigenvalues --   -0.76435  -0.75784  -0.75323  -0.75239  -0.74884
 Alpha  occ. eigenvalues --   -0.74708  -0.72805  -0.72539  -0.72128  -0.71396
 Alpha  occ. eigenvalues --   -0.71354  -0.71201  -0.70966  -0.70319  -0.69883
 Alpha  occ. eigenvalues --   -0.69812  -0.68076  -0.67664  -0.66459  -0.66225
 Alpha  occ. eigenvalues --   -0.64382  -0.64120  -0.63839  -0.63175  -0.62731
 Alpha  occ. eigenvalues --   -0.61966  -0.61181  -0.60925  -0.60671  -0.60104
 Alpha  occ. eigenvalues --   -0.59840  -0.59248  -0.59066  -0.59011  -0.58848
 Alpha  occ. eigenvalues --   -0.58546  -0.58121  -0.56144  -0.54852  -0.54442
 Alpha  occ. eigenvalues --   -0.54296  -0.54017  -0.53749  -0.53531  -0.53093
 Alpha  occ. eigenvalues --   -0.52634  -0.52156  -0.51995  -0.51851  -0.51339
 Alpha  occ. eigenvalues --   -0.51152  -0.50546  -0.50378  -0.50128  -0.49883
 Alpha  occ. eigenvalues --   -0.49861  -0.49663  -0.49444  -0.49289  -0.48987
 Alpha  occ. eigenvalues --   -0.48514  -0.48048  -0.47967  -0.47739  -0.47634
 Alpha  occ. eigenvalues --   -0.47536  -0.47415  -0.47080  -0.47004  -0.46498
 Alpha  occ. eigenvalues --   -0.46474  -0.46403  -0.46388  -0.46099  -0.46014
 Alpha  occ. eigenvalues --   -0.46012  -0.45670  -0.45383  -0.45187  -0.45044
 Alpha  occ. eigenvalues --   -0.44927  -0.44642  -0.44327  -0.44150  -0.44121
 Alpha  occ. eigenvalues --   -0.44020  -0.43851  -0.43817  -0.43647  -0.43578
 Alpha  occ. eigenvalues --   -0.43353  -0.43168  -0.42962  -0.42723  -0.42641
 Alpha  occ. eigenvalues --   -0.42495  -0.42328  -0.42321  -0.42047  -0.42016
 Alpha  occ. eigenvalues --   -0.41940  -0.41845  -0.41683  -0.41659  -0.41312
 Alpha  occ. eigenvalues --   -0.41194  -0.41030  -0.40938  -0.40687  -0.40523
 Alpha  occ. eigenvalues --   -0.40300  -0.40252  -0.40156  -0.40149  -0.39767
 Alpha  occ. eigenvalues --   -0.39573  -0.39363  -0.39148  -0.38986  -0.38929
 Alpha  occ. eigenvalues --   -0.38807  -0.38509  -0.38338  -0.38297  -0.38208
 Alpha  occ. eigenvalues --   -0.37963  -0.37956  -0.37831  -0.37573  -0.37519
 Alpha  occ. eigenvalues --   -0.37475  -0.37112  -0.37096  -0.36906  -0.36775
 Alpha  occ. eigenvalues --   -0.36768  -0.36553  -0.36527  -0.36422  -0.36367
 Alpha  occ. eigenvalues --   -0.36212  -0.35956  -0.35748  -0.35485  -0.35472
 Alpha  occ. eigenvalues --   -0.35138  -0.35090  -0.34863  -0.33987  -0.33949
 Alpha  occ. eigenvalues --   -0.33687  -0.33191  -0.33060  -0.33012  -0.32381
 Alpha  occ. eigenvalues --   -0.32337  -0.31901  -0.31841  -0.31611  -0.31156
 Alpha  occ. eigenvalues --   -0.30983  -0.30675  -0.29819  -0.29286  -0.29091
 Alpha  occ. eigenvalues --   -0.28988  -0.28698  -0.28594  -0.27165  -0.26978
 Alpha  occ. eigenvalues --   -0.26339  -0.25640  -0.25302  -0.25279  -0.25013
 Alpha  occ. eigenvalues --   -0.24951  -0.24784  -0.23751  -0.21420  -0.21150
 Alpha  occ. eigenvalues --   -0.19365  -0.18828
 Alpha virt. eigenvalues --   -0.12062  -0.11411  -0.05491  -0.05118  -0.03896
 Alpha virt. eigenvalues --   -0.03651  -0.02004  -0.01898  -0.01799  -0.00491
 Alpha virt. eigenvalues --   -0.00057   0.00394   0.00605   0.00743   0.01811

 Mulliken charges:
               1
     1  Mg  12.000000
     2  C    6.000000
     3  C    6.000000
     4  C    6.000000
     5  C    6.000000
     6  N    7.000000
     7  C    6.000000
     8  C    6.000000
     9  C    6.000000
    10  C    6.000000
    11  C    6.000000
    12  C    6.000000
    13  C    6.000000
    14  H    1.000000
    15  N    7.000000
    16  C    6.000000
    17  C    6.000000
    18  C    6.000000
    19  C    6.000000
    20  C    6.000000
    21  C    6.000000
    22  O    8.000000
    23  C    6.000000
    24  N    7.000000
    25  C    6.000000
    26  C    6.000000
    27  C    6.000000
    28  C    6.000000
    29  C    6.000000
    30  C    6.000000
    31  C    6.000000
    32  N    7.000000
    33  C    6.000000
    34  C    6.000000
    35  C    6.000000
    36  C    6.000000
    37  C    6.000000
    38  C    6.000000
    39  O    8.000000
    40  C    6.000000
    41  C    6.000000
    42  O    8.000000
    43  O    8.000000
    44  C    6.000000
    45  H    1.000000
    46  H    1.000000
    47  H    1.000000
    48  H    1.000000
    49  H    1.000000
    50  H    1.000000
    51  H    1.000000
    52  H    1.000000
    53  H    1.000000
    54  H    1.000000
    55  H    1.000000
    56  H    1.000000
    57  H    1.000000
    58  H    1.000000
    59  H    1.000000
    60  H    1.000000
    61  H    1.000000
    62  H    1.000000
    63  H    1.000000
    64  H    1.000000
    65  H    1.000000
    66  H    1.000000
    67  H    1.000000
    68  H    1.000000
    69  H    1.000000
    70  H    1.000000
    71  H    1.000000
    72  H    1.000000
    73  H    1.000000
    74  H    1.000000
    75  H    1.000000
    76  H    1.000000
    77  H    1.000000
    78  H    1.000000
    79  H    1.000000
    80  Mg  12.000000
    81  C    6.000000
    82  C    6.000000
    83  C    6.000000
    84  C    6.000000
    85  N    7.000000
    86  C    6.000000
    87  C    6.000000
    88  C    6.000000
    89  C    6.000000
    90  C    6.000000
    91  C    6.000000
    92  C    6.000000
    93  H    1.000000
    94  N    7.000000
    95  C    6.000000
    96  C    6.000000
    97  C    6.000000
    98  C    6.000000
    99  C    6.000000
   100  C    6.000000
   101  O    8.000000
   102  C    6.000000
   103  N    7.000000
   104  C    6.000000
   105  C    6.000000
   106  C    6.000000
   107  C    6.000000
   108  C    6.000000
   109  C    6.000000
   110  C    6.000000
   111  N    7.000000
   112  C    6.000000
   113  C    6.000000
   114  C    6.000000
   115  C    6.000000
   116  C    6.000000
   117  C    6.000000
   118  O    8.000000
   119  C    6.000000
   120  C    6.000000
   121  O    8.000000
   122  O    8.000000
   123  C    6.000000
   124  H    1.000000
   125  H    1.000000
   126  H    1.000000
   127  H    1.000000
   128  H    1.000000
   129  H    1.000000
   130  H    1.000000
   131  H    1.000000
   132  H    1.000000
   133  H    1.000000
   134  H    1.000000
   135  H    1.000000
   136  H    1.000000
   137  H    1.000000
   138  H    1.000000
   139  H    1.000000
   140  H    1.000000
   141  H    1.000000
   142  H    1.000000
   143  H    1.000000
   144  H    1.000000
   145  H    1.000000
   146  H    1.000000
   147  H    1.000000
   148  H    1.000000
   149  H    1.000000
   150  H    1.000000
   151  H    1.000000
   152  H    1.000000
   153  H    1.000000
   154  H    1.000000
   155  H    1.000000
   156  H    1.000000
   157  H    1.000000
   158  H    1.000000
 Sum of Mulliken charges = 624.00000

 Dipole moment (field-independent basis, Debye):
    X=             -0.0000    Y=             -0.0000    Z=              0.0000  Tot=              0.0000
 Quadrupole moment (field-independent basis, Debye-Ang):
   XX=              0.0000   YY=              0.0000   ZZ=              0.0000
   XY=              0.0000   XZ=             -0.0000   YZ=             -0.0000

 Normal termination of Gaussian 16 at Thu Oct 14 14:14:53 2021.
