 Gaussian 16, Revision A.03,
 Gaussian 16:  ES64L-G16RevA.03 25-Dec-2016

 --------------------------------------------------------
 #p PBE1PBE/Def2SVP td=(nstates=5) density=(transition=1)
 --------------------------------------------------------

 --------------------------------
 TDDFT excited states in gaussian
 --------------------------------
 Symbolic Z-matrix:
 Charge =  0 Multiplicity = 1

                         Standard orientation:
 ---------------------------------------------------------------------
 Center     Atomic      Atomic             Coordinates (Angstroms)
 Number     Number       Type             X           Y           Z
 ---------------------------------------------------------------------
      1         12           0      -32.840549   -0.178946   -0.817317
      2          6           0      -29.603119    1.253144   -0.436131
      3          6           0      -31.452053   -3.304784   -0.633034
      4          6           0      -36.010037   -1.492566   -0.127533
      5          6           0      -34.230851    3.022226   -0.407410
      6          7           0      -30.673214   -0.869243   -0.290036
      7          6           0      -29.538938   -0.162072   -0.420703
      8          6           0      -28.383841   -1.109829   -0.687298
      9          6           0      -28.955099   -2.608693   -0.685094
     10          6           0      -30.512709   -2.193610   -0.673854
     11          6           0      -28.506834   -3.314030   -1.984838
     12          6           0      -27.277976   -0.917656    0.337992
     13          6           0      -27.717122   -0.631684    1.793726
     14          1           0      -27.533424   -1.782704    2.820219
     15          7           0      -33.660623   -2.176139   -0.513100
     16          6           0      -32.860923   -3.297295   -0.466429
     17          6           0      -33.756413   -4.410727   -0.429819
     18          6           0      -35.107677   -3.955191   -0.184447
     19          6           0      -35.011491   -2.478746   -0.309483
     20          6           0      -33.274354   -5.842119   -0.380382
     21          6           0      -36.314395   -4.786305    0.254277
     22          8           0      -36.187650   -5.976236    0.469935
     23          6           0      -37.622467   -4.236620    0.449664
     24          7           0      -34.820143    0.632300   -0.234181
     25          6           0      -35.926592   -0.093518   -0.169688
     26          6           0      -37.168032    0.725974    0.143014
     27          6           0      -36.491832    2.138942    0.411125
     28          6           0      -35.128146    1.972125   -0.155642
     29          6           0      -38.245622    0.754049   -1.047901
     30          6           0      -36.568733    2.510224    1.963364
     31          6           0      -37.437414    3.641781    2.435048
     32          7           0      -32.142652    1.704246   -0.740222
     33          6           0      -32.836519    2.930800   -0.700142
     34          6           0      -31.898211    4.063010   -0.812910
     35          6           0      -30.667050    3.412317   -0.734168
     36          6           0      -30.811553    1.990975   -0.564778
     37          6           0      -32.189982    5.580943   -1.075040
     38          6           0      -29.226495    3.685850   -0.715268
     39          8           0      -28.558729    4.729113   -0.807977
     40          6           0      -28.476133    2.324190   -0.541922
     41          6           0      -27.813095    2.568766    0.769563
     42          8           0      -28.380841    2.838454    1.796854
     43          8           0      -26.491793    2.574022    0.618397
     44          6           0      -25.610777    2.717758    1.829629
     45          1           0      -31.014383   -4.275297   -0.875327
     46          1           0      -37.057518   -1.761397    0.022743
     47          1           0      -34.753974    3.951167   -0.168813
     48          1           0      -28.084789   -0.721246   -1.660810
     49          1           0      -28.654774   -3.169799    0.200216
     50          1           0      -27.914342   -4.186331   -1.709621
     51          1           0      -27.869928   -2.709844   -2.631427
     52          1           0      -29.423018   -3.644736   -2.473328
     53          1           0      -26.638977   -0.088931    0.032918
     54          1           0      -26.671747   -1.820262    0.420073
     55          1           0      -28.777142   -0.458734    1.979083
     56          1           0      -27.128388    0.237581    2.086989
     57          1           0      -32.186577   -5.902668   -0.337605
     58          1           0      -33.731955   -6.372042   -1.216480
     59          1           0      -33.744022   -6.310709    0.483741
     60          1           0      -37.707929   -3.506500    1.254763
     61          1           0      -38.319720   -5.041622    0.681064
     62          1           0      -37.815227   -3.736919   -0.500292
     63          1           0      -37.651218    0.459438    1.082669
     64          1           0      -37.211608    2.807167   -0.061972
     65          1           0      -37.908792    0.106541   -1.857984
     66          1           0      -38.274203    1.774504   -1.430412
     67          1           0      -39.273196    0.514991   -0.769648
     68          1           0      -35.606928    2.867289    2.331700
     69          1           0      -36.859982    1.645285    2.557733
     70          1           0      -36.889903    4.560277    2.646616
     71          1           0      -37.813991    3.203378    3.359807
     72          1           0      -38.358554    3.779935    1.868665
     73          1           0      -32.558655    6.011261   -0.144309
     74          1           0      -32.889390    5.631926   -1.909664
     75          1           0      -31.244601    6.079486   -1.288308
     76          1           0      -27.822888    2.230342   -1.410204
     77          1           0      -25.449681    3.757777    2.114285
     78          1           0      -24.632650    2.265439    1.661009
     79          1           0      -26.126586    2.162144    2.612765
     80         12           0       32.617025    0.461937   -0.326756
     81          6           0       30.453763   -1.987509    0.885706
     82          6           0       30.866368    2.834173    1.459937
     83          6           0       34.827387    2.583479   -1.502195
     84          6           0       34.931972   -2.199741   -1.242743
     85          7           0       30.748415    0.373304    1.013791
     86          6           0       30.045521   -0.734434    1.396519
     87          6           0       28.885985   -0.360132    2.249816
     88          6           0       29.051772    1.196866    2.466645
     89          6           0       30.315685    1.547964    1.588538
     90          6           0       27.765391    2.025712    2.223571
     91          6           0       28.850102   -1.126748    3.594229
     92          6           0       27.484369   -1.776048    3.811113
     93          1           0       26.751830   -1.478735    5.154243
     94          7           0       32.797839    2.455515   -0.078986
     95          6           0       31.963243    3.295452    0.656867
     96          6           0       32.465472    4.643167    0.422633
     97          6           0       33.623540    4.605432   -0.484879
     98          6           0       33.774891    3.151033   -0.805954
     99          6           0       31.978103    5.795883    1.147587
    100          6           0       34.441985    5.796340   -0.767953
    101          8           0       34.200552    6.907247   -0.344250
    102          6           0       35.721834    5.762513   -1.528023
    103          7           0       34.539583    0.207947   -1.165340
    104          6           0       35.116021    1.261443   -1.828606
    105          6           0       36.416431    0.824922   -2.469702
    106          6           0       36.637843   -0.545450   -1.947899
    107          6           0       35.355630   -0.873823   -1.361658
    108          6           0       36.481361    0.996684   -4.042630
    109          6           0       37.689214   -0.601739   -0.786928
    110          6           0       38.455337   -1.836164   -0.656361
    111          7           0       32.713502   -1.682717   -0.251166
    112          6           0       33.655930   -2.613459   -0.707729
    113          6           0       33.071042   -3.917417   -0.686011
    114          6           0       31.851102   -3.748275   -0.041909
    115          6           0       31.683391   -2.347443    0.249118
    116          6           0       33.740932   -5.135058   -1.206965
    117          6           0       30.728906   -4.429053    0.469768
    118          8           0       30.461759   -5.609965    0.459285
    119          6           0       29.774821   -3.348484    1.025734
    120          6           0       28.470725   -3.468053    0.354543
    121          8           0       28.161777   -2.939624   -0.726806
    122          8           0       27.691615   -4.384310    1.023074
    123          6           0       26.314125   -4.610976    0.616982
    124          1           0       30.229427    3.537366    1.999548
    125          1           0       35.662368    3.165130   -1.900758
    126          1           0       35.646074   -2.963870   -1.556852
    127          1           0       28.033078   -0.400165    1.571700
    128          1           0       29.298814    1.469804    3.492136
    129          1           0       26.985251    1.266542    2.291462
    130          1           0       27.738945    2.633514    1.319088
    131          1           0       27.619507    2.730391    3.041894
    132          1           0       28.948619   -0.488685    4.472256
    133          1           0       29.657094   -1.857758    3.547766
    134          1           0       27.797443   -2.817450    3.884242
    135          1           0       26.893378   -1.591230    2.915290
    136          1           0       31.166492    5.466351    1.796627
    137          1           0       31.517790    6.579883    0.545544
    138          1           0       32.775689    6.187717    1.779774
    139          1           0       35.400278    5.160513   -2.377924
    140          1           0       36.467578    5.237264   -0.930715
    141          1           0       36.026626    6.763189   -1.835138
    142          1           0       37.135607    1.539689   -2.071405
    143          1           0       36.801374   -1.345900   -2.669525
    144          1           0       35.632491    1.580941   -4.398316
    145          1           0       36.650878    0.074507   -4.599563
    146          1           0       37.276122    1.667467   -4.367797
    147          1           0       37.191290   -0.379340    0.156927
    148          1           0       38.432395    0.186885   -0.903579
    149          1           0       39.330206   -1.772571   -1.304312
    150          1           0       37.854649   -2.720978   -0.869603
    151          1           0       38.949821   -1.859085    0.315288
    152          1           0       34.295621   -4.919477   -2.120071
    153          1           0       33.067799   -5.978065   -1.363771
    154          1           0       34.508491   -5.341477   -0.461020
    155          1           0       29.485042   -3.530667    2.060681
    156          1           0       26.116241   -5.150375   -0.309353
    157          1           0       25.777237   -3.662623    0.608685
    158          1           0       25.922665   -5.279016    1.383277
 ---------------------------------------------------------------------

 SCF Done:  E(RPBE1PBE) =  -4067.31081838     A.U. after   16 cycles

 Excitation energies and oscillator strengths:

 Excited State   1:      Singlet-A      1.8373 eV  674.81 nm  f=0.3494  <S**2>=0.000
     309 -> 315       -0.18255
     311 -> 313        0.68985
     311 <- 313       -0.10421
 This state for optimization and/or second-order correction.
 Total Energy, E(TD-HF/TD-DFT) =  -4067.24329787
 Copying the excited state density for this state as the 1-particle RhoCI density.

 Excited State   2:      Singlet-A      1.8532 eV  669.01 nm  f=0.3482  <S**2>=0.000
     310 -> 316        0.19401
     312 -> 314        0.68724

 Excited State   3:      Singlet-A      1.9535 eV  634.67 nm  f=0.0000  <S**2>=0.000
     312 -> 313        0.70711

 Excited State   4:      Singlet-A      2.1072 eV  588.39 nm  f=0.0000  <S**2>=0.000
     311 -> 314        0.70711

 Excited State   5:      Singlet-A      2.1967 eV  564.41 nm  f=0.0978  <S**2>=0.000
     309 -> 313        0.64583
     311 -> 315        0.27300

 The electronic state is 1-A.
 Alpha  occ. eigenvalues --  -46.93587 -46.92318 -19.25707 -19.25515 -19.19576
 Alpha  occ. eigenvalues --  -19.19135 -19.19079 -19.18626 -19.18261 -19.17586
 Alpha  occ. eigenvalues --  -14.41930 -14.41829 -14.41464 -14.41448 -14.39918
 Alpha  occ. eigenvalues --  -14.39848 -14.39198 -14.38851 -10.36085 -10.35738
 Alpha  occ. eigenvalues --  -10.32189 -10.31412 -10.31350 -10.30801 -10.29775
 Alpha  occ. eigenvalues --  -10.29672 -10.29324 -10.29318 -10.29179 -10.29146
 Alpha  occ. eigenvalues --  -10.28882 -10.28802 -10.28718 -10.28704 -10.28555
 Alpha  occ. eigenvalues --  -10.28509 -10.28359 -10.28245 -10.27714 -10.27694
 Alpha  occ. eigenvalues --  -10.27475 -10.26831 -10.26717 -10.26577 -10.26543
 Alpha  occ. eigenvalues --  -10.26493 -10.26397 -10.26196 -10.26153 -10.26136
 Alpha  occ. eigenvalues --  -10.26038 -10.26023 -10.26021 -10.25890 -10.25762
 Alpha  occ. eigenvalues --  -10.25746 -10.25687 -10.25678 -10.25662 -10.25559
 Alpha  occ. eigenvalues --  -10.25447 -10.25134 -10.25091 -10.25047 -10.24926
 Alpha  occ. eigenvalues --  -10.24784 -10.24758 -10.24729 -10.24566 -10.24443
 Alpha  occ. eigenvalues --  -10.24318 -10.24286 -10.24170 -10.24099 -10.24096
 Alpha  occ. eigenvalues --  -10.23940 -10.23692 -10.23658 -10.23562 -10.22983
 Alpha  occ. eigenvalues --  -10.22974 -10.22928 -10.22511 -10.22472 -10.22471
 Alpha  occ. eigenvalues --  -10.22251  -3.15481  -3.14390  -1.88282  -1.87885
 Alpha  occ. eigenvalues --   -1.87680  -1.87233  -1.86773  -1.86602  -1.11829
 Alpha  occ. eigenvalues --   -1.10201  -1.04933  -1.04846  -1.04568  -1.03577
 Alpha  occ. eigenvalues --   -1.02521  -1.01493  -0.99590  -0.99219  -0.98468
 Alpha  occ. eigenvalues --   -0.98280  -0.97629  -0.97090  -0.96228  -0.96166
 Alpha  occ. eigenvalues --   -0.87021  -0.86310  -0.85109  -0.83853  -0.83378
 Alpha  occ. eigenvalues --   -0.83256  -0.83055  -0.82565  -0.82052  -0.81603
 Alpha  occ. eigenvalues --   -0.81408  -0.80552  -0.80484  -0.79616  -0.79526
 Alpha  occ. eigenvalues --   -0.78916  -0.78864  -0.78339  -0.77739  -0.77086
 Alpha  occ. eigenvalues --   -0.76838  -0.76799  -0.75733  -0.75435  -0.75156
 Alpha  occ. eigenvalues --   -0.74607  -0.73013  -0.72285  -0.72244  -0.71642
 Alpha  occ. eigenvalues --   -0.71412  -0.70699  -0.70621  -0.70564  -0.69740
 Alpha  occ. eigenvalues --   -0.69306  -0.67868  -0.67308  -0.66488  -0.66188
 Alpha  occ. eigenvalues --   -0.63801  -0.63474  -0.63233  -0.62934  -0.62540
 Alpha  occ. eigenvalues --   -0.62347  -0.61864  -0.61143  -0.60932  -0.60413
 Alpha  occ. eigenvalues --   -0.60015  -0.59810  -0.59626  -0.59342  -0.59274
 Alpha  occ. eigenvalues --   -0.58574  -0.57011  -0.56615  -0.55297  -0.54853
 Alpha  occ. eigenvalues --   -0.54075  -0.54010  -0.53858  -0.53635  -0.53599
 Alpha  occ. eigenvalues --   -0.53085  -0.52538  -0.52405  -0.51852  -0.51841
 Alpha  occ. eigenvalues --   -0.50989  -0.50752  -0.50389  -0.50366  -0.50039
 Alpha  occ. eigenvalues --   -0.49737  -0.49603  -0.49485  -0.49115  -0.49021
 Alpha  occ. eigenvalues --   -0.48822  -0.48465  -0.48089  -0.47904  -0.47696
 Alpha  occ. eigenvalues --   -0.47462  -0.47209  -0.47094  -0.46933  -0.46766
 Alpha  occ. eigenvalues --   -0.46669  -0.46485  -0.46417  -0.46335  -0.46277
 Alpha  occ. eigenvalues --   -0.46085  -0.45968  -0.45815  -0.45219  -0.45012
 Alpha  occ. eigenvalues --   -0.44812  -0.44650  -0.44367  -0.44286  -0.44193
 Alpha  occ. eigenvalues --   -0.44102  -0.44041  -0.43813  -0.43774  -0.43529
 Alpha  occ. eigenvalues --   -0.43483  -0.43223  -0.43127  -0.43103  -0.42924
 Alpha  occ. eigenvalues --   -0.42454  -0.42298  -0.41966  -0.41836  -0.41722
 Alpha  occ. eigenvalues --   -0.41641  -0.41616  -0.41495  -0.41335  -0.41273
 Alpha  occ. eigenvalues --   -0.41040  -0.41025  -0.40882  -0.40536  -0.40498
 Alpha  occ. eigenvalues --   -0.40293  -0.40093  -0.40082  -0.39931  -0.39819
 Alpha  occ. eigenvalues --   -0.39749  -0.39571  -0.39327  -0.39242  -0.39144
 Alpha  occ. eigenvalues --   -0.38874  -0.38767  -0.38578  -0.38519  -0.38356
 Alpha  occ. eigenvalues --   -0.38218  -0.38091  -0.37990  -0.37888  -0.37811
 Alpha  occ. eigenvalues --   -0.37753  -0.37414  -0.37262  -0.36957  -0.36885
 Alpha  occ. eigenvalues --   -0.36609  -0.36361  -0.36347  -0.36221  -0.36145
 Alpha  occ. eigenvalues --   -0.36125  -0.36055  -0.35722  -0.35585  -0.35149
 Alpha  occ. eigenvalues --   -0.35014  -0.34966  -0.34737  -0.34082  -0.33659
 Alpha  occ. eigenvalues --   -0.33521  -0.32936  -0.32677  -0.32413  -0.32313
 Alpha  occ. eigenvalues --   -0.32104  -0.32019  -0.31779  -0.31421  -0.31394
 Alpha  occ. eigenvalues --   -0.31240  -0.30718  -0.29528  -0.29283  -0.29135
 Alpha  occ. eigenvalues --   -0.28920  -0.28838  -0.28223  -0.27028  -0.27023
 Alpha  occ. eigenvalues --   -0.26026  -0.25693  -0.25538  -0.25484  -0.25376
 Alpha  occ. eigenvalues --   -0.25051  -0.24493  -0.24324  -0.21259  -0.21233
 Alpha  occ. eigenvalues --   -0.19220  -0.18993
 Alpha virt. eigenvalues --   -0.11612  -0.11275  -0.05965  -0.05936  -0.03974
 Alpha virt. eigenvalues --   -0.03945  -0.02074  -0.02045  -0.01673  -0.00187
 Alpha virt. eigenvalues --   -0.00048   0.00407   0.00746   0.00956   0.01225

 Mulliken charges:
               1
     1  Mg  12.000032
     2  C    6.000082
     3  C    5.999917
     4  C    5.999942
     5  C    6.000074
     6  N    7.000031
     7  C    5.999820
     8  C    6.000041
     9  C    5.999908
    10  C    6.000266
    11  C    6.000007
    12  C    6.000010
    13  C    6.000036
    14  H    0.999937
    15  N    6.999914
    16  C    6.000240
    17  C    6.000084
    18  C    6.000066
    19  C    6.000162
    20  C    6.000000
    21  C    6.000056
    22  O    8.000114
    23  C    5.999993
    24  N    7.000008
    25  C    6.000132
    26  C    5.999913
    27  C    6.000100
    28  C    5.999800
    29  C    5.999993
    30  C    6.000004
    31  C    6.000005
    32  N    7.000073
    33  C    5.999754
    34  C    5.999824
    35  C    6.000020
    36  C    5.999831
    37  C    5.999962
    38  C    5.999883
    39  O    7.999803
    40  C    5.999973
    41  C    5.999956
    42  O    7.999990
    43  O    7.999989
    44  C    6.000018
    45  H    1.000036
    46  H    1.000072
    47  H    0.999948
    48  H    1.000028
    49  H    1.000033
    50  H    1.000034
    51  H    1.000054
    52  H    0.999977
    53  H    1.000022
    54  H    0.999971
    55  H    0.999997
    56  H    1.000017
    57  H    1.000113
    58  H    1.000110
    59  H    1.000096
    60  H    1.000061
    61  H    1.000076
    62  H    1.000034
    63  H    1.000012
    64  H    0.999976
    65  H    0.999982
    66  H    1.000065
    67  H    1.000009
    68  H    1.000019
    69  H    0.999935
    70  H    1.000006
    71  H    0.999972
    72  H    0.999975
    73  H    0.999900
    74  H    0.999917
    75  H    0.999932
    76  H    0.999939
    77  H    0.999975
    78  H    0.999969
    79  H    0.999977
    80  Mg  12.001404
    81  C    6.013328
    82  C    5.986659
    83  C    5.982944
    84  C    6.015078
    85  N    7.004328
    86  C    5.969930
    87  C    6.012442
    88  C    5.992534
    89  C    6.026630
    90  C    5.997312
    91  C    6.000962
    92  C    6.001171
    93  H    0.992659
    94  N    6.991569
    95  C    6.040789
    96  C    6.021730
    97  C    6.011015
    98  C    6.036080
    99  C    5.990596
   100  C    6.006945
   101  O    8.017547
   102  C    5.999599
   103  N    7.006068
   104  C    6.032045
   105  C    5.992781
   106  C    6.006699
   107  C    5.964949
   108  C    5.999259
   109  C    6.006244
   110  C    6.000964
   111  N    7.002179
   112  C    5.961347
   113  C    5.975361
   114  C    5.996658
   115  C    5.970236
   116  C    6.000493
   117  C    5.981787
   118  O    7.969280
   119  C    6.002824
   120  C    5.995080
   121  O    7.991926
   122  O    8.000206
   123  C    6.003192
   124  H    1.009493
   125  H    1.010501
   126  H    0.991214
   127  H    0.996841
   128  H    1.000533
   129  H    1.011011
   130  H    0.997459
   131  H    0.999720
   132  H    0.992963
   133  H    1.006662
   134  H    1.004050
   135  H    0.999535
   136  H    1.018316
   137  H    1.020699
   138  H    1.018851
   139  H    1.005663
   140  H    1.009834
   141  H    1.011380
   142  H    0.999081
   143  H    1.002503
   144  H    0.997567
   145  H    1.011630
   146  H    1.001578
   147  H    0.995122
   148  H    0.986697
   149  H    0.995055
   150  H    1.005645
   151  H    0.996596
   152  H    0.982595
   153  H    0.987474
   154  H    0.982681
   155  H    0.990817
   156  H    0.997198
   157  H    0.993982
   158  H    0.996222
 Sum of Mulliken charges = 624.00000

 Dipole moment (field-independent basis, Debye):
    X=              0.7234    Y=              9.9883    Z=              0.0607  Tot=             10.0147
 Quadrupole moment (field-independent basis, Debye-Ang):
   XX=             45.3885   YY=              7.5222   ZZ=              1.3101
   XY=            329.7543   XZ=              1.1873   YZ=             -1.0374

 Normal termination of Gaussian 16 at Thu Oct 14 00:09:30 2021.
