 Gaussian 16, Revision A.03,
 Gaussian 16:  ES64L-G16RevA.03 25-Dec-2016

 --------------------------------------------------------
 #p PBE1PBE/Def2SVP td=(nstates=5) density=(transition=1)
 --------------------------------------------------------

 --------------------------------
 TDDFT excited states in gaussian
 --------------------------------
 Symbolic Z-matrix:
 Charge =  0 Multiplicity = 1

                         Standard orientation:
 ---------------------------------------------------------------------
 Center     Atomic      Atomic             Coordinates (Angstroms)
 Number     Number       Type             X           Y           Z
 ---------------------------------------------------------------------
      1         12           0      -15.976073    0.706384    0.429277
      2          6           0      -15.642440   -2.088770   -1.646474
      3          6           0      -13.895418    2.363293   -1.798618
      4          6           0      -15.926492    3.164968    2.556288
      5          6           0      -17.887443   -1.287679    2.646045
      6          7           0      -14.543183    0.060983   -1.331729
      7          6           0      -14.737357   -1.050131   -2.049463
      8          6           0      -13.883235   -0.957994   -3.269560
      9          6           0      -13.004640    0.298368   -3.052308
     10          6           0      -13.861702    0.995115   -2.014139
     11          6           0      -11.544064    0.142431   -2.625268
     12          6           0      -14.736991   -0.851451   -4.572867
     13          6           0      -14.407156   -1.795109   -5.774241
     14          1           0      -12.938086   -2.279735   -5.980084
     15          7           0      -15.140087    2.611988    0.312840
     16          6           0      -14.479686    3.126478   -0.795010
     17          6           0      -14.206567    4.496311   -0.504246
     18          6           0      -14.679980    4.747366    0.845716
     19          6           0      -15.291725    3.512409    1.313193
     20          6           0      -13.422479    5.450902   -1.431101
     21          6           0      -14.544412    6.021461    1.728228
     22          8           0      -14.955488    6.117491    2.840976
     23          6           0      -13.895124    7.221022    1.066515
     24          7           0      -16.809407    0.875506    2.306955
     25          6           0      -16.586823    1.997302    3.027657
     26          6           0      -17.253537    1.987863    4.430860
     27          6           0      -18.103017    0.649647    4.319132
     28          6           0      -17.618912    0.027155    3.014913
     29          6           0      -16.118959    2.022813    5.609055
     30          6           0      -19.641319    0.867258    4.471046
     31          6           0      -20.474491    0.954327    3.204875
     32          7           0      -16.707561   -1.288906    0.535010
     33          6           0      -17.528961   -1.910522    1.436371
     34          6           0      -17.786112   -3.310421    0.947006
     35          6           0      -17.057475   -3.399726   -0.260605
     36          6           0      -16.368655   -2.159936   -0.473810
     37          6           0      -18.489916   -4.425453    1.671685
     38          6           0      -16.704564   -4.276936   -1.374166
     39          8           0      -17.049389   -5.447932   -1.557027
     40          6           0      -15.929269   -3.403727   -2.356245
     41          6           0      -14.681212   -4.171701   -2.685244
     42          8           0      -13.700124   -4.255843   -1.969425
     43          8           0      -14.960134   -4.860187   -3.779876
     44          6           0      -14.114606   -5.995993   -4.112383
     45          1           0      -13.131663    2.842936   -2.413549
     46          1           0      -16.074792    4.034060    3.200117
     47          1           0      -18.489820   -1.897005    3.323496
     48          1           0      -13.281525   -1.863494   -3.341032
     49          1           0      -12.949897    0.795946   -4.020652
     50          1           0      -11.171957   -0.878276   -2.535206
     51          1           0      -11.375478    0.640980   -1.670329
     52          1           0      -10.953719    0.655549   -3.384092
     53          1           0      -14.831348    0.166980   -4.949111
     54          1           0      -15.711321   -1.111528   -4.159406
     55          1           0      -14.700261   -1.205818   -6.644022
     56          1           0      -15.041137   -2.678685   -5.704859
     57          1           0      -12.583531    5.939756   -0.935737
     58          1           0      -14.020384    6.306609   -1.745132
     59          1           0      -13.053747    4.988940   -2.347877
     60          1           0      -14.342812    7.466541    0.103279
     61          1           0      -12.824799    7.026708    0.996506
     62          1           0      -13.904237    8.076724    1.741613
     63          1           0      -17.906605    2.845866    4.589397
     64          1           0      -17.901569   -0.052416    5.128098
     65          1           0      -16.143852    1.019854    6.035358
     66          1           0      -16.388062    2.658783    6.452689
     67          1           0      -15.101006    2.160846    5.242864
     68          1           0      -19.719295    1.866404    4.899909
     69          1           0      -20.096830    0.160955    5.164826
     70          1           0      -19.883746    1.591500    2.545620
     71          1           0      -21.380800    1.427797    3.581679
     72          1           0      -20.662139    0.069493    2.597175
     73          1           0      -18.809755   -4.260932    2.700679
     74          1           0      -17.836420   -5.297248    1.706589
     75          1           0      -19.316553   -4.706847    1.020073
     76          1           0      -16.390966   -3.299582   -3.338324
     77          1           0      -13.338428   -6.320702   -3.420148
     78          1           0      -13.572728   -5.637454   -4.988091
     79          1           0      -14.717022   -6.715497   -4.667054
     80         12           0       15.882521    0.408325   -0.601091
     81          6           0       15.517094   -2.830783    0.712243
     82          6           0       12.601903    0.285113   -1.623108
     83          6           0       16.089016    3.671051   -1.108559
     84          6           0       19.171798    0.502973    0.736645
     85          7           0       14.207838   -0.986632   -0.241596
     86          6           0       14.274902   -2.285182    0.326185
     87          6           0       13.092843   -3.107325    0.014993
     88          6           0       12.198942   -2.102972   -0.832957
     89          6           0       13.060666   -0.855414   -0.947466
     90          6           0       11.690244   -2.730093   -2.153550
     91          6           0       12.287583   -3.523464    1.208018
     92          6           0       12.158223   -2.499952    2.345933
     93          1           0       10.830905   -2.372256    3.190391
     94          7           0       14.545709    1.829481   -1.315701
     95          6           0       13.317520    1.534437   -1.782778
     96          6           0       12.758543    2.723276   -2.376217
     97          6           0       13.771245    3.711969   -2.313210
     98          6           0       14.894282    3.099501   -1.585390
     99          6           0       11.361143    2.867498   -2.916344
    100          6           0       13.674766    5.124653   -2.888555
    101          8           0       12.667424    5.504389   -3.452937
    102          6           0       14.677793    6.232428   -2.758548
    103          7           0       17.295984    1.924964   -0.012050
    104          6           0       17.174655    3.233310   -0.397883
    105          6           0       18.515924    4.014258   -0.203947
    106          6           0       19.344760    3.024403    0.669467
    107          6           0       18.580781    1.738116    0.443625
    108          6           0       19.275880    4.365609   -1.505767
    109          6           0       19.279601    3.258569    2.252290
    110          6           0       20.569258    3.223465    2.989310
    111          7           0       17.134655   -0.844724    0.374957
    112          6           0       18.438648   -0.722405    0.657550
    113          6           0       19.045256   -2.084197    0.907397
    114          6           0       17.892232   -2.931584    0.877114
    115          6           0       16.743311   -2.110679    0.696095
    116          6           0       20.486684   -2.490879    1.177883
    117          6           0       17.468710   -4.275170    1.147508
    118          8           0       18.108924   -5.257186    1.488560
    119          6           0       15.892247   -4.259196    1.016378
    120          6           0       15.332569   -4.530850    2.397350
    121          8           0       15.380452   -3.826446    3.351032
    122          8           0       14.636203   -5.719590    2.345433
    123          6           0       13.802947   -5.966494    3.526554
    124          1           0       11.634555    0.166362   -2.115258
    125          1           0       16.241073    4.703209   -1.428576
    126          1           0       20.230461    0.570483    0.995692
    127          1           0       13.439121   -3.995131   -0.514140
    128          1           0       11.342879   -1.670385   -0.315249
    129          1           0       10.634419   -2.463509   -2.102717
    130          1           0       11.883127   -3.801129   -2.091033
    131          1           0       12.115062   -2.260083   -3.040747
    132          1           0       12.528853   -4.520080    1.578627
    133          1           0       11.237960   -3.731881    0.999595
    134          1           0       12.395481   -1.540786    1.884457
    135          1           0       13.009809   -2.755980    2.976537
    136          1           0       10.899017    3.790770   -2.565333
    137          1           0       10.777935    1.978947   -2.674892
    138          1           0       11.501652    2.924670   -3.996002
    139          1           0       14.829093    6.611636   -1.748411
    140          1           0       14.153548    7.045813   -3.260441
    141          1           0       15.565932    6.082165   -3.373262
    142          1           0       18.283376    4.948498    0.306987
    143          1           0       20.379503    2.919526    0.342242
    144          1           0       20.196985    3.783873   -1.536190
    145          1           0       19.321720    5.442065   -1.670002
    146          1           0       18.684909    4.020631   -2.353448
    147          1           0       18.579086    2.568167    2.721538
    148          1           0       18.845632    4.254063    2.347451
    149          1           0       20.756929    4.130425    3.563657
    150          1           0       21.430886    3.028140    2.350500
    151          1           0       20.585455    2.431740    3.737828
    152          1           0       20.488070   -2.988292    2.147784
    153          1           0       21.113301   -1.610796    1.028136
    154          1           0       20.706401   -3.275573    0.454063
    155          1           0       15.530460   -4.980936    0.284392
    156          1           0       13.443474   -5.049839    3.993924
    157          1           0       14.473487   -6.499523    4.200685
    158          1           0       13.064405   -6.705257    3.216472
 ---------------------------------------------------------------------

 SCF Done:  E(RPBE1PBE) =  -4067.36588750     A.U. after   16 cycles

 Excitation energies and oscillator strengths:

 Excited State   1:      Singlet-A      1.8293 eV  677.76 nm  f=0.3555  <S**2>=0.000
     309 -> 315       -0.16660
     312 -> 313        0.69525
     312 <- 313       -0.11479
 This state for optimization and/or second-order correction.
 Total Energy, E(TD-HF/TD-DFT) =  -4067.29866082
 Copying the excited state density for this state as the 1-particle RhoCI density.

 Excited State   2:      Singlet-A      1.8764 eV  660.75 nm  f=0.3916  <S**2>=0.000
     310 -> 316        0.18219
     311 -> 314        0.69057
     311 <- 314       -0.10328

 Excited State   3:      Singlet-A      1.9184 eV  646.30 nm  f=0.0000  <S**2>=0.000
     311 -> 313        0.70710

 Excited State   4:      Singlet-A      1.9885 eV  623.51 nm  f=0.0000  <S**2>=0.000
     312 -> 314        0.70710

 Excited State   5:      Singlet-A      2.2077 eV  561.59 nm  f=0.0948  <S**2>=0.000
     310 -> 314        0.65478
     311 -> 316       -0.25274

 The electronic state is 1-A.
 Alpha  occ. eigenvalues --  -46.92174 -46.91962 -19.26808 -19.25251 -19.20585
 Alpha  occ. eigenvalues --  -19.19752 -19.19388 -19.19357 -19.18979 -19.18427
 Alpha  occ. eigenvalues --  -14.41882 -14.41410 -14.41384 -14.40979 -14.39248
 Alpha  occ. eigenvalues --  -14.39119 -14.38873 -14.38528 -10.36233 -10.36028
 Alpha  occ. eigenvalues --  -10.32394 -10.32134 -10.31786 -10.31729 -10.29214
 Alpha  occ. eigenvalues --  -10.28996 -10.28833 -10.28675 -10.28662 -10.28655
 Alpha  occ. eigenvalues --  -10.28614 -10.28488 -10.28437 -10.28351 -10.28102
 Alpha  occ. eigenvalues --  -10.28066 -10.27612 -10.27585 -10.27447 -10.27072
 Alpha  occ. eigenvalues --  -10.26944 -10.26941 -10.26825 -10.26752 -10.26488
 Alpha  occ. eigenvalues --  -10.26328 -10.26308 -10.26144 -10.26115 -10.25993
 Alpha  occ. eigenvalues --  -10.25933 -10.25931 -10.25865 -10.25788 -10.25752
 Alpha  occ. eigenvalues --  -10.25638 -10.25398 -10.25352 -10.25061 -10.24877
 Alpha  occ. eigenvalues --  -10.24834 -10.24718 -10.24711 -10.24446 -10.24319
 Alpha  occ. eigenvalues --  -10.24313 -10.24279 -10.24228 -10.24122 -10.24079
 Alpha  occ. eigenvalues --  -10.24053 -10.24042 -10.23966 -10.23945 -10.23770
 Alpha  occ. eigenvalues --  -10.23752 -10.23590 -10.23530 -10.23284 -10.22917
 Alpha  occ. eigenvalues --  -10.22896 -10.22895 -10.22795 -10.22783 -10.22626
 Alpha  occ. eigenvalues --  -10.22454  -3.14215  -3.14183  -1.87063  -1.86985
 Alpha  occ. eigenvalues --   -1.86624  -1.86563  -1.86425  -1.86397  -1.13024
 Alpha  occ. eigenvalues --   -1.11987  -1.06285  -1.05120  -1.04700  -1.04116
 Alpha  occ. eigenvalues --   -1.03773  -1.03351  -0.99595  -0.99210  -0.98680
 Alpha  occ. eigenvalues --   -0.98392  -0.97910  -0.97258  -0.97174  -0.96682
 Alpha  occ. eigenvalues --   -0.87566  -0.87534  -0.84140  -0.83737  -0.83016
 Alpha  occ. eigenvalues --   -0.82858  -0.82697  -0.82402  -0.81840  -0.81420
 Alpha  occ. eigenvalues --   -0.80634  -0.80427  -0.80107  -0.79852  -0.79005
 Alpha  occ. eigenvalues --   -0.78743  -0.78458  -0.77985  -0.76992  -0.76874
 Alpha  occ. eigenvalues --   -0.75890  -0.75738  -0.75152  -0.75106  -0.74804
 Alpha  occ. eigenvalues --   -0.74295  -0.72290  -0.72234  -0.71794  -0.71607
 Alpha  occ. eigenvalues --   -0.71328  -0.71128  -0.70593  -0.70350  -0.69505
 Alpha  occ. eigenvalues --   -0.69498  -0.67166  -0.67079  -0.66186  -0.66088
 Alpha  occ. eigenvalues --   -0.63934  -0.63865  -0.63308  -0.63285  -0.63027
 Alpha  occ. eigenvalues --   -0.62376  -0.61522  -0.60617  -0.60290  -0.59720
 Alpha  occ. eigenvalues --   -0.59618  -0.59443  -0.59171  -0.59056  -0.58897
 Alpha  occ. eigenvalues --   -0.58869  -0.57300  -0.56649  -0.54514  -0.54400
 Alpha  occ. eigenvalues --   -0.54190  -0.54073  -0.53760  -0.53518  -0.53400
 Alpha  occ. eigenvalues --   -0.53100  -0.52686  -0.52376  -0.52006  -0.51864
 Alpha  occ. eigenvalues --   -0.51390  -0.51109  -0.50576  -0.50528  -0.49962
 Alpha  occ. eigenvalues --   -0.49662  -0.49481  -0.49377  -0.49204  -0.49192
 Alpha  occ. eigenvalues --   -0.48681  -0.48150  -0.47833  -0.47608  -0.47564
 Alpha  occ. eigenvalues --   -0.47451  -0.47202  -0.46884  -0.46768  -0.46621
 Alpha  occ. eigenvalues --   -0.46513  -0.46273  -0.46255  -0.45939  -0.45908
 Alpha  occ. eigenvalues --   -0.45770  -0.45745  -0.45530  -0.45494  -0.44654
 Alpha  occ. eigenvalues --   -0.44618  -0.44278  -0.44222  -0.43991  -0.43959
 Alpha  occ. eigenvalues --   -0.43934  -0.43780  -0.43520  -0.43464  -0.43420
 Alpha  occ. eigenvalues --   -0.43271  -0.43198  -0.43068  -0.43068  -0.42818
 Alpha  occ. eigenvalues --   -0.42649  -0.42225  -0.41924  -0.41884  -0.41804
 Alpha  occ. eigenvalues --   -0.41599  -0.41550  -0.41453  -0.41134  -0.41097
 Alpha  occ. eigenvalues --   -0.40848  -0.40698  -0.40693  -0.40615  -0.40596
 Alpha  occ. eigenvalues --   -0.40376  -0.40262  -0.40244  -0.39968  -0.39934
 Alpha  occ. eigenvalues --   -0.39683  -0.39566  -0.39476  -0.39179  -0.39162
 Alpha  occ. eigenvalues --   -0.38838  -0.38694  -0.38477  -0.38412  -0.38123
 Alpha  occ. eigenvalues --   -0.38037  -0.38030  -0.37922  -0.37708  -0.37652
 Alpha  occ. eigenvalues --   -0.37545  -0.37371  -0.37167  -0.37037  -0.37019
 Alpha  occ. eigenvalues --   -0.37000  -0.36718  -0.36677  -0.36507  -0.36093
 Alpha  occ. eigenvalues --   -0.36063  -0.35990  -0.35651  -0.35558  -0.35265
 Alpha  occ. eigenvalues --   -0.35140  -0.34788  -0.34538  -0.34272  -0.34031
 Alpha  occ. eigenvalues --   -0.33416  -0.33270  -0.32832  -0.32245  -0.32175
 Alpha  occ. eigenvalues --   -0.32129  -0.32086  -0.31725  -0.31449  -0.31316
 Alpha  occ. eigenvalues --   -0.31188  -0.30737  -0.29900  -0.29445  -0.29406
 Alpha  occ. eigenvalues --   -0.29098  -0.28664  -0.28528  -0.26996  -0.26479
 Alpha  occ. eigenvalues --   -0.26083  -0.26014  -0.25503  -0.25405  -0.25366
 Alpha  occ. eigenvalues --   -0.25246  -0.25132  -0.24732  -0.21222  -0.20714
 Alpha  occ. eigenvalues --   -0.18703  -0.18700
 Alpha virt. eigenvalues --   -0.11234  -0.10978  -0.05314  -0.05005  -0.03999
 Alpha virt. eigenvalues --   -0.03941  -0.01904  -0.01611  -0.01321   0.00012
 Alpha virt. eigenvalues --    0.00892   0.01021   0.01084   0.01222   0.01414

 Mulliken charges:
               1
     1  Mg  12.000022
     2  C    6.000276
     3  C    5.999689
     4  C    5.999746
     5  C    6.000357
     6  N    6.999979
     7  C    5.999383
     8  C    6.000113
     9  C    5.999787
    10  C    6.000801
    11  C    5.999950
    12  C    6.000060
    13  C    5.999984
    14  H    1.000054
    15  N    6.999843
    16  C    6.000893
    17  C    6.000366
    18  C    6.000398
    19  C    6.000577
    20  C    5.999848
    21  C    6.000295
    22  O    8.000526
    23  C    5.999827
    24  N    7.000079
    25  C    6.000665
    26  C    5.999797
    27  C    6.000234
    28  C    5.999256
    29  C    5.999886
    30  C    6.000050
    31  C    6.000158
    32  N    7.000017
    33  C    5.999151
    34  C    5.999330
    35  C    5.999845
    36  C    5.999465
    37  C    6.000126
    38  C    5.999571
    39  O    7.999264
    40  C    6.000063
    41  C    5.999910
    42  O    7.999856
    43  O    7.999982
    44  C    6.000098
    45  H    1.000407
    46  H    1.000112
    47  H    0.999738
    48  H    1.000008
    49  H    1.000146
    50  H    1.000301
    51  H    0.999966
    52  H    1.000264
    53  H    0.999752
    54  H    1.000058
    55  H    0.999925
    56  H    1.000019
    57  H    1.000534
    58  H    1.000394
    59  H    1.000478
    60  H    1.000125
    61  H    1.000331
    62  H    1.000330
    63  H    0.999974
    64  H    0.999898
    65  H    1.000185
    66  H    1.000016
    67  H    0.999998
    68  H    0.999749
    69  H    0.999902
    70  H    0.999845
    71  H    0.999815
    72  H    1.000134
    73  H    0.999511
    74  H    0.999553
    75  H    0.999538
    76  H    0.999757
    77  H    0.999914
    78  H    0.999911
    79  H    0.999838
    80  Mg  11.997999
    81  C    5.972428
    82  C    6.007665
    83  C    6.021334
    84  C    5.992771
    85  N    6.993456
    86  C    6.039559
    87  C    5.986073
    88  C    6.008502
    89  C    5.970939
    90  C    6.001857
    91  C    5.996497
    92  C    5.994332
    93  H    1.008457
    94  N    7.008083
    95  C    5.960227
    96  C    5.978173
    97  C    5.994373
    98  C    5.957291
    99  C    6.002745
   100  C    5.989352
   101  O    7.981445
   102  C    6.003650
   103  N    7.003748
   104  C    5.967354
   105  C    6.006348
   106  C    5.994538
   107  C    6.023464
   108  C    5.999839
   109  C    5.992846
   110  C    5.999738
   111  N    6.998871
   112  C    6.034295
   113  C    6.038844
   114  C    5.994799
   115  C    6.037219
   116  C    5.999603
   117  C    6.014942
   118  O    8.025037
   119  C    6.001972
   120  C    6.002683
   121  O    8.003716
   122  O    8.002042
   123  C    5.998788
   124  H    0.987749
   125  H    0.992440
   126  H    1.011080
   127  H    1.001301
   128  H    1.001863
   129  H    0.999869
   130  H    0.987755
   131  H    1.001806
   132  H    0.996513
   133  H    1.008547
   134  H    1.009492
   135  H    0.993379
   136  H    0.984108
   137  H    0.982891
   138  H    0.982547
   139  H    0.989530
   140  H    0.989333
   141  H    0.988885
   142  H    1.000365
   143  H    0.999722
   144  H    0.987965
   145  H    0.999903
   146  H    1.004635
   147  H    0.999221
   148  H    1.013866
   149  H    1.005278
   150  H    1.000565
   151  H    0.997045
   152  H    1.018298
   153  H    1.017339
   154  H    1.018653
   155  H    1.009734
   156  H    1.003951
   157  H    1.001369
   158  H    1.005110
 Sum of Mulliken charges = 624.00000

 Dipole moment (field-independent basis, Debye):
    X=              6.3171    Y=             -6.5222    Z=              4.4777  Tot=             10.1240
 Quadrupole moment (field-independent basis, Debye-Ang):
   XX=            195.2459   YY=             -3.8689   ZZ=             -5.0534
   XY=           -107.9877   XZ=             65.9845   YZ=              5.7725

 Normal termination of Gaussian 16 at Fri Oct 15 17:15:52 2021.
