 Gaussian 16, Revision A.03,
 Gaussian 16:  ES64L-G16RevA.03 25-Dec-2016

 --------------------------------------------------------
 #p PBE1PBE/Def2SVP td=(nstates=5) density=(transition=1)
 --------------------------------------------------------

 --------------------------------
 TDDFT excited states in gaussian
 --------------------------------
 Symbolic Z-matrix:
 Charge =  0 Multiplicity = 1

                         Standard orientation:
 ---------------------------------------------------------------------
 Center     Atomic      Atomic             Coordinates (Angstroms)
 Number     Number       Type             X           Y           Z
 ---------------------------------------------------------------------
      1         12           0      -30.469796   -0.517301   -0.196760
      2          6           0      -27.841264    1.721465   -0.392464
      3          6           0      -28.408607   -2.640325    1.762089
      4          6           0      -33.167271   -2.500718    0.532519
      5          6           0      -32.598190    1.758827   -1.686118
      6          7           0      -28.332566   -0.480898    0.456882
      7          6           0      -27.486738    0.601621    0.336498
      8          6           0      -26.152541    0.464410    1.161563
      9          6           0      -26.180664   -1.097307    1.514280
     10          6           0      -27.724626   -1.512857    1.204140
     11          6           0      -25.158708   -2.066172    0.806249
     12          6           0      -26.066841    1.317872    2.377773
     13          6           0      -24.979388    2.366040    2.515520
     14          1           0      -24.536803    2.694220    3.950502
     15          7           0      -30.728312   -2.388671    0.917798
     16          6           0      -29.703556   -3.083275    1.587711
     17          6           0      -30.217931   -4.308971    2.110520
     18          6           0      -31.685482   -4.216806    1.892528
     19          6           0      -31.950060   -2.983656    1.088467
     20          6           0      -29.403277   -5.290795    2.959100
     21          6           0      -32.642930   -5.294216    2.431009
     22          8           0      -32.349421   -6.287232    3.090475
     23          6           0      -34.093594   -4.964361    2.439726
     24          7           0      -32.708471   -0.307719   -0.381788
     25          6           0      -33.519027   -1.352194   -0.163355
     26          6           0      -34.948167   -0.821560   -0.266948
     27          6           0      -34.837168    0.552228   -1.079229
     28          6           0      -33.250682    0.702925   -1.095129
     29          6           0      -35.824076   -1.825091   -1.097658
     30          6           0      -35.551906    1.853686   -0.527965
     31          6           0      -36.701586    2.488717   -1.295812
     32          7           0      -30.266674    1.374861   -0.994363
     33          6           0      -31.221242    2.188307   -1.612893
     34          6           0      -30.635919    3.445864   -1.964559
     35          6           0      -29.285793    3.343895   -1.507033
     36          6           0      -29.139529    2.007813   -0.964677
     37          6           0      -31.279982    4.620742   -2.630574
     38          6           0      -28.027727    3.964075   -1.430543
     39          8           0      -27.713584    5.069370   -1.824546
     40          6           0      -27.064926    2.993221   -0.643166
     41          6           0      -25.776737    2.934398   -1.351524
     42          8           0      -24.766439    3.507345   -0.959534
     43          8           0      -25.899921    2.174940   -2.505450
     44          6           0      -24.647961    2.110631   -3.292519
     45          1           0      -27.861521   -3.390804    2.335735
     46          1           0      -33.952833   -3.232190    0.735258
     47          1           0      -33.295708    2.480507   -2.116063
     48          1           0      -25.303140    0.674727    0.512580
     49          1           0      -26.086679   -1.169138    2.598437
     50          1           0      -24.406288   -1.440402    0.326375
     51          1           0      -25.604568   -2.743113    0.077389
     52          1           0      -24.736550   -2.702410    1.583225
     53          1           0      -25.881827    0.641277    3.213454
     54          1           0      -26.992578    1.878200    2.504232
     55          1           0      -25.378389    3.306890    2.137564
     56          1           0      -24.050940    2.093652    2.014151
     57          1           0      -28.377915   -5.070109    3.254958
     58          1           0      -29.492053   -6.211592    2.383128
     59          1           0      -30.071870   -5.509928    3.790992
     60          1           0      -34.708341   -5.212165    1.575469
     61          1           0      -34.280476   -3.934670    2.744915
     62          1           0      -34.535915   -5.590268    3.215662
     63          1           0      -35.410774   -0.657331    0.706522
     64          1           0      -35.095467    0.391366   -2.125309
     65          1           0      -36.726313   -2.009751   -0.514606
     66          1           0      -35.343596   -2.771244   -1.349903
     67          1           0      -36.114589   -1.436020   -2.073801
     68          1           0      -34.739062    2.572258   -0.425227
     69          1           0      -35.987566    1.552429    0.425697
     70          1           0      -36.711622    3.531088   -0.976284
     71          1           0      -37.637206    2.034710   -0.968586
     72          1           0      -36.682777    2.513690   -2.384852
     73          1           0      -30.498112    5.374810   -2.724626
     74          1           0      -32.122251    4.921732   -2.008345
     75          1           0      -31.656199    4.436058   -3.636943
     76          1           0      -26.893544    3.514791    0.299083
     77          1           0      -24.614765    2.929712   -4.010846
     78          1           0      -24.615318    1.107151   -3.716800
     79          1           0      -23.765470    2.160423   -2.655319
     80         12           0       29.704258    0.395834    0.702649
     81          6           0       30.194567   -2.341344   -1.556173
     82          6           0       27.970109    1.967955   -1.936429
     83          6           0       29.776558    3.226363    2.341869
     84          6           0       31.711450   -1.166340    2.959474
     85          7           0       29.122939   -0.179647   -1.461678
     86          6           0       29.368291   -1.379323   -2.041225
     87          6           0       28.624420   -1.439727   -3.365175
     88          6           0       27.859722   -0.098477   -3.548056
     89          6           0       28.298226    0.603319   -2.248296
     90          6           0       28.237285    0.688222   -4.926676
     91          6           0       27.602721   -2.653859   -3.441607
     92          6           0       27.651799   -3.510748   -4.707023
     93          1           0       28.010776   -2.873779   -6.109253
     94          7           0       29.011777    2.363178    0.233868
     95          6           0       28.339834    2.750996   -0.829359
     96          6           0       28.071881    4.153513   -0.679039
     97          6           0       28.438503    4.578727    0.623037
     98          6           0       29.126200    3.407161    1.099104
     99          6           0       27.213953    4.940734   -1.668182
    100          6           0       28.169515    5.826818    1.449051
    101          8           0       28.653272    6.008984    2.551237
    102          6           0       27.208716    6.819065    0.853860
    103          7           0       30.912388    1.033684    2.229231
    104          6           0       30.588607    2.226637    2.878174
    105          6           0       31.177276    2.319042    4.312200
    106          6           0       31.633989    0.822238    4.492046
    107          6           0       31.405158    0.162823    3.132070
    108          6           0       32.290667    3.374388    4.379778
    109          6           0       30.765145    0.012197    5.566393
    110          6           0       31.375233   -0.287182    6.894613
    111          7           0       30.638725   -1.391355    0.780455
    112          6           0       31.460314   -1.879601    1.773406
    113          6           0       32.085604   -3.150608    1.417305
    114          6           0       31.605175   -3.391360    0.080741
    115          6           0       30.850000   -2.254240   -0.291484
    116          6           0       32.830774   -4.011916    2.371668
    117          6           0       31.550631   -4.353269   -1.009349
    118          8           0       32.074231   -5.481815   -1.041763
    119          6           0       30.626542   -3.684509   -2.178205
    120          6           0       31.513282   -3.553180   -3.323453
    121          8           0       32.564063   -2.950658   -3.295693
    122          8           0       31.015353   -4.168214   -4.402698
    123          6           0       31.759141   -4.233025   -5.699745
    124          1           0       27.362479    2.471974   -2.690771
    125          1           0       29.506793    3.946357    3.118140
    126          1           0       32.279310   -1.664675    3.747580
    127          1           0       29.377053   -1.516899   -4.149849
    128          1           0       26.786994   -0.253112   -3.665239
    129          1           0       28.636378   -0.001660   -5.670303
    130          1           0       28.963454    1.443367   -4.624671
    131          1           0       27.352370    1.191551   -5.315804
    132          1           0       26.560603   -2.393143   -3.262034
    133          1           0       27.826148   -3.359153   -2.641235
    134          1           0       26.718295   -4.052179   -4.861841
    135          1           0       28.374606   -4.282702   -4.442918
    136          1           0       26.169423    5.040481   -1.372573
    137          1           0       27.333025    4.570841   -2.687011
    138          1           0       27.650538    5.938110   -1.715345
    139          1           0       26.336243    6.385259    0.364357
    140          1           0       27.644883    7.492928    0.117778
    141          1           0       26.699719    7.343937    1.662316
    142          1           0       30.363205    2.605533    4.977459
    143          1           0       32.678924    0.827948    4.802451
    144          1           0       32.367980    4.007050    3.495657
    145          1           0       33.273584    2.915783    4.481870
    146          1           0       32.131089    4.007688    5.253070
    147          1           0       30.426298   -0.969198    5.234555
    148          1           0       29.803993    0.483420    5.768581
    149          1           0       30.821664    0.217433    7.685433
    150          1           0       32.383293    0.115905    6.795715
    151          1           0       31.355966   -1.359175    7.090745
    152          1           0       32.670823   -5.068768    2.160891
    153          1           0       32.551071   -3.673125    3.369039
    154          1           0       33.889296   -3.791671    2.226775
    155          1           0       29.788812   -4.326297   -2.447662
    156          1           0       32.775331   -4.582450   -5.516155
    157          1           0       31.824938   -3.263728   -6.194558
    158          1           0       31.247879   -4.810111   -6.469759
 ---------------------------------------------------------------------

 SCF Done:  E(RPBE1PBE) =  -4067.35749437     A.U. after   16 cycles

 Excitation energies and oscillator strengths:

 Excited State   1:      Singlet-A      1.6918 eV  732.85 nm  f=0.0000  <S**2>=0.000
     312 -> 313        0.70711
 This state for optimization and/or second-order correction.
 Total Energy, E(TD-HF/TD-DFT) =  -4067.29532192
 Copying the excited state density for this state as the 1-particle RhoCI density.

 Excited State   2:      Singlet-A      1.8475 eV  671.09 nm  f=0.3819  <S**2>=0.000
     310 -> 316       -0.16132
     312 -> 314        0.69521
     312 <- 314       -0.11632

 Excited State   3:      Singlet-A      1.8584 eV  667.14 nm  f=0.3675  <S**2>=0.000
     309 -> 315       -0.17012
     311 -> 313        0.69185
     311 <- 313       -0.10673

 Excited State   4:      Singlet-A      2.1844 eV  567.59 nm  f=0.1538  <S**2>=0.000
     309 -> 313        0.65883
     311 -> 315        0.23362

 Excited State   5:      Singlet-A      2.2073 eV  561.70 nm  f=0.1239  <S**2>=0.000
     310 -> 314        0.66026
     312 -> 316        0.23229

 The electronic state is 1-A.
 Alpha  occ. eigenvalues --  -46.93884 -46.92033 -19.25849 -19.25838 -19.20167
 Alpha  occ. eigenvalues --  -19.19721 -19.19270 -19.19182 -19.18816 -19.18680
 Alpha  occ. eigenvalues --  -14.42978 -14.41571 -14.41373 -14.41272 -14.39655
 Alpha  occ. eigenvalues --  -14.39651 -14.39090 -14.38716 -10.36225 -10.35425
 Alpha  occ. eigenvalues --  -10.32888 -10.32653 -10.32265 -10.31559 -10.30701
 Alpha  occ. eigenvalues --  -10.29714 -10.29569 -10.29531 -10.29267 -10.29081
 Alpha  occ. eigenvalues --  -10.28799 -10.28791 -10.28529 -10.28252 -10.28229
 Alpha  occ. eigenvalues --  -10.27968 -10.27832 -10.27322 -10.27320 -10.27256
 Alpha  occ. eigenvalues --  -10.27212 -10.27030 -10.26922 -10.26683 -10.26535
 Alpha  occ. eigenvalues --  -10.26511 -10.26313 -10.26303 -10.26238 -10.26232
 Alpha  occ. eigenvalues --  -10.26177 -10.26119 -10.26032 -10.25900 -10.25817
 Alpha  occ. eigenvalues --  -10.25797 -10.25699 -10.25687 -10.25643 -10.25640
 Alpha  occ. eigenvalues --  -10.25514 -10.25427 -10.25159 -10.25141 -10.24763
 Alpha  occ. eigenvalues --  -10.24701 -10.24615 -10.24406 -10.24285 -10.24149
 Alpha  occ. eigenvalues --  -10.24081 -10.23937 -10.23910 -10.23855 -10.23714
 Alpha  occ. eigenvalues --  -10.23687 -10.23522 -10.23483 -10.23411 -10.23328
 Alpha  occ. eigenvalues --  -10.23328 -10.23288 -10.22981 -10.22967 -10.22652
 Alpha  occ. eigenvalues --  -10.22449  -3.15686  -3.14237  -1.88553  -1.88034
 Alpha  occ. eigenvalues --   -1.87909  -1.87042  -1.86617  -1.86471  -1.11276
 Alpha  occ. eigenvalues --   -1.10369  -1.05563  -1.04780  -1.04654  -1.03176
 Alpha  occ. eigenvalues --   -1.02400  -1.02134  -0.99695  -0.99348  -0.98791
 Alpha  occ. eigenvalues --   -0.98156  -0.97743  -0.97076  -0.96572  -0.96282
 Alpha  occ. eigenvalues --   -0.87068  -0.86498  -0.83796  -0.83657  -0.82937
 Alpha  occ. eigenvalues --   -0.82590  -0.82511  -0.82349  -0.82040  -0.81735
 Alpha  occ. eigenvalues --   -0.81446  -0.81277  -0.80759  -0.79972  -0.78744
 Alpha  occ. eigenvalues --   -0.78519  -0.78417  -0.78237  -0.77174  -0.76921
 Alpha  occ. eigenvalues --   -0.76395  -0.75994  -0.75604  -0.75287  -0.75141
 Alpha  occ. eigenvalues --   -0.75033  -0.72575  -0.72278  -0.71978  -0.71503
 Alpha  occ. eigenvalues --   -0.71208  -0.71176  -0.70563  -0.70542  -0.69886
 Alpha  occ. eigenvalues --   -0.69225  -0.68047  -0.66952  -0.66757  -0.65886
 Alpha  occ. eigenvalues --   -0.63798  -0.63578  -0.63172  -0.62441  -0.62237
 Alpha  occ. eigenvalues --   -0.62059  -0.61558  -0.61324  -0.60096  -0.59958
 Alpha  occ. eigenvalues --   -0.59919  -0.59789  -0.59588  -0.59343  -0.59219
 Alpha  occ. eigenvalues --   -0.59022  -0.57627  -0.57007  -0.55044  -0.54838
 Alpha  occ. eigenvalues --   -0.54412  -0.54045  -0.53739  -0.53708  -0.53433
 Alpha  occ. eigenvalues --   -0.53101  -0.52595  -0.52475  -0.51995  -0.51525
 Alpha  occ. eigenvalues --   -0.51168  -0.50681  -0.50532  -0.50184  -0.50043
 Alpha  occ. eigenvalues --   -0.49755  -0.49374  -0.48861  -0.48531  -0.48315
 Alpha  occ. eigenvalues --   -0.48121  -0.47972  -0.47848  -0.47567  -0.47417
 Alpha  occ. eigenvalues --   -0.47408  -0.47358  -0.47055  -0.47024  -0.46882
 Alpha  occ. eigenvalues --   -0.46728  -0.46693  -0.46161  -0.45977  -0.45904
 Alpha  occ. eigenvalues --   -0.45793  -0.45709  -0.45141  -0.45011  -0.44995
 Alpha  occ. eigenvalues --   -0.44835  -0.44747  -0.44524  -0.44338  -0.44202
 Alpha  occ. eigenvalues --   -0.43784  -0.43703  -0.43668  -0.43563  -0.43375
 Alpha  occ. eigenvalues --   -0.43373  -0.43205  -0.43076  -0.42990  -0.42800
 Alpha  occ. eigenvalues --   -0.42699  -0.42425  -0.42367  -0.42025  -0.41955
 Alpha  occ. eigenvalues --   -0.41789  -0.41479  -0.41444  -0.41364  -0.41284
 Alpha  occ. eigenvalues --   -0.40919  -0.40847  -0.40832  -0.40784  -0.40672
 Alpha  occ. eigenvalues --   -0.40535  -0.40389  -0.40190  -0.40035  -0.39998
 Alpha  occ. eigenvalues --   -0.39885  -0.39472  -0.39340  -0.39270  -0.39077
 Alpha  occ. eigenvalues --   -0.39052  -0.38703  -0.38663  -0.38518  -0.38431
 Alpha  occ. eigenvalues --   -0.38158  -0.37806  -0.37765  -0.37652  -0.37565
 Alpha  occ. eigenvalues --   -0.37375  -0.37310  -0.37243  -0.37064  -0.36569
 Alpha  occ. eigenvalues --   -0.36452  -0.36417  -0.36414  -0.36298  -0.36196
 Alpha  occ. eigenvalues --   -0.36061  -0.35914  -0.35449  -0.35338  -0.35195
 Alpha  occ. eigenvalues --   -0.34979  -0.34692  -0.34663  -0.34434  -0.34195
 Alpha  occ. eigenvalues --   -0.33398  -0.33348  -0.32920  -0.32900  -0.32480
 Alpha  occ. eigenvalues --   -0.32235  -0.32002  -0.31810  -0.31484  -0.31268
 Alpha  occ. eigenvalues --   -0.31200  -0.30960  -0.29806  -0.29655  -0.29385
 Alpha  occ. eigenvalues --   -0.28793  -0.28741  -0.28330  -0.27463  -0.26889
 Alpha  occ. eigenvalues --   -0.26464  -0.26132  -0.25840  -0.25840  -0.25586
 Alpha  occ. eigenvalues --   -0.25570  -0.25055  -0.25053  -0.21604  -0.20769
 Alpha  occ. eigenvalues --   -0.19791  -0.18607
 Alpha virt. eigenvalues --   -0.12171  -0.11145  -0.05889  -0.04715  -0.04167
 Alpha virt. eigenvalues --   -0.04053  -0.02333  -0.02257  -0.01003  -0.00426
 Alpha virt. eigenvalues --    0.00341   0.00593   0.00694   0.01103   0.01418

 Mulliken charges:
               1
     1  Mg  12.000000
     2  C    6.000000
     3  C    6.000000
     4  C    6.000000
     5  C    6.000000
     6  N    7.000000
     7  C    6.000000
     8  C    6.000000
     9  C    6.000000
    10  C    6.000000
    11  C    6.000000
    12  C    6.000000
    13  C    6.000000
    14  H    1.000000
    15  N    7.000000
    16  C    6.000000
    17  C    6.000000
    18  C    6.000000
    19  C    6.000000
    20  C    6.000000
    21  C    6.000000
    22  O    8.000000
    23  C    6.000000
    24  N    7.000000
    25  C    6.000000
    26  C    6.000000
    27  C    6.000000
    28  C    6.000000
    29  C    6.000000
    30  C    6.000000
    31  C    6.000000
    32  N    7.000000
    33  C    6.000000
    34  C    6.000000
    35  C    6.000000
    36  C    6.000000
    37  C    6.000000
    38  C    6.000000
    39  O    8.000000
    40  C    6.000000
    41  C    6.000000
    42  O    8.000000
    43  O    8.000000
    44  C    6.000000
    45  H    1.000000
    46  H    1.000000
    47  H    1.000000
    48  H    1.000000
    49  H    1.000000
    50  H    1.000000
    51  H    1.000000
    52  H    1.000000
    53  H    1.000000
    54  H    1.000000
    55  H    1.000000
    56  H    1.000000
    57  H    1.000000
    58  H    1.000000
    59  H    1.000000
    60  H    1.000000
    61  H    1.000000
    62  H    1.000000
    63  H    1.000000
    64  H    1.000000
    65  H    1.000000
    66  H    1.000000
    67  H    1.000000
    68  H    1.000000
    69  H    1.000000
    70  H    1.000000
    71  H    1.000000
    72  H    1.000000
    73  H    1.000000
    74  H    1.000000
    75  H    1.000000
    76  H    1.000000
    77  H    1.000000
    78  H    1.000000
    79  H    1.000000
    80  Mg  12.000000
    81  C    6.000000
    82  C    6.000000
    83  C    6.000000
    84  C    6.000000
    85  N    7.000000
    86  C    6.000000
    87  C    6.000000
    88  C    6.000000
    89  C    6.000000
    90  C    6.000000
    91  C    6.000000
    92  C    6.000000
    93  H    1.000000
    94  N    7.000000
    95  C    6.000000
    96  C    6.000000
    97  C    6.000000
    98  C    6.000000
    99  C    6.000000
   100  C    6.000000
   101  O    8.000000
   102  C    6.000000
   103  N    7.000000
   104  C    6.000000
   105  C    6.000000
   106  C    6.000000
   107  C    6.000000
   108  C    6.000000
   109  C    6.000000
   110  C    6.000000
   111  N    7.000000
   112  C    6.000000
   113  C    6.000000
   114  C    6.000000
   115  C    6.000000
   116  C    6.000000
   117  C    6.000000
   118  O    8.000000
   119  C    6.000000
   120  C    6.000000
   121  O    8.000000
   122  O    8.000000
   123  C    6.000000
   124  H    1.000000
   125  H    1.000000
   126  H    1.000000
   127  H    1.000000
   128  H    1.000000
   129  H    1.000000
   130  H    1.000000
   131  H    1.000000
   132  H    1.000000
   133  H    1.000000
   134  H    1.000000
   135  H    1.000000
   136  H    1.000000
   137  H    1.000000
   138  H    1.000000
   139  H    1.000000
   140  H    1.000000
   141  H    1.000000
   142  H    1.000000
   143  H    1.000000
   144  H    1.000000
   145  H    1.000000
   146  H    1.000000
   147  H    1.000000
   148  H    1.000000
   149  H    1.000000
   150  H    1.000000
   151  H    1.000000
   152  H    1.000000
   153  H    1.000000
   154  H    1.000000
   155  H    1.000000
   156  H    1.000000
   157  H    1.000000
   158  H    1.000000
 Sum of Mulliken charges = 624.00000

 Dipole moment (field-independent basis, Debye):
    X=              0.0000    Y=             -0.0000    Z=             -0.0000  Tot=              0.0000
 Quadrupole moment (field-independent basis, Debye-Ang):
   XX=              0.0000   YY=             -0.0000   ZZ=             -0.0000
   XY=             -0.0000   XZ=             -0.0000   YZ=             -0.0000

 Normal termination of Gaussian 16 at Fri Oct 15 07:44:44 2021.
