 Gaussian 16, Revision A.03,
 Gaussian 16:  ES64L-G16RevA.03 25-Dec-2016

 --------------------------------------------------------
 #p PBE1PBE/Def2SVP td=(nstates=5) density=(transition=1)
 --------------------------------------------------------

 --------------------------------
 TDDFT excited states in gaussian
 --------------------------------
 Symbolic Z-matrix:
 Charge =  0 Multiplicity = 1

                         Standard orientation:
 ---------------------------------------------------------------------
 Center     Atomic      Atomic             Coordinates (Angstroms)
 Number     Number       Type             X           Y           Z
 ---------------------------------------------------------------------
      1         12           0      -28.508035    0.359724    0.232910
      2          6           0      -26.818480   -2.272558   -1.298110
      3          6           0      -28.301533    2.160606   -2.690963
      4          6           0      -29.904742    2.916885    1.939511
      5          6           0      -28.304378   -1.446023    3.309842
      6          7           0      -27.560513   -0.002830   -1.691214
      7          6           0      -26.952473   -1.141181   -2.122342
      8          6           0      -26.589854   -1.053470   -3.610461
      9          6           0      -26.968356    0.457746   -3.941062
     10          6           0      -27.682333    0.895223   -2.657811
     11          6           0      -25.735706    1.310246   -4.217074
     12          6           0      -27.425812   -1.967021   -4.575989
     13          6           0      -26.763209   -2.412825   -5.853540
     14          1           0      -25.549587   -1.736813   -6.312734
     15          7           0      -29.098552    2.203728   -0.324096
     16          6           0      -28.911400    2.770283   -1.600798
     17          6           0      -29.627762    4.018816   -1.595313
     18          6           0      -30.152568    4.259635   -0.300374
     19          6           0      -29.723690    3.099471    0.519001
     20          6           0      -29.585052    5.002947   -2.744686
     21          6           0      -30.985076    5.354293    0.222251
     22          8           0      -31.193446    5.526582    1.404310
     23          6           0      -31.524205    6.473321   -0.740882
     24          7           0      -29.215022    0.670966    2.337673
     25          6           0      -29.712868    1.798608    2.749105
     26          6           0      -30.016627    1.763735    4.277194
     27          6           0      -29.590803    0.374835    4.717195
     28          6           0      -28.933927   -0.205286    3.413202
     29          6           0      -29.331776    3.010400    5.012056
     30          6           0      -30.753581   -0.462875    5.289976
     31          6           0      -30.926145   -0.479517    6.854852
     32          7           0      -28.000581   -1.499460    0.855598
     33          6           0      -27.962547   -2.108335    2.134587
     34          6           0      -27.478320   -3.433776    2.056854
     35          6           0      -26.937892   -3.485887    0.702085
     36          6           0      -27.338129   -2.282375    0.054159
     37          6           0      -27.207465   -4.355007    3.232268
     38          6           0      -26.178789   -4.341463   -0.133348
     39          8           0      -25.717240   -5.462606    0.038939
     40          6           0      -26.146781   -3.553647   -1.602796
     41          6           0      -24.695766   -3.488136   -1.979397
     42          8           0      -23.820400   -2.942658   -1.299221
     43          8           0      -24.397129   -4.244686   -3.151279
     44          6           0      -22.964375   -4.236607   -3.583036
     45          1           0      -28.197712    2.674573   -3.649585
     46          1           0      -30.178342    3.842449    2.449617
     47          1           0      -28.262767   -2.061578    4.210455
     48          1           0      -25.515305   -1.227582   -3.670690
     49          1           0      -27.603973    0.553446   -4.821269
     50          1           0      -24.858487    0.689278   -4.396671
     51          1           0      -25.560477    2.060967   -3.446000
     52          1           0      -25.764564    1.828332   -5.175670
     53          1           0      -28.350595   -1.438831   -4.805505
     54          1           0      -27.770481   -2.811699   -3.979079
     55          1           0      -27.470284   -2.218092   -6.659604
     56          1           0      -26.528024   -3.474625   -5.779814
     57          1           0      -29.061579    5.926975   -2.499465
     58          1           0      -30.611054    5.193579   -3.062230
     59          1           0      -29.056579    4.673558   -3.639147
     60          1           0      -30.699377    7.174632   -0.869700
     61          1           0      -32.286852    7.066578   -0.236203
     62          1           0      -31.785897    6.057447   -1.713088
     63          1           0      -31.097806    1.898993    4.311958
     64          1           0      -28.746212    0.408955    5.403660
     65          1           0      -28.673335    2.670091    5.811152
     66          1           0      -30.040253    3.645527    5.544187
     67          1           0      -28.755251    3.503184    4.228102
     68          1           0      -30.577488   -1.486213    4.956640
     69          1           0      -31.661214   -0.108209    4.801366
     70          1           0      -30.274606   -1.260033    7.249362
     71          1           0      -31.928627   -0.563627    7.274877
     72          1           0      -30.448157    0.464792    7.113253
     73          1           0      -28.179372   -4.812290    3.415861
     74          1           0      -26.898743   -3.795081    4.114241
     75          1           0      -26.338386   -5.008591    3.146926
     76          1           0      -26.756116   -4.113520   -2.313351
     77          1           0      -22.317556   -4.695521   -2.836158
     78          1           0      -22.504925   -3.281628   -3.839417
     79          1           0      -23.042457   -4.910451   -4.436227
     80         12           0       28.467189    0.455003   -0.188691
     81          6           0       26.113312   -2.017644   -0.065618
     82          6           0       25.801879    2.754008   -0.711493
     83          6           0       30.707091    2.964478    0.078298
     84          6           0       30.788540   -1.726176    1.222310
     85          7           0       26.082181    0.389376    0.006916
     86          6           0       25.415166   -0.783405   -0.183850
     87          6           0       23.937783   -0.519976   -0.278166
     88          6           0       23.828145    1.056328   -0.459246
     89          6           0       25.326482    1.492626   -0.406118
     90          6           0       22.833843    1.541063   -1.450164
     91          6           0       22.945554   -1.142599    0.814174
     92          6           0       23.457029   -1.328763    2.211924
     93          1           0       22.575113   -0.821943    3.344464
     94          7           0       28.304503    2.521707   -0.537578
     95          6           0       27.180127    3.255695   -0.756202
     96          6           0       27.466980    4.652449   -0.899099
     97          6           0       28.950788    4.719187   -0.784353
     98          6           0       29.390208    3.358567   -0.405060
     99          6           0       26.545208    5.748718   -1.149110
    100          6           0       29.871369    5.912772   -0.994676
    101          8           0       29.426097    6.995758   -1.138116
    102          6           0       31.374128    5.902330   -0.945391
    103          7           0       30.380859    0.616474    0.653742
    104          6           0       31.133091    1.710493    0.459783
    105          6           0       32.551081    1.572405    1.226089
    106          6           0       32.662109   -0.029822    1.226054
    107          6           0       31.200199   -0.379103    1.079758
    108          6           0       33.740866    2.267321    0.558117
    109          6           0       33.421743   -0.575693    2.448599
    110          6           0       34.526895   -1.625162    2.280999
    111          7           0       28.442971   -1.457478    0.559735
    112          6           0       29.453692   -2.261489    1.071874
    113          6           0       29.021387   -3.594011    1.242408
    114          6           0       27.720986   -3.605183    0.765550
    115          6           0       27.392379   -2.266223    0.350201
    116          6           0       29.815511   -4.760893    1.742645
    117          6           0       26.567198   -4.340442    0.452423
    118          8           0       26.380866   -5.542458    0.630515
    119          6           0       25.425530   -3.354985    0.072521
    120          6           0       24.891932   -3.931800   -1.230501
    121          8           0       23.686974   -4.182694   -1.444748
    122          8           0       25.937885   -3.973191   -2.122048
    123          6           0       25.732618   -4.249513   -3.564958
    124          1           0       24.934549    3.416631   -0.743131
    125          1           0       31.359209    3.795461    0.354747
    126          1           0       31.543437   -2.419531    1.597977
    127          1           0       23.554708   -1.028191   -1.163837
    128          1           0       23.470144    1.440480    0.495494
    129          1           0       23.234345    2.285539   -2.138142
    130          1           0       21.901102    1.852886   -0.980181
    131          1           0       22.557551    0.720178   -2.111980
    132          1           0       22.580311   -2.140929    0.572989
    133          1           0       22.116568   -0.454446    0.982416
    134          1           0       24.505015   -1.066764    2.353609
    135          1           0       23.397079   -2.395973    2.427927
    136          1           0       25.705384    5.372725   -1.732592
    137          1           0       26.989672    6.593394   -1.674139
    138          1           0       26.191802    6.087069   -0.174418
    139          1           0       31.474727    4.887917   -1.332064
    140          1           0       31.766529    5.975269    0.068427
    141          1           0       31.897889    6.640248   -1.553275
    142          1           0       32.364347    1.899052    2.249541
    143          1           0       33.121023   -0.521662    0.368742
    144          1           0       34.352354    1.483903    0.109579
    145          1           0       34.204254    2.972432    1.247569
    146          1           0       33.449789    2.916327   -0.267281
    147          1           0       32.669735   -0.994244    3.118011
    148          1           0       33.795998    0.277264    3.014923
    149          1           0       35.485715   -1.456785    2.771554
    150          1           0       34.690397   -1.908581    1.240443
    151          1           0       34.030852   -2.527171    2.637935
    152          1           0       29.560331   -5.716538    1.284051
    153          1           0       29.667353   -4.841184    2.819790
    154          1           0       30.884479   -4.671297    1.544932
    155          1           0       24.737023   -3.452856    0.910970
    156          1           0       26.377595   -3.645668   -4.203059
    157          1           0       24.691024   -4.035539   -3.805081
    158          1           0       25.874838   -5.252616   -3.965077
 ---------------------------------------------------------------------

 SCF Done:  E(RPBE1PBE) =  -4067.35579906     A.U. after   16 cycles

 Excitation energies and oscillator strengths:

 Excited State   1:      Singlet-A      1.7944 eV  690.96 nm  f=0.3678  <S**2>=0.000
     309 -> 315        0.16553
     311 -> 313        0.69591
     311 <- 313       -0.11768
 This state for optimization and/or second-order correction.
 Total Energy, E(TD-HF/TD-DFT) =  -4067.28985715
 Copying the excited state density for this state as the 1-particle RhoCI density.

 Excited State   2:      Singlet-A      1.8459 eV  671.68 nm  f=0.3605  <S**2>=0.000
     310 -> 316        0.17451
     312 -> 314        0.69230
     312 <- 314       -0.10447

 Excited State   3:      Singlet-A      1.8661 eV  664.40 nm  f=0.0000  <S**2>=0.000
     312 -> 313        0.70711

 Excited State   4:      Singlet-A      2.0629 eV  601.01 nm  f=0.0000  <S**2>=0.000
     311 -> 314        0.70711

 Excited State   5:      Singlet-A      2.1559 eV  575.10 nm  f=0.1302  <S**2>=0.000
     308 -> 313        0.10040
     309 -> 313        0.65390
     311 -> 315       -0.23180

 The electronic state is 1-A.
 Alpha  occ. eigenvalues --  -46.93350 -46.91396 -19.26764 -19.24902 -19.20500
 Alpha  occ. eigenvalues --  -19.19764 -19.19169 -19.18872 -19.18512 -19.17616
 Alpha  occ. eigenvalues --  -14.42133 -14.42113 -14.41504 -14.41199 -14.39828
 Alpha  occ. eigenvalues --  -14.39728 -14.39220 -14.39207 -10.37433 -10.36185
 Alpha  occ. eigenvalues --  -10.32286 -10.31805 -10.31250 -10.30912 -10.29937
 Alpha  occ. eigenvalues --  -10.29654 -10.29199 -10.29082 -10.28999 -10.28890
 Alpha  occ. eigenvalues --  -10.28799 -10.28779 -10.28768 -10.28652 -10.28481
 Alpha  occ. eigenvalues --  -10.28384 -10.28315 -10.28234 -10.28176 -10.27106
 Alpha  occ. eigenvalues --  -10.26886 -10.26859 -10.26849 -10.26768 -10.26236
 Alpha  occ. eigenvalues --  -10.26231 -10.26118 -10.26004 -10.25964 -10.25955
 Alpha  occ. eigenvalues --  -10.25895 -10.25847 -10.25807 -10.25781 -10.25776
 Alpha  occ. eigenvalues --  -10.25626 -10.25480 -10.25439 -10.25404 -10.25394
 Alpha  occ. eigenvalues --  -10.25248 -10.25248 -10.25140 -10.25134 -10.25007
 Alpha  occ. eigenvalues --  -10.24884 -10.24747 -10.24602 -10.24495 -10.24396
 Alpha  occ. eigenvalues --  -10.24304 -10.24096 -10.24044 -10.23925 -10.23833
 Alpha  occ. eigenvalues --  -10.23643 -10.23588 -10.23555 -10.23462 -10.23377
 Alpha  occ. eigenvalues --  -10.23301 -10.23228 -10.22976 -10.22765 -10.22704
 Alpha  occ. eigenvalues --  -10.22621  -3.15401  -3.13668  -1.88197  -1.87812
 Alpha  occ. eigenvalues --   -1.87599  -1.86522  -1.86035  -1.85912  -1.10323
 Alpha  occ. eigenvalues --   -1.08262  -1.06382  -1.05560  -1.03906  -1.03738
 Alpha  occ. eigenvalues --   -1.01978  -1.00738  -0.99795  -0.99751  -0.98937
 Alpha  occ. eigenvalues --   -0.98735  -0.98159  -0.97630  -0.96911  -0.96843
 Alpha  occ. eigenvalues --   -0.87934  -0.86613  -0.84109  -0.83567  -0.83234
 Alpha  occ. eigenvalues --   -0.83004  -0.82739  -0.82648  -0.82178  -0.82025
 Alpha  occ. eigenvalues --   -0.81742  -0.81577  -0.80740  -0.80358  -0.78868
 Alpha  occ. eigenvalues --   -0.78547  -0.78226  -0.77380  -0.77378  -0.76469
 Alpha  occ. eigenvalues --   -0.76425  -0.75722  -0.75313  -0.74873  -0.74594
 Alpha  occ. eigenvalues --   -0.74296  -0.72842  -0.72794  -0.72117  -0.71655
 Alpha  occ. eigenvalues --   -0.71386  -0.71186  -0.70955  -0.70206  -0.69873
 Alpha  occ. eigenvalues --   -0.69410  -0.68066  -0.67649  -0.66214  -0.66052
 Alpha  occ. eigenvalues --   -0.64372  -0.63830  -0.63828  -0.63371  -0.62719
 Alpha  occ. eigenvalues --   -0.62589  -0.61662  -0.61171  -0.60661  -0.60187
 Alpha  occ. eigenvalues --   -0.60093  -0.59728  -0.59477  -0.59237  -0.59237
 Alpha  occ. eigenvalues --   -0.58836  -0.58110  -0.56067  -0.54842  -0.54792
 Alpha  occ. eigenvalues --   -0.54268  -0.54006  -0.53939  -0.53521  -0.53235
 Alpha  occ. eigenvalues --   -0.52624  -0.52419  -0.51984  -0.51877  -0.51841
 Alpha  occ. eigenvalues --   -0.51142  -0.50820  -0.50367  -0.49872  -0.49652
 Alpha  occ. eigenvalues --   -0.49537  -0.49214  -0.48976  -0.48617  -0.48502
 Alpha  occ. eigenvalues --   -0.47956  -0.47850  -0.47728  -0.47722  -0.47373
 Alpha  occ. eigenvalues --   -0.47069  -0.47049  -0.46835  -0.46749  -0.46663
 Alpha  occ. eigenvalues --   -0.46488  -0.46392  -0.46379  -0.46215  -0.46002
 Alpha  occ. eigenvalues --   -0.45762  -0.45659  -0.45373  -0.45284  -0.45177
 Alpha  occ. eigenvalues --   -0.44667  -0.44632  -0.44443  -0.44317  -0.44189
 Alpha  occ. eigenvalues --   -0.44140  -0.43878  -0.43841  -0.43838  -0.43636
 Alpha  occ. eigenvalues --   -0.43630  -0.43163  -0.43028  -0.42952  -0.42860
 Alpha  occ. eigenvalues --   -0.42483  -0.42370  -0.42318  -0.42242  -0.42006
 Alpha  occ. eigenvalues --   -0.41929  -0.41896  -0.41834  -0.41781  -0.41673
 Alpha  occ. eigenvalues --   -0.41659  -0.41565  -0.41183  -0.40928  -0.40494
 Alpha  occ. eigenvalues --   -0.40289  -0.40145  -0.40138  -0.39985  -0.39851
 Alpha  occ. eigenvalues --   -0.39756  -0.39562  -0.39504  -0.39281  -0.38975
 Alpha  occ. eigenvalues --   -0.38896  -0.38826  -0.38797  -0.38726  -0.38327
 Alpha  occ. eigenvalues --   -0.38273  -0.37953  -0.37937  -0.37772  -0.37565
 Alpha  occ. eigenvalues --   -0.37509  -0.37465  -0.37100  -0.37031  -0.36897
 Alpha  occ. eigenvalues --   -0.36849  -0.36764  -0.36739  -0.36542  -0.36492
 Alpha  occ. eigenvalues --   -0.36411  -0.36201  -0.36200  -0.35721  -0.35474
 Alpha  occ. eigenvalues --   -0.35126  -0.35092  -0.34723  -0.34426  -0.33938
 Alpha  occ. eigenvalues --   -0.33677  -0.33604  -0.33049  -0.32807  -0.32325
 Alpha  occ. eigenvalues --   -0.32292  -0.32048  -0.31829  -0.31244  -0.31144
 Alpha  occ. eigenvalues --   -0.30783  -0.30664  -0.29808  -0.29717  -0.29189
 Alpha  occ. eigenvalues --   -0.28978  -0.28583  -0.28578  -0.27155  -0.27003
 Alpha  occ. eigenvalues --   -0.26328  -0.26038  -0.25714  -0.25500  -0.25268
 Alpha  occ. eigenvalues --   -0.25088  -0.24941  -0.23742  -0.21409  -0.21111
 Alpha  occ. eigenvalues --   -0.19354  -0.19143
 Alpha virt. eigenvalues --   -0.12052  -0.11540  -0.05480  -0.05239  -0.03983
 Alpha virt. eigenvalues --   -0.03885  -0.02041  -0.01888  -0.01789  -0.00045
 Alpha virt. eigenvalues --   -0.00002   0.00616   0.01134   0.01317   0.01823

 Mulliken charges:
               1
     1  Mg  12.000000
     2  C    5.999969
     3  C    5.999950
     4  C    6.000016
     5  C    6.000052
     6  N    6.999975
     7  C    6.000048
     8  C    5.999987
     9  C    6.000026
    10  C    5.999955
    11  C    6.000021
    12  C    5.999988
    13  C    6.000006
    14  H    1.000005
    15  N    7.000010
    16  C    5.999893
    17  C    5.999960
    18  C    5.999943
    19  C    5.999906
    20  C    6.000036
    21  C    5.999956
    22  O    7.999901
    23  C    6.000022
    24  N    7.000008
    25  C    5.999969
    26  C    6.000005
    27  C    5.999993
    28  C    6.000032
    29  C    6.000008
    30  C    5.999979
    31  C    5.999995
    32  N    7.000021
    33  C    6.000073
    34  C    6.000115
    35  C    5.999976
    36  C    6.000082
    37  C    5.999974
    38  C    6.000097
    39  O    8.000120
    40  C    5.999980
    41  C    6.000018
    42  O    8.000015
    43  O    8.000008
    44  C    5.999987
    45  H    0.999955
    46  H    0.999986
    47  H    1.000040
    48  H    0.999995
    49  H    0.999988
    50  H    0.999955
    51  H    0.999999
    52  H    0.999978
    53  H    1.000032
    54  H    0.999981
    55  H    1.000007
    56  H    0.999999
    57  H    0.999923
    58  H    0.999940
    59  H    0.999942
    60  H    0.999955
    61  H    0.999944
    62  H    0.999983
    63  H    1.000011
    64  H    1.000002
    65  H    0.999974
    66  H    0.999994
    67  H    1.000013
    68  H    0.999991
    69  H    1.000029
    70  H    1.000007
    71  H    1.000018
    72  H    1.000013
    73  H    1.000060
    74  H    1.000058
    75  H    1.000058
    76  H    1.000034
    77  H    1.000019
    78  H    1.000012
    79  H    1.000026
    80  Mg  12.002478
    81  C    6.000918
    82  C    5.985810
    83  C    5.982850
    84  C    6.012801
    85  N    6.995156
    86  C    5.974931
    87  C    6.009429
    88  C    5.986727
    89  C    6.035112
    90  C    5.998717
    91  C    6.000505
    92  C    6.002713
    93  H    0.989858
    94  N    6.996163
    95  C    6.042128
    96  C    6.023149
    97  C    6.006560
    98  C    6.040092
    99  C    5.996302
   100  C    6.010388
   101  O    8.018998
   102  C    6.000924
   103  N    7.002559
   104  C    6.029123
   105  C    5.990471
   106  C    6.011035
   107  C    5.964989
   108  C    5.999624
   109  C    6.002088
   110  C    5.998694
   111  N    7.000570
   112  C    5.968195
   113  C    5.975934
   114  C    5.993305
   115  C    5.976008
   116  C    6.002171
   117  C    5.983059
   118  O    7.965960
   119  C    6.001855
   120  C    5.994084
   121  O    7.989012
   122  O    8.004994
   123  C    6.004780
   124  H    1.008931
   125  H    1.006518
   126  H    0.991933
   127  H    1.001988
   128  H    1.005629
   129  H    0.994847
   130  H    1.003960
   131  H    1.008900
   132  H    1.003122
   133  H    0.991135
   134  H    1.004017
   135  H    1.003878
   136  H    1.017694
   137  H    1.014774
   138  H    1.021041
   139  H    1.004496
   140  H    1.011358
   141  H    1.012187
   142  H    1.003764
   143  H    0.996894
   144  H    1.007450
   145  H    1.000919
   146  H    0.993555
   147  H    1.002804
   148  H    0.990616
   149  H    0.995495
   150  H    0.999047
   151  H    1.004778
   152  H    0.987309
   153  H    0.982631
   154  H    0.982865
   155  H    0.991928
   156  H    0.993020
   157  H    0.993343
   158  H    0.995956
 Sum of Mulliken charges = 624.00000

 Dipole moment (field-independent basis, Debye):
    X=              0.0787    Y=             10.1904    Z=             -2.0613  Tot=             10.3971
 Quadrupole moment (field-independent basis, Debye-Ang):
   XX=              1.6998   YY=             10.3112   ZZ=             -1.8280
   XY=            288.0324   XZ=            -60.3139   YZ=             -1.9689

 Normal termination of Gaussian 16 at Fri Oct 15 09:49:06 2021.
