 Gaussian 16, Revision A.03,
 Gaussian 16:  ES64L-G16RevA.03 25-Dec-2016

 --------------------------------------------------------
 #p PBE1PBE/Def2SVP td=(nstates=5) density=(transition=1)
 --------------------------------------------------------

 --------------------------------
 TDDFT excited states in gaussian
 --------------------------------
 Symbolic Z-matrix:
 Charge =  0 Multiplicity = 1

                         Standard orientation:
 ---------------------------------------------------------------------
 Center     Atomic      Atomic             Coordinates (Angstroms)
 Number     Number       Type             X           Y           Z
 ---------------------------------------------------------------------
      1         12           0       16.789226    0.615100   -0.138975
      2          6           0       14.944120   -2.312181    1.217537
      3          6           0       14.260120    2.413156    1.200627
      4          6           0       18.290556    3.003983   -1.583576
      5          6           0       18.684505   -1.749444   -2.007334
      6          7           0       14.831947    0.073616    1.010085
      7          6           0       14.425051   -1.120983    1.579769
      8          6           0       13.279105   -0.989154    2.589447
      9          6           0       12.795773    0.444636    2.210000
     10          6           0       14.014419    1.052871    1.413783
     11          6           0       11.532233    0.500905    1.410496
     12          6           0       13.625549   -1.216718    4.099116
     13          6           0       12.563199   -1.772328    4.987615
     14          1           0       12.539403   -1.210900    6.405728
     15          7           0       16.368239    2.524552   -0.160108
     16          6           0       15.288245    3.134605    0.511657
     17          6           0       15.462871    4.555258    0.416183
     18          6           0       16.743924    4.704151   -0.273310
     19          6           0       17.152501    3.406681   -0.675138
     20          6           0       14.539243    5.628569    1.102303
     21          6           0       17.455479    6.002218   -0.503592
     22          8           0       18.523998    6.069118   -1.158722
     23          6           0       16.991415    7.295678    0.059615
     24          7           0       18.154649    0.685654   -1.694825
     25          6           0       18.671648    1.836580   -2.129602
     26          6           0       19.780239    1.662831   -3.216756
     27          6           0       20.142685    0.154816   -2.947522
     28          6           0       18.889610   -0.373037   -2.196720
     29          6           0       19.228218    1.874110   -4.663281
     30          6           0       21.430189   -0.001978   -2.034034
     31          6           0       22.739169    0.707075   -2.440494
     32          7           0       16.865460   -1.572141   -0.340431
     33          6           0       17.742427   -2.344911   -1.093084
     34          6           0       17.424439   -3.743400   -0.923287
     35          6           0       16.368269   -3.775321   -0.003782
     36          6           0       15.991311   -2.431456    0.268081
     37          6           0       18.172059   -4.906267   -1.483766
     38          6           0       15.490445   -4.670249    0.738801
     39          8           0       15.414508   -5.886686    0.850472
     40          6           0       14.594078   -3.666220    1.633145
     41          6           0       13.215976   -4.066391    1.406400
     42          8           0       12.598097   -4.034583    0.330532
     43          8           0       12.846227   -4.882417    2.436888
     44          6           0       11.546964   -5.474304    2.429967
     45          1           0       13.497241    2.937652    1.780047
     46          1           0       18.836935    3.795826   -2.099848
     47          1           0       19.309516   -2.426136   -2.594421
     48          1           0       12.512770   -1.707875    2.298374
     49          1           0       12.736546    1.075267    3.096579
     50          1           0       11.813802    0.762713    0.390537
     51          1           0       10.901751    1.310784    1.777216
     52          1           0       10.929753   -0.405980    1.362599
     53          1           0       13.866404   -0.239383    4.516362
     54          1           0       14.535755   -1.814736    4.134911
     55          1           0       12.799318   -2.835413    5.029994
     56          1           0       11.588973   -1.814782    4.500409
     57          1           0       14.962455    6.123353    1.975976
     58          1           0       13.557122    5.217485    1.334323
     59          1           0       14.399477    6.338481    0.286132
     60          1           0       16.133223    7.632734   -0.522325
     61          1           0       17.828792    7.983781   -0.059372
     62          1           0       16.804535    7.121619    1.118754
     63          1           0       20.551832    2.393719   -2.972451
     64          1           0       20.278262   -0.463911   -3.834075
     65          1           0       19.693519    2.785737   -5.038986
     66          1           0       18.143360    1.902370   -4.759891
     67          1           0       19.644040    1.008790   -5.181384
     68          1           0       21.707010   -1.055672   -2.008863
     69          1           0       21.112242    0.248660   -1.022166
     70          1           0       22.974789    1.353628   -1.595315
     71          1           0       22.454250    1.316051   -3.298919
     72          1           0       23.558162    0.009203   -2.613992
     73          1           0       19.106848   -4.475692   -1.843492
     74          1           0       17.570514   -5.277763   -2.313318
     75          1           0       18.303795   -5.730691   -0.783023
     76          1           0       14.863059   -3.775824    2.683576
     77          1           0       10.962429   -5.157288    1.566020
     78          1           0       11.056929   -5.087645    3.323621
     79          1           0       11.602835   -6.553309    2.566719
     80         12           0      -16.351715    0.504080    0.415119
     81          6           0      -15.621859   -2.603200   -0.759584
     82          6           0      -12.978187    0.825706    1.427224
     83          6           0      -16.805852    3.810097    0.550017
     84          6           0      -19.609431    0.298012   -1.130015
     85          7           0      -14.585061   -0.763031    0.344876
     86          6           0      -14.452244   -1.947356   -0.153577
     87          6           0      -13.090572   -2.631510    0.224462
     88          6           0      -12.379739   -1.600799    1.181814
     89          6           0      -13.373412   -0.396912    1.038525
     90          6           0      -12.005394   -2.111841    2.573768
     91          6           0      -12.232640   -3.080236   -1.102002
     92          6           0      -12.505271   -2.374513   -2.420482
     93          1           0      -11.478498   -2.417537   -3.552187
     94          7           0      -15.054222    2.090486    0.913258
     95          6           0      -13.756296    2.029900    1.360589
     96          6           0      -13.271957    3.323815    1.576436
     97          6           0      -14.349133    4.249446    1.292981
     98          6           0      -15.483224    3.395202    0.852124
     99          6           0      -11.905034    3.550444    2.195765
    100          6           0      -14.234050    5.778402    1.430346
    101          8           0      -13.137662    6.248462    1.808993
    102          6           0      -15.277784    6.724143    1.158982
    103          7           0      -17.970811    1.928036   -0.368645
    104          6           0      -17.918607    3.166728    0.031563
    105          6           0      -19.233735    3.950493   -0.242163
    106          6           0      -20.160481    2.817285   -0.734059
    107          6           0      -19.237857    1.532146   -0.754770
    108          6           0      -19.799867    4.641321    0.945675
    109          6           0      -20.844413    3.141863   -2.144856
    110          6           0      -22.407794    3.395541   -2.120489
    111          7           0      -17.503295   -0.859080   -0.617066
    112          6           0      -18.796182   -0.857759   -1.155431
    113          6           0      -19.072662   -2.209029   -1.735090
    114          6           0      -17.840087   -2.868029   -1.623822
    115          6           0      -16.902791   -2.011862   -0.973172
    116          6           0      -20.289190   -2.716183   -2.340873
    117          6           0      -17.229494   -4.065105   -1.982214
    118          8           0      -17.627147   -5.097623   -2.541514
    119          6           0      -15.803660   -3.996817   -1.365104
    120          6           0      -15.628504   -5.211848   -0.423350
    121          8           0      -14.737861   -6.044260   -0.443140
    122          8           0      -16.630975   -5.288425    0.519247
    123          6           0      -16.602309   -6.421308    1.451985
    124          1           0      -11.911636    0.845691    1.660052
    125          1           0      -17.067340    4.855740    0.724094
    126          1           0      -20.651611    0.193612   -1.438555
    127          1           0      -13.342952   -3.463296    0.882678
    128          1           0      -11.459532   -1.205995    0.750054
    129          1           0      -12.588014   -1.582154    3.327232
    130          1           0      -10.954553   -1.937908    2.808124
    131          1           0      -12.106823   -3.186360    2.726420
    132          1           0      -12.426602   -4.152879   -1.123796
    133          1           0      -11.156723   -2.916658   -1.037143
    134          1           0      -12.662085   -1.340647   -2.113967
    135          1           0      -13.473508   -2.752464   -2.749259
    136          1           0      -11.814392    4.133082    3.112877
    137          1           0      -11.238099    3.944904    1.428791
    138          1           0      -11.465490    2.584082    2.442088
    139          1           0      -16.187340    6.664099    1.756384
    140          1           0      -15.696194    6.552086    0.167812
    141          1           0      -14.932017    7.756327    1.112371
    142          1           0      -19.217341    4.760132   -0.971646
    143          1           0      -20.923863    2.539424   -0.007227
    144          1           0      -19.660594    5.722168    0.960846
    145          1           0      -19.243079    4.377026    1.845406
    146          1           0      -20.862281    4.417247    1.040023
    147          1           0      -20.735264    2.261963   -2.780314
    148          1           0      -20.480817    4.050192   -2.623402
    149          1           0      -22.643374    4.280007   -2.711039
    150          1           0      -22.684933    3.670728   -1.102779
    151          1           0      -22.838665    2.524034   -2.613712
    152          1           0      -21.088672   -2.190000   -1.818753
    153          1           0      -20.386775   -3.788598   -2.168276
    154          1           0      -20.184216   -2.555571   -3.413444
    155          1           0      -15.018653   -4.282241   -2.065009
    156          1           0      -17.616405   -6.592030    1.813821
    157          1           0      -16.019477   -6.319957    2.367339
    158          1           0      -16.169744   -7.328701    1.029504
 ---------------------------------------------------------------------

 SCF Done:  E(RPBE1PBE) =  -4067.34169223     A.U. after   17 cycles

 Excitation energies and oscillator strengths:

 Excited State   1:      Singlet-A      1.8203 eV  681.11 nm  f=0.3431  <S**2>=0.000
     310 -> 316       -0.15120
     312 -> 313        0.70018
     312 <- 313       -0.12595
 This state for optimization and/or second-order correction.
 Total Energy, E(TD-HF/TD-DFT) =  -4067.27479693
 Copying the excited state density for this state as the 1-particle RhoCI density.

 Excited State   2:      Singlet-A      1.8537 eV  668.84 nm  f=0.4357  <S**2>=0.000
     309 -> 315        0.15870
     311 -> 314        0.69673
     311 <- 314       -0.12230

 Excited State   3:      Singlet-A      1.8838 eV  658.17 nm  f=0.0000  <S**2>=0.000
     312 -> 314        0.70710

 Excited State   4:      Singlet-A      1.8930 eV  654.97 nm  f=0.0000  <S**2>=0.000
     311 -> 313        0.70710

 Excited State   5:      Singlet-A      2.1897 eV  566.22 nm  f=0.2009  <S**2>=0.000
     310 -> 313        0.67307
     312 -> 316        0.20137

 The electronic state is 1-A.
 Alpha  occ. eigenvalues --  -46.93726 -46.92305 -19.25491 -19.25351 -19.20320
 Alpha  occ. eigenvalues --  -19.20011 -19.19524 -19.19029 -19.17880 -19.17771
 Alpha  occ. eigenvalues --  -14.42712 -14.41644 -14.41417 -14.41062 -14.40124
 Alpha  occ. eigenvalues --  -14.39617 -14.39384 -14.39191 -10.36742 -10.36010
 Alpha  occ. eigenvalues --  -10.33023 -10.31658 -10.31609 -10.31205 -10.30563
 Alpha  occ. eigenvalues --  -10.29271 -10.29095 -10.28879 -10.28698 -10.28693
 Alpha  occ. eigenvalues --  -10.28607 -10.28584 -10.28546 -10.28416 -10.28350
 Alpha  occ. eigenvalues --  -10.28294 -10.28256 -10.27969 -10.27849 -10.27627
 Alpha  occ. eigenvalues --  -10.27143 -10.27082 -10.27058 -10.26982 -10.26832
 Alpha  occ. eigenvalues --  -10.26689 -10.26370 -10.26339 -10.26315 -10.26175
 Alpha  occ. eigenvalues --  -10.26038 -10.26001 -10.25989 -10.25860 -10.25743
 Alpha  occ. eigenvalues --  -10.25708 -10.25562 -10.25482 -10.25433 -10.25222
 Alpha  occ. eigenvalues --  -10.25100 -10.25074 -10.25059 -10.25006 -10.24824
 Alpha  occ. eigenvalues --  -10.24820 -10.24811 -10.24777 -10.24568 -10.24548
 Alpha  occ. eigenvalues --  -10.24404 -10.24136 -10.24029 -10.23947 -10.23593
 Alpha  occ. eigenvalues --  -10.23558 -10.23539 -10.23463 -10.23444 -10.23159
 Alpha  occ. eigenvalues --  -10.23124 -10.23100 -10.23090 -10.23060 -10.22847
 Alpha  occ. eigenvalues --  -10.22584  -3.15715  -3.14543  -1.88531  -1.88122
 Alpha  occ. eigenvalues --   -1.87903  -1.87352  -1.86913  -1.86789  -1.11196
 Alpha  occ. eigenvalues --   -1.10861  -1.04865  -1.03607  -1.02545  -1.02256
 Alpha  occ. eigenvalues --   -1.02151  -1.01686  -0.99645  -0.99611  -0.99130
 Alpha  occ. eigenvalues --   -0.98578  -0.98324  -0.98214  -0.97142  -0.97139
 Alpha  occ. eigenvalues --   -0.87951  -0.87249  -0.84044  -0.83745  -0.83726
 Alpha  occ. eigenvalues --   -0.83342  -0.83108  -0.82466  -0.82354  -0.82107
 Alpha  occ. eigenvalues --   -0.81781  -0.81138  -0.80518  -0.79771  -0.79021
 Alpha  occ. eigenvalues --   -0.78964  -0.78439  -0.78285  -0.77398  -0.77236
 Alpha  occ. eigenvalues --   -0.76837  -0.76346  -0.75697  -0.75450  -0.75082
 Alpha  occ. eigenvalues --   -0.74572  -0.72873  -0.72863  -0.71722  -0.71721
 Alpha  occ. eigenvalues --   -0.71583  -0.71271  -0.70662  -0.70527  -0.69806
 Alpha  occ. eigenvalues --   -0.69730  -0.67857  -0.67745  -0.66448  -0.65342
 Alpha  occ. eigenvalues --   -0.63990  -0.63627  -0.63286  -0.63017  -0.62770
 Alpha  occ. eigenvalues --   -0.62537  -0.61393  -0.61388  -0.60431  -0.60162
 Alpha  occ. eigenvalues --   -0.60067  -0.59570  -0.59479  -0.59380  -0.59125
 Alpha  occ. eigenvalues --   -0.58955  -0.57846  -0.56556  -0.55418  -0.55385
 Alpha  occ. eigenvalues --   -0.54598  -0.54327  -0.53949  -0.53599  -0.53294
 Alpha  occ. eigenvalues --   -0.53181  -0.52875  -0.52681  -0.52338  -0.51706
 Alpha  occ. eigenvalues --   -0.51036  -0.50378  -0.50275  -0.50120  -0.49996
 Alpha  occ. eigenvalues --   -0.49400  -0.49303  -0.49184  -0.48977  -0.48715
 Alpha  occ. eigenvalues --   -0.48432  -0.48216  -0.48060  -0.47820  -0.47782
 Alpha  occ. eigenvalues --   -0.47508  -0.47287  -0.47134  -0.47023  -0.46991
 Alpha  occ. eigenvalues --   -0.46745  -0.46432  -0.46117  -0.45994  -0.45748
 Alpha  occ. eigenvalues --   -0.45728  -0.45566  -0.45508  -0.45324  -0.44872
 Alpha  occ. eigenvalues --   -0.44861  -0.44525  -0.44522  -0.44380  -0.44329
 Alpha  occ. eigenvalues --   -0.44204  -0.44012  -0.43890  -0.43837  -0.43683
 Alpha  occ. eigenvalues --   -0.43445  -0.43421  -0.43294  -0.43032  -0.42966
 Alpha  occ. eigenvalues --   -0.42780  -0.42491  -0.42406  -0.42264  -0.42118
 Alpha  occ. eigenvalues --   -0.41929  -0.41916  -0.41567  -0.41387  -0.41234
 Alpha  occ. eigenvalues --   -0.41028  -0.41021  -0.40865  -0.40701  -0.40691
 Alpha  occ. eigenvalues --   -0.40509  -0.40085  -0.40068  -0.39899  -0.39851
 Alpha  occ. eigenvalues --   -0.39610  -0.39599  -0.39502  -0.39339  -0.39237
 Alpha  occ. eigenvalues --   -0.39164  -0.38766  -0.38577  -0.38514  -0.38469
 Alpha  occ. eigenvalues --   -0.38120  -0.37857  -0.37627  -0.37617  -0.37493
 Alpha  occ. eigenvalues --   -0.37493  -0.37210  -0.37014  -0.36864  -0.36829
 Alpha  occ. eigenvalues --   -0.36759  -0.36371  -0.36355  -0.36111  -0.35841
 Alpha  occ. eigenvalues --   -0.35721  -0.35681  -0.35587  -0.35497  -0.35011
 Alpha  occ. eigenvalues --   -0.34762  -0.34674  -0.34343  -0.34196  -0.34033
 Alpha  occ. eigenvalues --   -0.33608  -0.33533  -0.33087  -0.33055  -0.32901
 Alpha  occ. eigenvalues --   -0.32743  -0.32222  -0.31854  -0.31594  -0.31472
 Alpha  occ. eigenvalues --   -0.31316  -0.30654  -0.29810  -0.29797  -0.29647
 Alpha  occ. eigenvalues --   -0.29307  -0.29062  -0.28640  -0.27190  -0.27163
 Alpha  occ. eigenvalues --   -0.26401  -0.26246  -0.25871  -0.25722  -0.25473
 Alpha  occ. eigenvalues --   -0.25071  -0.24857  -0.24693  -0.21821  -0.21215
 Alpha  occ. eigenvalues --   -0.19336  -0.19281
 Alpha virt. eigenvalues --   -0.11973  -0.11955  -0.05448  -0.04399  -0.04208
 Alpha virt. eigenvalues --   -0.03904  -0.02381  -0.02211  -0.02058  -0.00999
 Alpha virt. eigenvalues --   -0.00442   0.00470   0.00824   0.00956   0.01406

 Mulliken charges:
               1
     1  Mg  11.998086
     2  C    5.969319
     3  C    5.978682
     4  C    6.033674
     5  C    6.012390
     6  N    6.972307
     7  C    6.030525
     8  C    5.987419
     9  C    6.001482
    10  C    5.987227
    11  C    6.003443
    12  C    5.998096
    13  C    6.001297
    14  H    1.003425
    15  N    7.003607
    16  C    5.970554
    17  C    5.980773
    18  C    5.986807
    19  C    5.971907
    20  C    5.999458
    21  C    5.989017
    22  O    7.965296
    23  C    6.004455
    24  N    7.024760
    25  C    5.966473
    26  C    6.004805
    27  C    5.995379
    28  C    6.017264
    29  C    5.999970
    30  C    5.995653
    31  C    6.000976
    32  N    6.998565
    33  C    6.026159
    34  C    6.032582
    35  C    5.996501
    36  C    6.037896
    37  C    5.998200
    38  C    6.013983
    39  O    8.023806
    40  C    6.006640
    41  C    6.006199
    42  O    8.003286
    43  O    8.000420
    44  C    5.997138
    45  H    0.979791
    46  H    1.001902
    47  H    1.016414
    48  H    0.998585
    49  H    0.999438
    50  H    1.000014
    51  H    0.998393
    52  H    0.984980
    53  H    1.010171
    54  H    0.993709
    55  H    0.994716
    56  H    1.001665
    57  H    0.982478
    58  H    0.987855
    59  H    0.985828
    60  H    0.992103
    61  H    0.986106
    62  H    0.995477
    63  H    1.005640
    64  H    1.001992
    65  H    1.004738
    66  H    1.003271
    67  H    0.993287
    68  H    0.998376
    69  H    1.006285
    70  H    1.007362
    71  H    1.005290
    72  H    1.002440
    73  H    1.012490
    74  H    1.020113
    75  H    1.018091
    76  H    1.005160
    77  H    1.003423
    78  H    1.005636
    79  H    1.000882
    80  Mg  11.999961
    81  C    5.999529
    82  C    5.998960
    83  C    6.000179
    84  C    6.001047
    85  N    6.999302
    86  C    5.999279
    87  C    6.000262
    88  C    5.999614
    89  C    6.001348
    90  C    6.000015
    91  C    6.000019
    92  C    6.000281
    93  H    0.999565
    94  N    7.000108
    95  C    6.001453
    96  C    6.000391
    97  C    6.000475
    98  C    6.001030
    99  C    5.999755
   100  C    6.000334
   101  O    8.001106
   102  C    5.999714
   103  N    7.000674
   104  C    6.000422
   105  C    5.999673
   106  C    6.000144
   107  C    5.998795
   108  C    5.999875
   109  C    5.999975
   110  C    5.999976
   111  N    7.000146
   112  C    5.998484
   113  C    5.999241
   114  C    5.999665
   115  C    5.999278
   116  C    6.000050
   117  C    5.999570
   118  O    7.998646
   119  C    6.000277
   120  C    5.999788
   121  O    7.999562
   122  O    8.000094
   123  C    6.000133
   124  H    1.000299
   125  H    1.000579
   126  H    0.999829
   127  H    0.999889
   128  H    1.000061
   129  H    0.999957
   130  H    1.000068
   131  H    1.000228
   132  H    1.000001
   133  H    0.999710
   134  H    0.999745
   135  H    1.000360
   136  H    1.000621
   137  H    1.000723
   138  H    1.000647
   139  H    1.000382
   140  H    1.000333
   141  H    1.000609
   142  H    1.000201
   143  H    1.000070
   144  H    1.000051
   145  H    0.999925
   146  H    1.000368
   147  H    1.000201
   148  H    0.999832
   149  H    0.999923
   150  H    0.999901
   151  H    1.000082
   152  H    0.999470
   153  H    0.999526
   154  H    0.999362
   155  H    0.999494
   156  H    0.999877
   157  H    0.999701
   158  H    0.999780
 Sum of Mulliken charges = 624.00000

 Dipole moment (field-independent basis, Debye):
    X=              3.1070    Y=             -9.3081    Z=             -1.7673  Tot=              9.9708
 Quadrupole moment (field-independent basis, Debye-Ang):
   XX=             94.2903   YY=             -9.8244   ZZ=              2.8657
   XY=           -162.3853   XZ=            -36.0080   YZ=              0.5820

 Normal termination of Gaussian 16 at Thu Oct 14 00:56:02 2021.
