 Gaussian 16, Revision A.03,
 Gaussian 16:  ES64L-G16RevA.03 25-Dec-2016

 --------------------------------------------------------
 #p PBE1PBE/Def2SVP td=(nstates=5) density=(transition=1)
 --------------------------------------------------------

 --------------------------------
 TDDFT excited states in gaussian
 --------------------------------
 Symbolic Z-matrix:
 Charge =  0 Multiplicity = 1

                         Standard orientation:
 ---------------------------------------------------------------------
 Center     Atomic      Atomic             Coordinates (Angstroms)
 Number     Number       Type             X           Y           Z
 ---------------------------------------------------------------------
      1         12           0      -27.365772    0.511970   -0.309263
      2          6           0      -23.734816    0.524489   -0.024746
      3          6           0      -26.967682   -0.868955   -3.427620
      4          6           0      -30.406297   -0.847651   -0.010856
      5          6           0      -27.564836    2.008813    2.734776
      6          7           0      -25.514109   -0.279525   -1.489047
      7          6           0      -24.116488   -0.087864   -1.192651
      8          6           0      -23.280333   -0.473304   -2.416194
      9          6           0      -24.310446   -0.548289   -3.581566
     10          6           0      -25.721908   -0.558862   -2.845661
     11          6           0      -24.220105    0.685649   -4.598879
     12          6           0      -22.335678   -1.629817   -2.266289
     13          6           0      -22.560618   -2.585531   -1.070839
     14          1           0      -21.769873   -3.868032   -0.754030
     15          7           0      -28.600118   -0.594639   -1.625771
     16          6           0      -28.231762   -1.080352   -2.860913
     17          6           0      -29.433236   -1.715359   -3.486964
     18          6           0      -30.353056   -1.793218   -2.444352
     19          6           0      -29.823180   -1.121710   -1.259917
     20          6           0      -29.392386   -2.213095   -4.888304
     21          6           0      -31.732352   -2.508227   -2.539106
     22          8           0      -31.990341   -3.112323   -3.565065
     23          6           0      -32.701480   -2.635076   -1.410776
     24          7           0      -28.685972    0.478707    1.262674
     25          6           0      -29.957095   -0.051153    1.043832
     26          6           0      -30.889014    0.258726    2.215321
     27          6           0      -30.125782    1.410154    2.964960
     28          6           0      -28.758796    1.337112    2.280894
     29          6           0      -32.359301    0.643871    1.909362
     30          6           0      -30.061912    1.293586    4.521686
     31          6           0      -30.983440    2.311656    5.336940
     32          7           0      -25.972172    1.233512    1.077835
     33          6           0      -26.229619    1.906888    2.263100
     34          6           0      -24.990260    2.423540    2.789623
     35          6           0      -24.034227    1.825557    1.957406
     36          6           0      -24.708557    1.133566    0.921209
     37          6           0      -24.890941    3.253805    4.081063
     38          6           0      -22.636046    1.710509    1.676225
     39          8           0      -21.725727    2.274078    2.316632
     40          6           0      -22.343961    0.978866    0.291834
     41          6           0      -21.352912   -0.062033    0.630180
     42          8           0      -21.420818   -0.872058    1.560640
     43          8           0      -20.419222   -0.038367   -0.352234
     44          6           0      -19.202032   -0.880469   -0.130876
     45          1           0      -26.839319   -1.323850   -4.411542
     46          1           0      -31.403450   -1.286685    0.066042
     47          1           0      -27.670251    2.595878    3.649083
     48          1           0      -22.720403    0.458344   -2.497868
     49          1           0      -24.307081   -1.511905   -4.091318
     50          1           0      -23.866609    0.221616   -5.518795
     51          1           0      -23.555457    1.446082   -4.188196
     52          1           0      -25.245890    1.033041   -4.727133
     53          1           0      -21.332938   -1.203857   -2.295261
     54          1           0      -22.493049   -2.143118   -3.215489
     55          1           0      -23.608781   -2.876696   -1.146174
     56          1           0      -22.425566   -2.038876   -0.137335
     57          1           0      -29.437767   -3.299576   -4.819386
     58          1           0      -28.466339   -1.865101   -5.344953
     59          1           0      -30.212905   -1.769161   -5.453107
     60          1           0      -32.404586   -3.218298   -0.539938
     61          1           0      -33.601836   -3.181670   -1.689764
     62          1           0      -32.933954   -1.585219   -1.232837
     63          1           0      -30.823989   -0.717327    2.697540
     64          1           0      -30.621811    2.323335    2.635341
     65          1           0      -33.061744   -0.179403    2.043244
     66          1           0      -32.451517    0.922152    0.860055
     67          1           0      -32.602198    1.513165    2.521426
     68          1           0      -29.057350    1.380095    4.936718
     69          1           0      -30.341251    0.258112    4.716677
     70          1           0      -31.413018    1.662019    6.099113
     71          1           0      -31.768567    2.791587    4.752500
     72          1           0      -30.335886    3.122746    5.668058
     73          1           0      -24.060386    3.959032    4.118778
     74          1           0      -24.717154    2.466355    4.813625
     75          1           0      -25.753262    3.914029    4.171215
     76          1           0      -21.973257    1.709365   -0.428731
     77          1           0      -18.536157   -0.781360   -0.988832
     78          1           0      -19.463324   -1.934720   -0.037383
     79          1           0      -18.792970   -0.447615    0.780952
     80         12           0       26.374835   -0.733298    0.392335
     81          6           0       27.200562    2.445347   -0.844378
     82          6           0       24.293534    0.601168    2.630392
     83          6           0       25.802315   -3.737757    1.450194
     84          6           0       29.345689   -1.887553   -1.319506
     85          7           0       25.925146    1.318834    0.870689
     86          6           0       26.205304    2.431828    0.181075
     87          6           0       25.622023    3.659824    0.831184
     88          6           0       25.035467    3.082403    2.181481
     89          6           0       25.062917    1.594432    1.890306
     90          6           0       25.748984    3.452334    3.522226
     91          6           0       24.427910    4.263966   -0.070223
     92          6           0       24.532311    5.809315   -0.286431
     93          1           0       23.508531    6.321554   -1.437897
     94          7           0       25.063729   -1.463718    1.627922
     95          6           0       24.222409   -0.759628    2.472432
     96          6           0       23.269590   -1.676949    3.034322
     97          6           0       23.640336   -3.041410    2.691659
     98          6           0       24.828686   -2.818541    1.781987
     99          6           0       22.180051   -1.130449    4.001059
    100          6           0       23.101175   -4.432360    3.005472
    101          8           0       23.513389   -5.507741    2.534412
    102          6           0       21.901168   -4.394411    3.884030
    103          7           0       27.556733   -2.463686    0.189715
    104          6           0       27.021886   -3.584683    0.774991
    105          6           0       27.966503   -4.778865    0.634274
    106          6           0       28.912776   -4.287172   -0.492316
    107          6           0       28.654089   -2.779522   -0.520191
    108          6           0       28.587051   -5.145785    2.040488
    109          6           0       28.708485   -4.956949   -1.917179
    110          6           0       29.917667   -4.947502   -2.866068
    111          7           0       27.956618    0.060870   -0.871590
    112          6           0       29.034722   -0.534432   -1.453232
    113          6           0       29.733980    0.385042   -2.322661
    114          6           0       28.973552    1.555696   -2.147324
    115          6           0       27.949198    1.335084   -1.215531
    116          6           0       30.975291    0.215293   -3.228487
    117          6           0       28.868360    2.918087   -2.589813
    118          8           0       29.389824    3.542661   -3.476137
    119          6           0       27.782649    3.595081   -1.602615
    120          6           0       26.993970    4.375357   -2.559814
    121          8           0       26.050332    3.999799   -3.300458
    122          8           0       27.506681    5.616513   -2.500539
    123          6           0       26.947731    6.640077   -3.384816
    124          1           0       23.543385    1.022524    3.303061
    125          1           0       25.568569   -4.763412    1.743870
    126          1           0       30.175218   -2.311576   -1.889190
    127          1           0       26.323019    4.480395    0.986558
    128          1           0       23.983189    3.291757    2.374713
    129          1           0       26.229488    2.550225    3.900890
    130          1           0       24.946483    3.757915    4.193350
    131          1           0       26.526421    4.215386    3.507522
    132          1           0       23.415687    4.028352    0.260516
    133          1           0       24.443845    3.704462   -1.005598
    134          1           0       25.543794    6.086539   -0.582614
    135          1           0       24.245219    6.418361    0.570402
    136          1           0       21.308178   -0.863873    3.405257
    137          1           0       22.404379   -0.139937    4.398769
    138          1           0       22.011664   -1.685544    4.923593
    139          1           0       21.047220   -3.864040    3.464115
    140          1           0       22.301461   -3.940526    4.791413
    141          1           0       21.547982   -5.380693    4.186369
    142          1           0       27.333856   -5.606174    0.312414
    143          1           0       29.942639   -4.519898   -0.221691
    144          1           0       29.635226   -4.849448    2.078631
    145          1           0       28.595391   -6.189811    2.352528
    146          1           0       28.195090   -4.608844    2.904547
    147          1           0       27.994951   -4.284940   -2.394787
    148          1           0       28.323241   -5.976433   -1.945559
    149          1           0       29.745003   -4.325590   -3.745385
    150          1           0       30.289055   -5.892271   -3.263564
    151          1           0       30.700837   -4.417707   -2.325609
    152          1           0       31.542153   -0.610648   -2.798844
    153          1           0       31.571865    1.128187   -3.252528
    154          1           0       30.598760   -0.066785   -4.211668
    155          1           0       28.284498    4.291119   -0.930238
    156          1           0       26.400594    7.359856   -2.776249
    157          1           0       26.391787    6.208350   -4.216385
    158          1           0       27.773843    7.218534   -3.798184
 ---------------------------------------------------------------------

 SCF Done:  E(RPBE1PBE) =  -4067.33431940     A.U. after   16 cycles

 Excitation energies and oscillator strengths:

 Excited State   1:      Singlet-A      1.8047 eV  686.99 nm  f=0.3458  <S**2>=0.000
     309 -> 316        0.15270
     312 -> 313        0.69771
     312 <- 313       -0.11785
 This state for optimization and/or second-order correction.
 Total Energy, E(TD-HF/TD-DFT) =  -4067.26799608
 Copying the excited state density for this state as the 1-particle RhoCI density.

 Excited State   2:      Singlet-A      1.8755 eV  661.09 nm  f=0.3711  <S**2>=0.000
     310 -> 315        0.18970
     311 -> 314        0.68800

 Excited State   3:      Singlet-A      1.9648 eV  631.03 nm  f=0.0000  <S**2>=0.000
     312 -> 314        0.70711

 Excited State   4:      Singlet-A      2.0217 eV  613.25 nm  f=0.0000  <S**2>=0.000
     311 -> 313        0.70711

 Excited State   5:      Singlet-A      2.2462 eV  551.97 nm  f=0.0673  <S**2>=0.000
     310 -> 314        0.63542
     311 -> 315       -0.29952

 The electronic state is 1-A.
 Alpha  occ. eigenvalues --  -46.92688 -46.90977 -19.26072 -19.25505 -19.19803
 Alpha  occ. eigenvalues --  -19.19748 -19.19282 -19.19088 -19.18673 -19.17608
 Alpha  occ. eigenvalues --  -14.42054 -14.41972 -14.41275 -14.41156 -14.39266
 Alpha  occ. eigenvalues --  -14.39109 -14.38504 -14.38083 -10.36232 -10.35546
 Alpha  occ. eigenvalues --  -10.33017 -10.32495 -10.31831 -10.30967 -10.29468
 Alpha  occ. eigenvalues --  -10.29432 -10.29377 -10.29266 -10.29019 -10.28974
 Alpha  occ. eigenvalues --  -10.28477 -10.28397 -10.28288 -10.28217 -10.28211
 Alpha  occ. eigenvalues --  -10.28179 -10.28061 -10.27712 -10.27594 -10.27112
 Alpha  occ. eigenvalues --  -10.27015 -10.26950 -10.26561 -10.26488 -10.26446
 Alpha  occ. eigenvalues --  -10.26394 -10.26222 -10.26217 -10.26207 -10.26168
 Alpha  occ. eigenvalues --  -10.25834 -10.25657 -10.25619 -10.25595 -10.25574
 Alpha  occ. eigenvalues --  -10.25568 -10.25535 -10.25497 -10.25471 -10.25187
 Alpha  occ. eigenvalues --  -10.25110 -10.25080 -10.25041 -10.24956 -10.24921
 Alpha  occ. eigenvalues --  -10.24901 -10.24842 -10.24748 -10.24437 -10.24386
 Alpha  occ. eigenvalues --  -10.24333 -10.24122 -10.24095 -10.23988 -10.23967
 Alpha  occ. eigenvalues --  -10.23930 -10.23909 -10.23651 -10.23542 -10.23513
 Alpha  occ. eigenvalues --  -10.23486 -10.23366 -10.23246 -10.22828 -10.22223
 Alpha  occ. eigenvalues --  -10.22026  -3.14757  -3.13391  -1.87568  -1.87153
 Alpha  occ. eigenvalues --   -1.86960  -1.86218  -1.85778  -1.85630  -1.10902
 Alpha  occ. eigenvalues --   -1.10697  -1.05555  -1.05246  -1.04015  -1.02378
 Alpha  occ. eigenvalues --   -1.01625  -1.00304  -0.99838  -0.99688  -0.98977
 Alpha  occ. eigenvalues --   -0.98782  -0.98262  -0.97275  -0.97026  -0.94872
 Alpha  occ. eigenvalues --   -0.87093  -0.86408  -0.83656  -0.83415  -0.83229
 Alpha  occ. eigenvalues --   -0.82891  -0.82521  -0.82345  -0.81783  -0.81161
 Alpha  occ. eigenvalues --   -0.81097  -0.80908  -0.80611  -0.80516  -0.78804
 Alpha  occ. eigenvalues --   -0.78603  -0.78109  -0.78082  -0.76771  -0.76681
 Alpha  occ. eigenvalues --   -0.76598  -0.76449  -0.75620  -0.75350  -0.74616
 Alpha  occ. eigenvalues --   -0.74535  -0.72450  -0.72289  -0.72086  -0.71626
 Alpha  occ. eigenvalues --   -0.71199  -0.70853  -0.70358  -0.70227  -0.69727
 Alpha  occ. eigenvalues --   -0.69542  -0.67548  -0.67238  -0.66588  -0.66090
 Alpha  occ. eigenvalues --   -0.64034  -0.63585  -0.63335  -0.63196  -0.62295
 Alpha  occ. eigenvalues --   -0.62165  -0.61611  -0.61327  -0.60569  -0.60469
 Alpha  occ. eigenvalues --   -0.59996  -0.59805  -0.59423  -0.59267  -0.59003
 Alpha  occ. eigenvalues --   -0.58138  -0.56765  -0.56344  -0.54767  -0.54366
 Alpha  occ. eigenvalues --   -0.54112  -0.53766  -0.53751  -0.53688  -0.53255
 Alpha  occ. eigenvalues --   -0.52617  -0.52525  -0.52045  -0.51811  -0.51551
 Alpha  occ. eigenvalues --   -0.51366  -0.50898  -0.50732  -0.50384  -0.50035
 Alpha  occ. eigenvalues --   -0.49744  -0.49187  -0.48870  -0.48793  -0.48482
 Alpha  occ. eigenvalues --   -0.48317  -0.47925  -0.47775  -0.47655  -0.47459
 Alpha  occ. eigenvalues --   -0.47447  -0.47144  -0.47085  -0.46978  -0.46757
 Alpha  occ. eigenvalues --   -0.46487  -0.46217  -0.45942  -0.45927  -0.45810
 Alpha  occ. eigenvalues --   -0.45581  -0.45509  -0.45332  -0.45212  -0.45028
 Alpha  occ. eigenvalues --   -0.44753  -0.44600  -0.44561  -0.44342  -0.44017
 Alpha  occ. eigenvalues --   -0.43991  -0.43709  -0.43647  -0.43507  -0.43360
 Alpha  occ. eigenvalues --   -0.43068  -0.43000  -0.42814  -0.42697  -0.42628
 Alpha  occ. eigenvalues --   -0.42472  -0.42281  -0.42111  -0.41956  -0.41874
 Alpha  occ. eigenvalues --   -0.41584  -0.41568  -0.41375  -0.41245  -0.41190
 Alpha  occ. eigenvalues --   -0.41090  -0.41006  -0.40590  -0.40496  -0.40467
 Alpha  occ. eigenvalues --   -0.40261  -0.40229  -0.39944  -0.39934  -0.39713
 Alpha  occ. eigenvalues --   -0.39639  -0.39313  -0.38904  -0.38823  -0.38736
 Alpha  occ. eigenvalues --   -0.38569  -0.38382  -0.38352  -0.38271  -0.38234
 Alpha  occ. eigenvalues --   -0.37923  -0.37696  -0.37670  -0.37644  -0.37574
 Alpha  occ. eigenvalues --   -0.37414  -0.37374  -0.37078  -0.37045  -0.37031
 Alpha  occ. eigenvalues --   -0.36853  -0.36797  -0.36673  -0.36671  -0.36220
 Alpha  occ. eigenvalues --   -0.36004  -0.35965  -0.35755  -0.35682  -0.35509
 Alpha  occ. eigenvalues --   -0.35189  -0.34906  -0.34505  -0.34334  -0.34043
 Alpha  occ. eigenvalues --   -0.33668  -0.33390  -0.32818  -0.32428  -0.32419
 Alpha  occ. eigenvalues --   -0.32161  -0.32005  -0.31595  -0.31395  -0.30872
 Alpha  occ. eigenvalues --   -0.30463  -0.30345  -0.29445  -0.29279  -0.29170
 Alpha  occ. eigenvalues --   -0.29053  -0.28309  -0.27858  -0.27101  -0.26970
 Alpha  occ. eigenvalues --   -0.26393  -0.25958  -0.25839  -0.25560  -0.25407
 Alpha  occ. eigenvalues --   -0.25282  -0.25199  -0.24301  -0.21272  -0.21098
 Alpha  occ. eigenvalues --   -0.18778  -0.18462
 Alpha virt. eigenvalues --   -0.11103  -0.10995  -0.05731  -0.05307  -0.04455
 Alpha virt. eigenvalues --   -0.03131  -0.02018  -0.01938  -0.01405   0.00154
 Alpha virt. eigenvalues --    0.00185   0.00856   0.00969   0.01015   0.01502

 Mulliken charges:
               1
     1  Mg  11.999685
     2  C    5.972523
     3  C    5.990822
     4  C    6.030780
     5  C    6.007729
     6  N    6.976784
     7  C    6.026125
     8  C    5.996412
     9  C    6.001937
    10  C    5.987914
    11  C    6.002006
    12  C    5.998605
    13  C    5.994280
    14  H    1.001953
    15  N    7.007792
    16  C    5.968456
    17  C    5.972691
    18  C    5.997942
    19  C    5.955571
    20  C    6.004520
    21  C    5.987722
    22  O    7.984445
    23  C    6.001704
    24  N    7.008471
    25  C    5.960697
    26  C    6.010176
    27  C    5.988796
    28  C    6.031963
    29  C    5.999944
    30  C    5.993496
    31  C    6.001971
    32  N    7.000447
    33  C    6.030222
    34  C    6.024332
    35  C    6.001224
    36  C    6.035418
    37  C    6.001287
    38  C    6.015900
    39  O    8.032930
    40  C    6.006722
    41  C    6.003883
    42  O    8.001240
    43  O    8.002164
    44  C    6.000071
    45  H    0.986786
    46  H    0.994900
    47  H    1.015746
    48  H    0.995105
    49  H    1.000888
    50  H    0.995044
    51  H    0.986115
    52  H    1.002869
    53  H    0.997196
    54  H    1.007796
    55  H    1.009904
    56  H    0.993114
    57  H    0.982632
    58  H    0.985791
    59  H    0.982101
    60  H    0.989734
    61  H    0.989095
    62  H    0.992466
    63  H    0.999554
    64  H    1.006543
    65  H    1.002851
    66  H    1.004937
    67  H    0.991161
    68  H    0.994492
    69  H    1.008897
    70  H    1.004839
    71  H    1.005629
    72  H    0.997477
    73  H    1.014844
    74  H    1.015471
    75  H    1.012949
    76  H    1.005794
    77  H    1.004593
    78  H    1.004076
    79  H    0.998860
    80  Mg  12.000003
    81  C    5.999996
    82  C    5.999992
    83  C    6.000020
    84  C    6.000004
    85  N    7.000003
    86  C    6.000016
    87  C    5.999984
    88  C    6.000024
    89  C    5.999932
    90  C    6.000007
    91  C    5.999994
    92  C    6.000003
    93  H    0.999989
    94  N    6.999988
    95  C    5.999933
    96  C    5.999933
    97  C    5.999930
    98  C    5.999960
    99  C    6.000028
   100  C    5.999957
   101  O    7.999919
   102  C    6.000022
   103  N    7.000004
   104  C    5.999961
   105  C    6.000020
   106  C    5.999972
   107  C    6.000073
   108  C    6.000005
   109  C    5.999989
   110  C    5.999989
   111  N    7.000011
   112  C    6.000077
   113  C    6.000085
   114  C    6.000002
   115  C    6.000076
   116  C    5.999996
   117  C    6.000080
   118  O    8.000095
   119  C    5.999967
   120  C    6.000015
   121  O    8.000019
   122  O    8.000001
   123  C    5.999987
   124  H    0.999947
   125  H    0.999991
   126  H    1.000041
   127  H    1.000000
   128  H    0.999979
   129  H    1.000010
   130  H    0.999967
   131  H    0.999966
   132  H    1.000009
   133  H    1.000000
   134  H    1.000003
   135  H    0.999995
   136  H    0.999919
   137  H    0.999939
   138  H    0.999935
   139  H    0.999953
   140  H    0.999978
   141  H    0.999954
   142  H    1.000012
   143  H    1.000025
   144  H    0.999981
   145  H    1.000009
   146  H    1.000007
   147  H    0.999998
   148  H    1.000048
   149  H    1.000000
   150  H    1.000040
   151  H    0.999998
   152  H    1.000053
   153  H    1.000052
   154  H    1.000069
   155  H    1.000024
   156  H    1.000003
   157  H    1.000013
   158  H    1.000023
 Sum of Mulliken charges = 624.00000

 Dipole moment (field-independent basis, Debye):
    X=              5.3114    Y=              4.5771    Z=              7.2043  Tot=             10.0530
 Quadrupole moment (field-independent basis, Debye-Ang):
   XX=           -283.0746   YY=              2.7364   ZZ=             -4.9172
   XY=           -125.6524   XZ=           -198.5878   YZ=              1.9114

 Normal termination of Gaussian 16 at Wed Oct 13 23:54:22 2021.
