 Gaussian 16, Revision A.03,
 Gaussian 16:  ES64L-G16RevA.03 25-Dec-2016

 --------------------------------------------------------
 #p PBE1PBE/Def2SVP td=(nstates=5) density=(transition=1)
 --------------------------------------------------------

 --------------------------------
 TDDFT excited states in gaussian
 --------------------------------
 Symbolic Z-matrix:
 Charge =  0 Multiplicity = 1

                         Standard orientation:
 ---------------------------------------------------------------------
 Center     Atomic      Atomic             Coordinates (Angstroms)
 Number     Number       Type             X           Y           Z
 ---------------------------------------------------------------------
      1         12           0       29.702911    0.593797    0.097763
      2          6           0       26.776480   -1.364890   -1.090961
      3          6           0       31.171899   -2.431033    0.438937
      4          6           0       32.025633    2.339702    1.364414
      5          6           0       27.460019    3.348571    0.331366
      6          7           0       29.005034   -1.606835   -0.240867
      7          6           0       27.884179   -2.105945   -0.882541
      8          6           0       27.971057   -3.589741   -1.257806
      9          6           0       29.177110   -3.990368   -0.353216
     10          6           0       29.856498   -2.610715   -0.001078
     11          6           0       28.821489   -4.759835    0.879812
     12          6           0       28.111684   -3.936553   -2.777955
     13          6           0       27.532238   -5.223935   -3.261287
     14          1           0       28.337776   -5.936415   -4.343088
     15          7           0       31.446934    0.040947    0.788000
     16          6           0       31.941806   -1.279892    0.805443
     17          6           0       33.323246   -1.222078    1.187736
     18          6           0       33.594632    0.210460    1.301091
     19          6           0       32.354859    0.881600    1.144999
     20          6           0       34.297492   -2.456143    1.249184
     21          6           0       34.941665    0.817800    1.547990
     22          8           0       35.097705    2.054212    1.697457
     23          6           0       36.197180    0.025393    1.584984
     24          7           0       29.750503    2.497535    0.912343
     25          6           0       30.877595    3.038262    1.379491
     26          6           0       30.728053    4.527753    1.826838
     27          6           0       29.405081    4.877738    1.048879
     28          6           0       28.787199    3.479939    0.771552
     29          6           0       30.542096    4.665231    3.372258
     30          6           0       29.690840    5.627293   -0.319777
     31          6           0       30.559945    6.902460   -0.318815
     32          7           0       27.579511    0.967608   -0.328685
     33          6           0       26.871662    2.160414   -0.234378
     34          6           0       25.496594    1.939728   -0.616743
     35          6           0       25.427220    0.592275   -0.992989
     36          6           0       26.693110    0.002932   -0.724335
     37          6           0       24.424619    2.969926   -0.738790
     38          6           0       24.531518   -0.432278   -1.513479
     39          8           0       23.369333   -0.429829   -1.897243
     40          6           0       25.484600   -1.728671   -1.663141
     41          6           0       24.776947   -2.811744   -1.002161
     42          8           0       24.476165   -2.881291    0.199909
     43          8           0       24.115315   -3.521847   -1.962636
     44          6           0       23.281626   -4.614554   -1.576093
     45          1           0       31.631383   -3.420313    0.384093
     46          1           0       32.798287    2.978495    1.796884
     47          1           0       26.824905    4.233826    0.409946
     48          1           0       27.069505   -4.069085   -0.875723
     49          1           0       29.940234   -4.502778   -0.938283
     50          1           0       28.935017   -4.078121    1.722735
     51          1           0       29.541237   -5.564263    1.030653
     52          1           0       27.819054   -5.184112    0.932989
     53          1           0       29.178941   -4.006110   -2.986312
     54          1           0       27.729206   -3.085041   -3.340111
     55          1           0       26.567464   -4.928325   -3.673018
     56          1           0       27.200334   -5.866707   -2.445827
     57          1           0       35.025721   -2.520793    0.441268
     58          1           0       33.747565   -3.392107    1.343713
     59          1           0       34.794694   -2.284310    2.204646
     60          1           0       36.235168   -0.509250    2.534441
     61          1           0       37.005332    0.754759    1.523679
     62          1           0       36.194649   -0.598430    0.691767
     63          1           0       31.633411    5.031541    1.486601
     64          1           0       28.668905    5.456788    1.605591
     65          1           0       31.440189    5.157145    3.746653
     66          1           0       30.330329    3.742041    3.910703
     67          1           0       29.696539    5.352325    3.427508
     68          1           0       28.740063    5.965851   -0.730793
     69          1           0       30.060463    4.866345   -1.006889
     70          1           0       31.390349    6.668971   -0.984989
     71          1           0       30.922647    6.974251    0.706961
     72          1           0       30.023016    7.776651   -0.686744
     73          1           0       24.959218    3.919192   -0.697241
     74          1           0       23.786986    2.844208    0.136219
     75          1           0       23.793744    2.854020   -1.620057
     76          1           0       25.634922   -1.949984   -2.719641
     77          1           0       23.302032   -4.777651   -0.498332
     78          1           0       23.724290   -5.488779   -2.053625
     79          1           0       22.282992   -4.519819   -2.000155
     80         12           0      -29.664288   -0.126197    0.124374
     81          6           0      -26.297889   -0.460296   -0.864984
     82          6           0      -28.820678   -1.664086    2.982321
     83          6           0      -32.664516    0.689553    1.131247
     84          6           0      -30.033307    2.070706   -2.669889
     85          7           0      -27.748176   -0.919787    0.959829
     86          6           0      -26.523926   -1.038228    0.393327
     87          6           0      -25.519356   -1.767696    1.262070
     88          6           0      -26.487699   -2.363103    2.361493
     89          6           0      -27.786820   -1.617593    2.136265
     90          6           0      -26.689265   -3.933176    2.293785
     91          6           0      -24.273939   -1.021208    1.912132
     92          6           0      -24.205369    0.527190    1.988754
     93          1           0      -23.481406    1.173004    3.228742
     94          7           0      -30.635130   -0.594545    1.828353
     95          6           0      -30.115032   -1.126861    2.926149
     96          6           0      -31.144156   -1.116355    4.001304
     97          6           0      -32.367012   -0.549110    3.365687
     98          6           0      -31.899752   -0.109734    2.050565
     99          6           0      -30.965378   -1.768671    5.345706
    100          6           0      -33.703858   -0.367079    4.035573
    101          8           0      -33.849559   -0.782234    5.182625
    102          6           0      -34.942450    0.377548    3.413840
    103          7           0      -31.169716    1.330601   -0.621642
    104          6           0      -32.322863    1.264128   -0.051594
    105          6           0      -33.330101    2.152630   -0.909015
    106          6           0      -32.374136    2.747893   -1.944856
    107          6           0      -31.064312    2.012866   -1.735041
    108          6           0      -34.574393    1.491379   -1.524851
    109          6           0      -32.030828    4.306076   -1.690073
    110          6           0      -32.548699    5.303768   -2.742249
    111          7           0      -28.473486    0.724153   -1.416140
    112          6           0      -28.767999    1.476052   -2.522682
    113          6           0      -27.630515    1.468811   -3.478785
    114          6           0      -26.557259    0.812482   -2.812413
    115          6           0      -27.202301    0.295469   -1.606782
    116          6           0      -27.536741    2.224070   -4.823370
    117          6           0      -25.189174    0.415144   -2.838735
    118          8           0      -24.223320    0.677197   -3.575873
    119          6           0      -24.971260   -0.500166   -1.607091
    120          6           0      -24.507581   -1.858377   -2.141487
    121          8           0      -23.440030   -2.411483   -2.147462
    122          8           0      -25.647633   -2.578836   -2.513960
    123          6           0      -25.458474   -3.993247   -2.962862
    124          1           0      -28.515679   -2.160128    3.906308
    125          1           0      -33.672793    0.901519    1.495189
    126          1           0      -30.246199    2.525171   -3.639360
    127          1           0      -25.175892   -2.597223    0.644258
    128          1           0      -26.075348   -2.160676    3.350080
    129          1           0      -26.157033   -4.357725    1.443219
    130          1           0      -27.743027   -4.002756    2.026117
    131          1           0      -26.419220   -4.379357    3.251092
    132          1           0      -23.387898   -1.377430    1.386484
    133          1           0      -24.136471   -1.389348    2.929396
    134          1           0      -25.241476    0.865730    1.983787
    135          1           0      -23.587952    0.979459    1.213250
    136          1           0      -31.900586   -1.894463    5.890889
    137          1           0      -30.183184   -1.205721    5.856360
    138          1           0      -30.479983   -2.715707    5.107586
    139          1           0      -35.323698    0.110580    2.427482
    140          1           0      -34.671915    1.425125    3.281532
    141          1           0      -35.824411    0.306331    4.049722
    142          1           0      -33.792288    2.929147   -0.300437
    143          1           0      -32.658495    2.726921   -2.997479
    144          1           0      -34.640751    0.433831   -1.268834
    145          1           0      -34.617089    1.639348   -2.604438
    146          1           0      -35.513192    1.896144   -1.146790
    147          1           0      -30.956520    4.481701   -1.654770
    148          1           0      -32.450370    4.538369   -0.710995
    149          1           0      -31.919185    6.177822   -2.910946
    150          1           0      -33.486658    5.682509   -2.336277
    151          1           0      -32.623012    4.696997   -3.644776
    152          1           0      -28.306407    2.978290   -4.983980
    153          1           0      -27.650730    1.440658   -5.572217
    154          1           0      -26.522613    2.609629   -4.925253
    155          1           0      -24.194556   -0.073052   -0.973598
    156          1           0      -24.525998   -4.262678   -3.458357
    157          1           0      -26.230943   -4.115778   -3.721824
    158          1           0      -25.654181   -4.795607   -2.251222
 ---------------------------------------------------------------------

 SCF Done:  E(RPBE1PBE) =  -4067.35801063     A.U. after   16 cycles

 Excitation energies and oscillator strengths:

 Excited State   1:      Singlet-A      1.8204 eV  681.10 nm  f=0.3649  <S**2>=0.000
     310 -> 317       -0.15133
     311 -> 313        0.70055
     311 <- 313       -0.12602
 This state for optimization and/or second-order correction.
 Total Energy, E(TD-HF/TD-DFT) =  -4067.29111392
 Copying the excited state density for this state as the 1-particle RhoCI density.

 Excited State   2:      Singlet-A      1.8961 eV  653.87 nm  f=0.0000  <S**2>=0.000
     312 -> 313        0.70711

 Excited State   3:      Singlet-A      1.9112 eV  648.73 nm  f=0.3966  <S**2>=0.000
     309 -> 315        0.17694
     312 -> 314        0.69115
     312 <- 314       -0.10569

 Excited State   4:      Singlet-A      2.0799 eV  596.09 nm  f=0.0000  <S**2>=0.000
     311 -> 314        0.70711

 Excited State   5:      Singlet-A      2.1897 eV  566.22 nm  f=0.2004  <S**2>=0.000
     310 -> 313        0.67307
     311 -> 317        0.20147

 The electronic state is 1-A.
 Alpha  occ. eigenvalues --  -46.93451 -46.92317 -19.25361 -19.25203 -19.20569
 Alpha  occ. eigenvalues --  -19.20022 -19.19535 -19.19515 -19.18963 -19.17784
 Alpha  occ. eigenvalues --  -14.41822 -14.41656 -14.41296 -14.41075 -14.40003
 Alpha  occ. eigenvalues --  -14.39875 -14.39396 -14.39203 -10.36846 -10.36021
 Alpha  occ. eigenvalues --  -10.33034 -10.32911 -10.32656 -10.31218 -10.29107
 Alpha  occ. eigenvalues --  -10.29102 -10.29055 -10.28723 -10.28670 -10.28558
 Alpha  occ. eigenvalues --  -10.28543 -10.28498 -10.28428 -10.28362 -10.28306
 Alpha  occ. eigenvalues --  -10.28265 -10.27980 -10.27932 -10.27792 -10.27639
 Alpha  occ. eigenvalues --  -10.27624 -10.27620 -10.26849 -10.26845 -10.26735
 Alpha  occ. eigenvalues --  -10.26701 -10.26587 -10.26477 -10.26379 -10.26050
 Alpha  occ. eigenvalues --  -10.26013 -10.26000 -10.25884 -10.25756 -10.25746
 Alpha  occ. eigenvalues --  -10.25720 -10.25581 -10.25493 -10.25462 -10.25445
 Alpha  occ. eigenvalues --  -10.25237 -10.25217 -10.25135 -10.25111 -10.25017
 Alpha  occ. eigenvalues --  -10.24933 -10.24770 -10.24580 -10.24559 -10.24450
 Alpha  occ. eigenvalues --  -10.24375 -10.24135 -10.24038 -10.24028 -10.24027
 Alpha  occ. eigenvalues --  -10.23989 -10.23669 -10.23568 -10.23476 -10.23456
 Alpha  occ. eigenvalues --  -10.23205 -10.23171 -10.23139 -10.23069 -10.23007
 Alpha  occ. eigenvalues --  -10.22861  -3.15511  -3.14555  -1.88339  -1.87883
 Alpha  occ. eigenvalues --   -1.87737  -1.87364  -1.86925  -1.86801  -1.11206
 Alpha  occ. eigenvalues --   -1.10746  -1.04875  -1.04445  -1.03878  -1.02269
 Alpha  occ. eigenvalues --   -1.02054  -1.01697  -1.01393  -0.99657  -0.99421
 Alpha  occ. eigenvalues --   -0.98697  -0.98590  -0.98336  -0.98022  -0.97154
 Alpha  occ. eigenvalues --   -0.87962  -0.87840  -0.84165  -0.83738  -0.83175
 Alpha  occ. eigenvalues --   -0.83120  -0.82866  -0.82622  -0.82366  -0.81793
 Alpha  occ. eigenvalues --   -0.81150  -0.81099  -0.80530  -0.79886  -0.79184
 Alpha  occ. eigenvalues --   -0.78976  -0.78296  -0.78186  -0.77408  -0.77165
 Alpha  occ. eigenvalues --   -0.76357  -0.76019  -0.75462  -0.75108  -0.75095
 Alpha  occ. eigenvalues --   -0.74778  -0.72887  -0.72829  -0.71977  -0.71734
 Alpha  occ. eigenvalues --   -0.71594  -0.71327  -0.70937  -0.70539  -0.69818
 Alpha  occ. eigenvalues --   -0.69782  -0.67757  -0.67734  -0.66880  -0.65355
 Alpha  occ. eigenvalues --   -0.64004  -0.63639  -0.63576  -0.63059  -0.63028
 Alpha  occ. eigenvalues --   -0.62548  -0.62063  -0.61401  -0.61305  -0.60159
 Alpha  occ. eigenvalues --   -0.60079  -0.59990  -0.59581  -0.59491  -0.59406
 Alpha  occ. eigenvalues --   -0.58966  -0.57654  -0.56567  -0.55398  -0.55123
 Alpha  occ. eigenvalues --   -0.54885  -0.54339  -0.54039  -0.53960  -0.53305
 Alpha  occ. eigenvalues --   -0.53174  -0.52887  -0.52734  -0.52350  -0.51662
 Alpha  occ. eigenvalues --   -0.51015  -0.50405  -0.50389  -0.50135  -0.50131
 Alpha  occ. eigenvalues --   -0.49599  -0.49412  -0.49196  -0.49054  -0.48726
 Alpha  occ. eigenvalues --   -0.48504  -0.48267  -0.48228  -0.47832  -0.47527
 Alpha  occ. eigenvalues --   -0.47363  -0.47299  -0.47035  -0.47002  -0.46610
 Alpha  occ. eigenvalues --   -0.46443  -0.46294  -0.46089  -0.46006  -0.45759
 Alpha  occ. eigenvalues --   -0.45742  -0.45629  -0.45519  -0.45203  -0.44884
 Alpha  occ. eigenvalues --   -0.44651  -0.44537  -0.44412  -0.44391  -0.44342
 Alpha  occ. eigenvalues --   -0.44067  -0.44024  -0.43849  -0.43703  -0.43475
 Alpha  occ. eigenvalues --   -0.43432  -0.43215  -0.43138  -0.42978  -0.42900
 Alpha  occ. eigenvalues --   -0.42793  -0.42598  -0.42504  -0.42315  -0.42277
 Alpha  occ. eigenvalues --   -0.42170  -0.41940  -0.41881  -0.41685  -0.41343
 Alpha  occ. eigenvalues --   -0.41246  -0.41088  -0.41039  -0.40876  -0.40767
 Alpha  occ. eigenvalues --   -0.40713  -0.40578  -0.40225  -0.40114  -0.40079
 Alpha  occ. eigenvalues --   -0.39911  -0.39655  -0.39622  -0.39514  -0.39248
 Alpha  occ. eigenvalues --   -0.39012  -0.38800  -0.38778  -0.38481  -0.38390
 Alpha  occ. eigenvalues --   -0.38134  -0.38132  -0.37909  -0.37868  -0.37683
 Alpha  occ. eigenvalues --   -0.37629  -0.37505  -0.37040  -0.37025  -0.36960
 Alpha  occ. eigenvalues --   -0.36842  -0.36840  -0.36367  -0.36299  -0.36137
 Alpha  occ. eigenvalues --   -0.36122  -0.35804  -0.35692  -0.35589  -0.35510
 Alpha  occ. eigenvalues --   -0.34893  -0.34685  -0.34354  -0.34207  -0.34103
 Alpha  occ. eigenvalues --   -0.33813  -0.33543  -0.33259  -0.33098  -0.32755
 Alpha  occ. eigenvalues --   -0.32689  -0.32233  -0.31965  -0.31530  -0.31484
 Alpha  occ. eigenvalues --   -0.31307  -0.30665  -0.30049  -0.29822  -0.29410
 Alpha  occ. eigenvalues --   -0.29085  -0.29074  -0.28652  -0.27429  -0.27202
 Alpha  occ. eigenvalues --   -0.26575  -0.26257  -0.26143  -0.25890  -0.25735
 Alpha  occ. eigenvalues --   -0.25484  -0.25060  -0.24706  -0.21410  -0.21227
 Alpha  occ. eigenvalues --   -0.19293  -0.19179
 Alpha virt. eigenvalues --   -0.11985  -0.11422  -0.05524  -0.04772  -0.04411
 Alpha virt. eigenvalues --   -0.03915  -0.02648  -0.02223  -0.01442  -0.01007
 Alpha virt. eigenvalues --   -0.00453   0.00183   0.00529   0.00947   0.01261

 Mulliken charges:
               1
     1  Mg  11.998092
     2  C    5.969299
     3  C    5.978697
     4  C    6.033819
     5  C    6.012236
     6  N    6.972395
     7  C    6.030522
     8  C    5.987266
     9  C    6.001471
    10  C    5.987140
    11  C    6.003433
    12  C    5.998101
    13  C    6.001268
    14  H    1.003472
    15  N    7.003683
    16  C    5.970333
    17  C    5.980862
    18  C    5.986862
    19  C    5.971973
    20  C    5.999455
    21  C    5.988944
    22  O    7.965443
    23  C    6.004380
    24  N    7.024805
    25  C    5.966424
    26  C    6.004893
    27  C    5.995381
    28  C    6.017061
    29  C    5.999971
    30  C    5.995644
    31  C    6.001004
    32  N    6.998613
    33  C    6.026079
    34  C    6.032435
    35  C    5.996431
    36  C    6.038161
    37  C    5.998238
    38  C    6.013976
    39  O    8.023710
    40  C    6.006765
    41  C    6.006171
    42  O    8.003308
    43  O    8.000437
    44  C    5.997161
    45  H    0.979742
    46  H    1.001853
    47  H    1.016513
    48  H    0.998646
    49  H    0.999430
    50  H    1.000004
    51  H    0.998404
    52  H    0.985008
    53  H    1.010171
    54  H    0.993748
    55  H    0.994733
    56  H    1.001662
    57  H    0.982440
    58  H    0.987836
    59  H    0.985808
    60  H    0.992076
    61  H    0.986102
    62  H    0.995446
    63  H    1.005625
    64  H    1.002029
    65  H    1.004726
    66  H    1.003253
    67  H    0.993269
    68  H    0.998396
    69  H    1.006310
    70  H    1.007355
    71  H    1.005284
    72  H    1.002426
    73  H    1.012514
    74  H    1.020182
    75  H    1.018148
    76  H    1.005152
    77  H    1.003403
    78  H    1.005622
    79  H    1.000872
    80  Mg  12.000018
    81  C    6.000090
    82  C    5.999943
    83  C    5.999829
    84  C    5.999986
    85  N    6.999993
    86  C    5.999877
    87  C    6.000075
    88  C    5.999956
    89  C    6.000080
    90  C    5.999992
    91  C    5.999979
    92  C    6.000063
    93  H    0.999929
    94  N    6.999949
    95  C    6.000105
    96  C    6.000074
    97  C    5.999993
    98  C    6.000201
    99  C    5.999998
   100  C    6.000020
   101  O    8.000070
   102  C    6.000009
   103  N    6.999970
   104  C    6.000154
   105  C    5.999978
   106  C    6.000007
   107  C    5.999944
   108  C    5.999996
   109  C    6.000010
   110  C    5.999998
   111  N    7.000013
   112  C    5.999956
   113  C    5.999962
   114  C    5.999978
   115  C    5.999857
   116  C    6.000016
   117  C    5.999966
   118  O    7.999870
   119  C    5.999982
   120  C    6.000019
   121  O    7.999922
   122  O    8.000031
   123  C    6.000009
   124  H    1.000012
   125  H    1.000067
   126  H    1.000009
   127  H    0.999990
   128  H    1.000000
   129  H    1.000025
   130  H    1.000006
   131  H    1.000007
   132  H    0.999985
   133  H    0.999977
   134  H    1.000009
   135  H    0.999984
   136  H    1.000057
   137  H    1.000040
   138  H    1.000050
   139  H    1.000030
   140  H    1.000016
   141  H    1.000042
   142  H    1.000015
   143  H    1.000015
   144  H    0.999999
   145  H    1.000028
   146  H    1.000023
   147  H    0.999992
   148  H    0.999983
   149  H    0.999989
   150  H    1.000008
   151  H    1.000009
   152  H    0.999955
   153  H    0.999957
   154  H    0.999941
   155  H    0.999948
   156  H    0.999970
   157  H    1.000008
   158  H    0.999987
 Sum of Mulliken charges = 624.00000

 Dipole moment (field-independent basis, Debye):
    X=             -9.0510    Y=              4.4257    Z=             -2.0516  Tot=             10.2818
 Quadrupole moment (field-independent basis, Debye-Ang):
   XX=           -532.1853   YY=              6.5866   ZZ=             -0.2553
   XY=            128.1855   XZ=            -63.9292   YZ=              1.6671

 Normal termination of Gaussian 16 at Thu Oct 14 02:42:25 2021.
