 Gaussian 16, Revision A.03,
 Gaussian 16:  ES64L-G16RevA.03 25-Dec-2016

 --------------------------------------------------------
 #p PBE1PBE/Def2SVP td=(nstates=5) density=(transition=1)
 --------------------------------------------------------

 --------------------------------
 TDDFT excited states in gaussian
 --------------------------------
 Symbolic Z-matrix:
 Charge =  0 Multiplicity = 1

                         Standard orientation:
 ---------------------------------------------------------------------
 Center     Atomic      Atomic             Coordinates (Angstroms)
 Number     Number       Type             X           Y           Z
 ---------------------------------------------------------------------
      1         12           0      -23.812396   -0.839395   -0.021504
      2          6           0      -23.422013    2.432708   -1.193631
      3          6           0      -24.571865    0.564789    3.058994
      4          6           0      -23.758600   -3.858000    1.185311
      5          6           0      -22.783388   -2.000426   -3.205342
      6          7           0      -23.586265    1.297763    0.954343
      7          6           0      -23.580737    2.423351    0.232926
      8          6           0      -23.779830    3.565852    1.171917
      9          6           0      -23.703337    2.942210    2.587116
     10          6           0      -24.000546    1.503150    2.214854
     11          6           0      -22.431526    3.100830    3.422160
     12          6           0      -25.141944    4.290138    0.929189
     13          6           0      -25.159611    5.847484    0.799026
     14          1           0      -24.087318    6.686935    1.561200
     15          7           0      -24.277114   -1.574155    1.872678
     16          6           0      -24.744947   -0.808168    2.932187
     17          6           0      -25.074442   -1.720990    3.978021
     18          6           0      -24.722296   -3.049931    3.509563
     19          6           0      -24.239148   -2.900378    2.144979
     20          6           0      -25.574033   -1.306888    5.379458
     21          6           0      -24.750609   -4.411482    4.261828
     22          8           0      -24.419191   -5.451089    3.786651
     23          6           0      -25.304610   -4.378737    5.672642
     24          7           0      -23.347230   -2.636466   -0.917538
     25          6           0      -23.337878   -3.762406   -0.169505
     26          6           0      -22.951809   -5.042146   -0.961205
     27          6           0      -22.907868   -4.447600   -2.434129
     28          6           0      -23.043449   -2.945163   -2.217009
     29          6           0      -21.549876   -5.668846   -0.396879
     30          6           0      -23.924713   -5.115726   -3.412106
     31          6           0      -25.242340   -4.403987   -3.661575
     32          7           0      -23.241903   -0.017334   -1.899318
     33          6           0      -22.945436   -0.606838   -3.098546
     34          6           0      -22.705948    0.482734   -4.108893
     35          6           0      -22.889741    1.681326   -3.383078
     36          6           0      -23.177813    1.351323   -2.017382
     37          6           0      -22.192454    0.338519   -5.515777
     38          6           0      -22.874269    3.139378   -3.471990
     39          8           0      -22.626716    3.837230   -4.459560
     40          6           0      -23.371475    3.639513   -2.118954
     41          6           0      -22.374271    4.671354   -1.675604
     42          8           0      -21.281343    4.430361   -1.196602
     43          8           0      -22.850632    5.833849   -2.089990
     44          6           0      -21.935203    6.960745   -2.177318
     45          1           0      -24.669609    0.992707    4.058419
     46          1           0      -23.909800   -4.886556    1.518540
     47          1           0      -22.480794   -2.360361   -4.191223
     48          1           0      -22.984668    4.292411    1.007829
     49          1           0      -24.474728    3.439698    3.175105
     50          1           0      -21.634798    3.700920    2.982235
     51          1           0      -22.014111    2.122592    3.662366
     52          1           0      -22.741692    3.574618    4.353252
     53          1           0      -25.923391    3.992848    1.628206
     54          1           0      -25.405853    3.839469   -0.027450
     55          1           0      -26.144649    6.119969    1.180006
     56          1           0      -25.094984    6.107534   -0.257216
     57          1           0      -24.983611   -1.733062    6.190614
     58          1           0      -26.565763   -1.702685    5.598905
     59          1           0      -25.638868   -0.229310    5.535894
     60          1           0      -26.274643   -3.885072    5.734775
     61          1           0      -24.555257   -3.917993    6.316412
     62          1           0      -25.340804   -5.385608    6.088534
     63          1           0      -23.706370   -5.824827   -0.884730
     64          1           0      -21.961955   -4.635299   -2.941985
     65          1           0      -20.824364   -5.452567   -1.181186
     66          1           0      -21.548625   -6.758059   -0.349902
     67          1           0      -21.170098   -5.175267    0.498401
     68          1           0      -24.219089   -6.028536   -2.894016
     69          1           0      -23.469592   -5.393694   -4.362517
     70          1           0      -25.555654   -4.077020   -2.669348
     71          1           0      -25.844998   -5.214538   -4.070678
     72          1           0      -25.280308   -3.488508   -4.251404
     73          1           0      -21.884201   -0.648123   -5.861771
     74          1           0      -21.318625    0.977422   -5.644340
     75          1           0      -22.967779    0.775281   -6.144440
     76          1           0      -24.291829    4.222585   -2.157203
     77          1           0      -20.870262    6.814842   -1.999300
     78          1           0      -22.268393    7.598500   -1.357989
     79          1           0      -22.292917    7.627370   -2.962114
     80         12           0       24.055431   -0.626283    0.013815
     81          6           0       22.007893    2.064299    1.127560
     82          6           0       26.513724    1.662004   -0.723156
     83          6           0       25.785496   -3.239234   -1.034156
     84          6           0       21.237008   -2.830824    0.354135
     85          7           0       24.233555    1.691452    0.119778
     86          6           0       23.278738    2.496842    0.713059
     87          6           0       23.878839    3.944520    0.726318
     88          6           0       25.357910    3.827992    0.073816
     89          6           0       25.362044    2.321364   -0.204296
     90          6           0       25.645378    4.752377   -1.127582
     91          6           0       23.808201    4.741683    2.093918
     92          6           0       23.070589    6.048228    2.047892
     93          1           0       22.952959    6.897708    0.810011
     94          7           0       26.029358   -0.788657   -0.685994
     95          6           0       26.850608    0.268767   -0.920936
     96          6           0       28.137172   -0.295250   -1.239043
     97          6           0       27.932874   -1.678248   -1.434492
     98          6           0       26.514796   -2.007470   -1.076711
     99          6           0       29.345635    0.627244   -1.471603
    100          6           0       28.896763   -2.659606   -2.029497
    101          8           0       28.564127   -3.845297   -2.265591
    102          6           0       30.259440   -2.206178   -2.402265
    103          7           0       23.493383   -2.746628   -0.341707
    104          6           0       24.403712   -3.588262   -0.688964
    105          6           0       23.973812   -5.149597   -0.756690
    106          6           0       22.507488   -4.989772   -0.327152
    107          6           0       22.382464   -3.504447   -0.091439
    108          6           0       24.193162   -5.693739   -2.215777
    109          6           0       22.039700   -5.819619    0.919767
    110          6           0       22.558855   -5.348422    2.298962
    111          7           0       22.075226   -0.413429    0.476934
    112          6           0       21.070984   -1.407923    0.540937
    113          6           0       19.849362   -0.779248    1.061640
    114          6           0       20.175946    0.575228    1.311838
    115          6           0       21.562564    0.743045    0.978906
    116          6           0       18.495880   -1.507690    1.316715
    117          6           0       19.637889    1.736579    1.789638
    118          8           0       18.516544    2.029112    2.151850
    119          6           0       20.785465    2.784609    1.770113
    120          6           0       20.332844    3.944675    1.037647
    121          8           0       20.434254    4.090743   -0.185690
    122          8           0       19.560050    4.758644    1.874362
    123          6           0       18.884678    5.882396    1.179279
    124          1           0       27.257149    2.285743   -1.224641
    125          1           0       26.314011   -4.054047   -1.533527
    126          1           0       20.351266   -3.457006    0.479496
    127          1           0       23.120238    4.427841    0.112025
    128          1           0       26.092124    4.147271    0.812135
    129          1           0       26.529092    5.363750   -0.940466
    130          1           0       24.834790    5.405864   -1.449630
    131          1           0       25.841305    4.059837   -1.946183
    132          1           0       24.814163    4.916996    2.475744
    133          1           0       23.244091    4.099098    2.769955
    134          1           0       23.680312    6.762347    2.602542
    135          1           0       22.080959    5.886193    2.473601
    136          1           0       29.181406    1.628037   -1.071516
    137          1           0       29.555642    0.694417   -2.538298
    138          1           0       30.163880    0.138174   -0.944008
    139          1           0       30.717613   -1.807307   -1.497214
    140          1           0       30.223597   -1.391613   -3.126677
    141          1           0       30.818230   -3.014426   -2.872339
    142          1           0       24.528494   -5.745890   -0.031796
    143          1           0       21.858228   -5.130894   -1.191542
    144          1           0       24.065604   -4.858027   -2.903773
    145          1           0       23.404880   -6.416483   -2.429317
    146          1           0       25.146407   -6.169874   -2.446830
    147          1           0       22.187161   -6.882638    0.731755
    148          1           0       20.951066   -5.782079    0.944012
    149          1           0       23.548936   -4.894348    2.322111
    150          1           0       22.467872   -6.181753    2.996575
    151          1           0       21.822574   -4.620957    2.640350
    152          1           0       18.084781   -1.313859    2.307489
    153          1           0       18.546942   -2.583095    1.150200
    154          1           0       17.710781   -0.999761    0.756035
    155          1           0       20.890856    3.009894    2.830849
    156          1           0       18.095545    5.510247    0.526421
    157          1           0       19.534584    6.466867    0.529047
    158          1           0       18.617295    6.602994    1.952352
 ---------------------------------------------------------------------

 SCF Done:  E(RPBE1PBE) =  -4067.37379638     A.U. after   16 cycles

 Excitation energies and oscillator strengths:

 Excited State   1:      Singlet-A      1.8677 eV  663.84 nm  f=0.3667  <S**2>=0.000
     309 -> 315        0.18704
     311 -> 313        0.68781
 This state for optimization and/or second-order correction.
 Total Energy, E(TD-HF/TD-DFT) =  -4067.30516051
 Copying the excited state density for this state as the 1-particle RhoCI density.

 Excited State   2:      Singlet-A      1.8764 eV  660.75 nm  f=0.3851  <S**2>=0.000
     310 -> 316       -0.18231
     312 -> 314        0.69070
     312 <- 314       -0.10328

 Excited State   3:      Singlet-A      2.0028 eV  619.04 nm  f=0.0000  <S**2>=0.000
     312 -> 313        0.70711

 Excited State   4:      Singlet-A      2.0647 eV  600.50 nm  f=0.0000  <S**2>=0.000
     311 -> 314        0.70711

 Excited State   5:      Singlet-A      2.2077 eV  561.59 nm  f=0.0944  <S**2>=0.000
     310 -> 314        0.65479
     312 -> 316        0.25272

 The electronic state is 1-A.
 Alpha  occ. eigenvalues --  -46.93190 -46.92160 -19.26787 -19.24994 -19.19732
 Alpha  occ. eigenvalues --  -19.19587 -19.19371 -19.18968 -19.18684 -19.18122
 Alpha  occ. eigenvalues --  -14.42049 -14.41420 -14.41369 -14.40964 -14.39520
 Alpha  occ. eigenvalues --  -14.39285 -14.38859 -14.38514 -10.36008 -10.35670
 Alpha  occ. eigenvalues --  -10.32377 -10.31874 -10.31775 -10.30674 -10.29420
 Alpha  occ. eigenvalues --  -10.29191 -10.29157 -10.29006 -10.28818 -10.28792
 Alpha  occ. eigenvalues --  -10.28660 -10.28648 -10.28216 -10.28157 -10.28087
 Alpha  occ. eigenvalues --  -10.28070 -10.28059 -10.27597 -10.27433 -10.26930
 Alpha  occ. eigenvalues --  -10.26924 -10.26810 -10.26745 -10.26737 -10.26606
 Alpha  occ. eigenvalues --  -10.26562 -10.26294 -10.26156 -10.26115 -10.25983
 Alpha  occ. eigenvalues --  -10.25980 -10.25964 -10.25850 -10.25735 -10.25495
 Alpha  occ. eigenvalues --  -10.25464 -10.25385 -10.25298 -10.25294 -10.25122
 Alpha  occ. eigenvalues --  -10.25002 -10.24924 -10.24874 -10.24861 -10.24818
 Alpha  occ. eigenvalues --  -10.24694 -10.24548 -10.24306 -10.24298 -10.24269
 Alpha  occ. eigenvalues --  -10.24214 -10.24209 -10.23932 -10.23756 -10.23748
 Alpha  occ. eigenvalues --  -10.23735 -10.23663 -10.23516 -10.23401 -10.23375
 Alpha  occ. eigenvalues --  -10.23327 -10.23269 -10.22879 -10.22618 -10.22441
 Alpha  occ. eigenvalues --  -10.22003  -3.15113  -3.14200  -1.87967  -1.87522
 Alpha  occ. eigenvalues --   -1.87292  -1.87049  -1.86609  -1.86383  -1.13003
 Alpha  occ. eigenvalues --   -1.09154  -1.06275  -1.04306  -1.04099  -1.03331
 Alpha  occ. eigenvalues --   -1.02856  -1.01190  -1.00730  -0.99580  -0.98377
 Alpha  occ. eigenvalues --   -0.98177  -0.97585  -0.97159  -0.96668  -0.96589
 Alpha  occ. eigenvalues --   -0.87550  -0.86859  -0.84054  -0.83002  -0.82842
 Alpha  occ. eigenvalues --   -0.82387  -0.82373  -0.82035  -0.81405  -0.81390
 Alpha  occ. eigenvalues --   -0.81101  -0.80412  -0.79924  -0.79839  -0.78727
 Alpha  occ. eigenvalues --   -0.78548  -0.77969  -0.77687  -0.76859  -0.76833
 Alpha  occ. eigenvalues --   -0.76207  -0.75722  -0.75093  -0.75026  -0.74387
 Alpha  occ. eigenvalues --   -0.74282  -0.72431  -0.72219  -0.71877  -0.71591
 Alpha  occ. eigenvalues --   -0.71314  -0.70775  -0.70577  -0.70092  -0.69484
 Alpha  occ. eigenvalues --   -0.69311  -0.67067  -0.67064  -0.66171  -0.65983
 Alpha  occ. eigenvalues --   -0.64780  -0.63851  -0.63533  -0.63292  -0.62360
 Alpha  occ. eigenvalues --   -0.62258  -0.61215  -0.60603  -0.59785  -0.59703
 Alpha  occ. eigenvalues --   -0.59428  -0.59421  -0.59156  -0.59112  -0.58854
 Alpha  occ. eigenvalues --   -0.58775  -0.57282  -0.56084  -0.54588  -0.54386
 Alpha  occ. eigenvalues --   -0.54175  -0.54114  -0.53745  -0.53256  -0.53085
 Alpha  occ. eigenvalues --   -0.52704  -0.52447  -0.52358  -0.52120  -0.51849
 Alpha  occ. eigenvalues --   -0.51373  -0.50825  -0.50561  -0.50553  -0.49860
 Alpha  occ. eigenvalues --   -0.49467  -0.49429  -0.49363  -0.49186  -0.48160
 Alpha  occ. eigenvalues --   -0.48133  -0.47817  -0.47639  -0.47549  -0.47435
 Alpha  occ. eigenvalues --   -0.47301  -0.47195  -0.47187  -0.46590  -0.46501
 Alpha  occ. eigenvalues --   -0.46261  -0.46102  -0.45896  -0.45816  -0.45728
 Alpha  occ. eigenvalues --   -0.45499  -0.45476  -0.44822  -0.44637  -0.44453
 Alpha  occ. eigenvalues --   -0.44265  -0.44100  -0.43944  -0.43833  -0.43764
 Alpha  occ. eigenvalues --   -0.43757  -0.43516  -0.43451  -0.43340  -0.43255
 Alpha  occ. eigenvalues --   -0.43206  -0.43054  -0.42803  -0.42647  -0.42637
 Alpha  occ. eigenvalues --   -0.42485  -0.42179  -0.42005  -0.41910  -0.41535
 Alpha  occ. eigenvalues --   -0.41426  -0.41318  -0.41222  -0.41121  -0.40885
 Alpha  occ. eigenvalues --   -0.40834  -0.40685  -0.40601  -0.40597  -0.40361
 Alpha  occ. eigenvalues --   -0.40276  -0.40246  -0.39916  -0.39787  -0.39669
 Alpha  occ. eigenvalues --   -0.39548  -0.39466  -0.39162  -0.39107  -0.38647
 Alpha  occ. eigenvalues --   -0.38468  -0.38461  -0.38112  -0.38054  -0.38023
 Alpha  occ. eigenvalues --   -0.37982  -0.37908  -0.37691  -0.37636  -0.37528
 Alpha  occ. eigenvalues --   -0.37383  -0.37197  -0.37006  -0.36751  -0.36677
 Alpha  occ. eigenvalues --   -0.36663  -0.36502  -0.36492  -0.36185  -0.36078
 Alpha  occ. eigenvalues --   -0.36057  -0.35975  -0.35956  -0.35543  -0.35495
 Alpha  occ. eigenvalues --   -0.35124  -0.35020  -0.34655  -0.34522  -0.34258
 Alpha  occ. eigenvalues --   -0.34053  -0.33256  -0.32160  -0.32114  -0.31926
 Alpha  occ. eigenvalues --   -0.31709  -0.31697  -0.31489  -0.31298  -0.31170
 Alpha  occ. eigenvalues --   -0.31065  -0.30561  -0.29430  -0.29126  -0.29080
 Alpha  occ. eigenvalues --   -0.28664  -0.28511  -0.28449  -0.26850  -0.26464
 Alpha  occ. eigenvalues --   -0.25997  -0.25746  -0.25615  -0.25496  -0.25391
 Alpha  occ. eigenvalues --   -0.25354  -0.25176  -0.24719  -0.20704  -0.20699
 Alpha  occ. eigenvalues --   -0.18832  -0.18688
 Alpha virt. eigenvalues --   -0.11053  -0.10963  -0.05259  -0.04990  -0.04028
 Alpha virt. eigenvalues --   -0.03925  -0.02064  -0.01598  -0.00163   0.00030
 Alpha virt. eigenvalues --    0.00374   0.01102   0.01239   0.01485   0.01522

 Mulliken charges:
               1
     1  Mg  11.999994
     2  C    6.000055
     3  C    5.999936
     4  C    5.999920
     5  C    6.000043
     6  N    6.999964
     7  C    5.999888
     8  C    6.000035
     9  C    5.999953
    10  C    6.000169
    11  C    5.999983
    12  C    6.000014
    13  C    6.000007
    14  H    0.999921
    15  N    6.999947
    16  C    6.000261
    17  C    6.000136
    18  C    6.000070
    19  C    6.000223
    20  C    5.999936
    21  C    6.000134
    22  O    8.000127
    23  C    5.999932
    24  N    7.000057
    25  C    6.000176
    26  C    5.999989
    27  C    6.000053
    28  C    5.999844
    29  C    5.999988
    30  C    6.000030
    31  C    6.000017
    32  N    6.999933
    33  C    5.999874
    34  C    5.999843
    35  C    6.000045
    36  C    5.999814
    37  C    6.000013
    38  C    5.999831
    39  O    7.999853
    40  C    5.999940
    41  C    6.000006
    42  O    7.999889
    43  O    8.000005
    44  C    6.000035
    45  H    1.000044
    46  H    1.000012
    47  H    0.999953
    48  H    0.999973
    49  H    1.000039
    50  H    1.000033
    51  H    0.999959
    52  H    1.000012
    53  H    0.999953
    54  H    1.000063
    55  H    1.000009
    56  H    1.000036
    57  H    1.000074
    58  H    1.000139
    59  H    1.000113
    60  H    1.000064
    61  H    1.000020
    62  H    1.000109
    63  H    1.000011
    64  H    0.999955
    65  H    1.000015
    66  H    1.000019
    67  H    0.999940
    68  H    0.999954
    69  H    0.999998
    70  H    0.999953
    71  H    1.000014
    72  H    1.000054
    73  H    0.999885
    74  H    0.999866
    75  H    0.999930
    76  H    1.000010
    77  H    0.999928
    78  H    0.999971
    79  H    1.000004
    80  Mg  11.999523
    81  C    5.990619
    82  C    6.016121
    83  C    6.000552
    84  C    5.984111
    85  N    6.997130
    86  C    6.021803
    87  C    5.993440
    88  C    6.015610
    89  C    5.965937
    90  C    5.999349
    91  C    5.998665
    92  C    5.997924
    93  H    1.004673
    94  N    7.012877
    95  C    5.960868
    96  C    5.982380
    97  C    5.985099
    98  C    5.973554
    99  C    6.000987
   100  C    5.987573
   101  O    7.971668
   102  C    6.004060
   103  N    6.990562
   104  C    5.974015
   105  C    6.006729
   106  C    5.992183
   107  C    6.038662
   108  C    6.004281
   109  C    5.995961
   110  C    5.996891
   111  N    6.998715
   112  C    6.042290
   113  C    6.026011
   114  C    6.001671
   115  C    6.025976
   116  C    5.999080
   117  C    6.014478
   118  O    8.028077
   119  C    6.000881
   120  C    6.004702
   121  O    8.008779
   122  O    7.999672
   123  C    5.997332
   124  H    0.995461
   125  H    0.993047
   126  H    1.007610
   127  H    0.997345
   128  H    0.996243
   129  H    0.998048
   130  H    0.990026
   131  H    1.003346
   132  H    1.007833
   133  H    0.994774
   134  H    1.003853
   135  H    0.995259
   136  H    0.984027
   137  H    0.983563
   138  H    0.986495
   139  H    0.992930
   140  H    0.992978
   141  H    0.986248
   142  H    0.999674
   143  H    1.001801
   144  H    1.000339
   145  H    0.989600
   146  H    1.004007
   147  H    1.008882
   148  H    0.996990
   149  H    1.010651
   150  H    1.004532
   151  H    0.992039
   152  H    1.017259
   153  H    1.017188
   154  H    1.016873
   155  H    1.007508
   156  H    1.001080
   157  H    1.006052
   158  H    1.004966
 Sum of Mulliken charges = 624.00000

 Dipole moment (field-independent basis, Debye):
    X=             -9.5450    Y=              1.2071    Z=              3.3145  Tot=             10.1759
 Quadrupole moment (field-independent basis, Debye-Ang):
   XX=           -455.9331   YY=              1.3617   ZZ=             -0.7149
   XY=             35.2107   XZ=             78.6872   YZ=             -2.0009

 Normal termination of Gaussian 16 at Fri Oct 15 18:30:01 2021.
