 Gaussian 16, Revision A.03,
 Gaussian 16:  ES64L-G16RevA.03 25-Dec-2016

 --------------------------------------------------------
 #p PBE1PBE/Def2SVP td=(nstates=5) density=(transition=1)
 --------------------------------------------------------

 --------------------------------
 TDDFT excited states in gaussian
 --------------------------------
 Symbolic Z-matrix:
 Charge =  0 Multiplicity = 1

                         Standard orientation:
 ---------------------------------------------------------------------
 Center     Atomic      Atomic             Coordinates (Angstroms)
 Number     Number       Type             X           Y           Z
 ---------------------------------------------------------------------
      1         12           0      -17.614089   -0.753928    0.099971
      2          6           0      -17.521317    2.437455   -1.169000
      3          6           0      -17.102520    0.632540    3.336579
      4          6           0      -17.144162   -3.826556    1.429555
      5          6           0      -17.760982   -2.070378   -2.981590
      6          7           0      -17.338488    1.313743    0.974573
      7          6           0      -17.330010    2.453485    0.216103
      8          6           0      -17.238403    3.700580    1.098318
      9          6           0      -16.905495    3.038673    2.514443
     10          6           0      -17.122580    1.573227    2.274641
     11          6           0      -15.493478    3.424227    3.089991
     12          6           0      -18.581673    4.563346    1.130533
     13          6           0      -18.583647    6.070555    1.042734
     14          1           0      -17.631767    6.830485    1.896544
     15          7           0      -17.229554   -1.537368    2.128353
     16          6           0      -17.237564   -0.844959    3.288612
     17          6           0      -17.213007   -1.716060    4.415569
     18          6           0      -17.257528   -3.045567    3.889193
     19          6           0      -17.139055   -2.823651    2.417101
     20          6           0      -17.112706   -1.117254    5.781362
     21          6           0      -17.183547   -4.367038    4.634963
     22          8           0      -16.949340   -5.436657    4.063874
     23          6           0      -17.379903   -4.407992    6.140285
     24          7           0      -17.315041   -2.710374   -0.686714
     25          6           0      -17.271788   -3.828949    0.083960
     26          6           0      -17.367612   -5.084629   -0.780977
     27          6           0      -17.746563   -4.488572   -2.189838
     28          6           0      -17.610251   -2.997996   -1.949505
     29          6           0      -16.219361   -6.136273   -0.808495
     30          6           0      -19.134908   -4.942565   -2.806926
     31          6           0      -20.383908   -4.119280   -2.573377
     32          7           0      -17.538563   -0.026384   -1.707658
     33          6           0      -17.750002   -0.624073   -2.924186
     34          6           0      -17.695472    0.280939   -4.013776
     35          6           0      -17.655815    1.516199   -3.374689
     36          6           0      -17.585162    1.275195   -1.978439
     37          6           0      -17.786407    0.102372   -5.523672
     38          6           0      -17.610021    2.901794   -3.548357
     39          8           0      -17.571760    3.528780   -4.591034
     40          6           0      -17.493482    3.637755   -2.098007
     41          6           0      -16.249417    4.397279   -2.081430
     42          8           0      -15.099185    3.918625   -2.134736
     43          8           0      -16.437678    5.743212   -2.051856
     44          6           0      -15.302791    6.624176   -2.349662
     45          1           0      -17.031451    1.174511    4.281528
     46          1           0      -17.281893   -4.825292    1.848599
     47          1           0      -18.169839   -2.424065   -3.929605
     48          1           0      -16.478715    4.361902    0.679675
     49          1           0      -17.587530    3.391497    3.288219
     50          1           0      -15.651205    3.913486    4.050549
     51          1           0      -15.033317    4.024451    2.304890
     52          1           0      -14.859252    2.583131    3.371660
     53          1           0      -18.998002    4.265482    2.093007
     54          1           0      -19.333370    4.139956    0.465192
     55          1           0      -19.600528    6.448337    1.148959
     56          1           0      -18.225696    6.300698    0.039887
     57          1           0      -17.845703   -1.660616    6.376546
     58          1           0      -17.435909   -0.076017    5.772341
     59          1           0      -16.133063   -1.163113    6.258291
     60          1           0      -18.193391   -3.776866    6.499300
     61          1           0      -16.414842   -4.305150    6.638346
     62          1           0      -17.709922   -5.428735    6.335701
     63          1           0      -18.165519   -5.650852   -0.300042
     64          1           0      -17.098157   -4.848058   -2.987980
     65          1           0      -15.703339   -6.106653   -1.768046
     66          1           0      -16.696688   -7.109467   -0.695033
     67          1           0      -15.569166   -5.883406    0.028284
     68          1           0      -19.327298   -5.944291   -2.425106
     69          1           0      -19.049616   -5.013253   -3.891518
     70          1           0      -21.202897   -4.725589   -2.185687
     71          1           0      -20.738992   -3.601684   -3.465498
     72          1           0      -20.088935   -3.372081   -1.836614
     73          1           0      -17.952857   -0.951956   -5.747850
     74          1           0      -16.865829    0.464088   -5.982405
     75          1           0      -18.621269    0.698104   -5.891665
     76          1           0      -18.334224    4.328558   -2.167905
     77          1           0      -15.589915    7.614133   -2.704396
     78          1           0      -14.520735    6.189722   -2.971625
     79          1           0      -14.884642    6.876973   -1.375196
     80         12           0       17.685905   -0.545318   -0.252903
     81          6           0       15.185402    1.809558    0.043757
     82          6           0       19.991300    2.132817    0.330744
     83          6           0       20.161092   -2.589563   -0.842542
     84          6           0       15.372067   -2.960927   -1.133917
     85          7           0       17.553767    1.802073   -0.061145
     86          6           0       16.429369    2.425445    0.248755
     87          6           0       16.719867    3.793599    0.927988
     88          6           0       18.197077    4.019161    0.450578
     89          6           0       18.670169    2.576439    0.211087
     90          6           0       18.279091    4.898642   -0.847506
     91          6           0       16.573871    3.556631    2.447640
     92          6           0       16.668169    4.796898    3.346681
     93          1           0       17.139014    6.119034    2.774783
     94          7           0       19.757239   -0.386691   -0.173314
     95          6           0       20.497863    0.808768    0.123835
     96          6           0       21.886670    0.393268    0.265358
     97          6           0       21.924350   -1.016727    0.030320
     98          6           0       20.578477   -1.406694   -0.387507
     99          6           0       23.073564    1.347530    0.663917
    100          6           0       23.151526   -1.970280    0.210116
    101          8           0       23.037091   -3.110386   -0.148054
    102          6           0       24.436328   -1.457789    0.775263
    103          7           0       17.749425   -2.549218   -0.816094
    104          6           0       18.912498   -3.212898   -1.003289
    105          6           0       18.717105   -4.643726   -1.503332
    106          6           0       17.178362   -4.789373   -1.457543
    107          6           0       16.725883   -3.313515   -1.108061
    108          6           0       19.323394   -4.958820   -2.920048
    109          6           0       16.611634   -5.896741   -0.606125
    110          6           0       17.109219   -6.134564    0.840050
    111          7           0       15.689985   -0.650125   -0.531070
    112          6           0       14.866339   -1.683342   -0.875692
    113          6           0       13.506522   -1.198112   -0.769388
    114          6           0       13.533662    0.183932   -0.375510
    115          6           0       14.924415    0.456256   -0.260833
    116          6           0       12.295428   -2.032954   -1.046740
    117          6           0       12.776132    1.363405   -0.123135
    118          8           0       11.551325    1.612339   -0.157898
    119          6           0       13.906799    2.530218   -0.108098
    120          6           0       13.476660    3.536028    0.960977
    121          8           0       13.221065    3.279806    2.075107
    122          8           0       13.401900    4.766896    0.373613
    123          6           0       13.369706    5.930793    1.235206
    124          1           0       20.688767    2.964976    0.442976
    125          1           0       20.948871   -3.300353   -1.100752
    126          1           0       14.594127   -3.670590   -1.420521
    127          1           0       16.102667    4.595173    0.522489
    128          1           0       18.677015    4.467334    1.320912
    129          1           0       18.610823    5.901993   -0.583258
    130          1           0       17.289570    4.909236   -1.304896
    131          1           0       19.018023    4.545049   -1.566626
    132          1           0       17.406531    2.925526    2.757178
    133          1           0       15.704457    2.944448    2.685364
    134          1           0       17.082500    4.581971    4.331941
    135          1           0       15.642506    4.963231    3.676529
    136          1           0       23.920348    1.263640   -0.017919
    137          1           0       23.320648    1.090085    1.693730
    138          1           0       22.711004    2.374744    0.718137
    139          1           0       24.848486   -2.355091    1.237401
    140          1           0       24.285358   -0.761935    1.599757
    141          1           0       25.090394   -0.821894    0.178723
    142          1           0       19.203886   -5.270026   -0.756074
    143          1           0       16.732387   -4.904903   -2.445374
    144          1           0       18.633304   -5.665220   -3.380665
    145          1           0       20.271531   -5.432121   -2.664008
    146          1           0       19.531377   -4.035040   -3.459841
    147          1           0       17.048416   -6.759281   -1.108340
    148          1           0       15.526249   -5.985687   -0.549080
    149          1           0       17.583810   -7.087072    1.072081
    150          1           0       16.277959   -6.178392    1.543706
    151          1           0       17.832809   -5.361954    1.100446
    152          1           0       11.446056   -1.359356   -0.936641
    153          1           0       12.189661   -2.802558   -0.280955
    154          1           0       12.320477   -2.596134   -1.979175
    155          1           0       13.913406    2.922185   -1.125372
    156          1           0       12.466428    6.297454    0.747401
    157          1           0       14.285832    6.521313    1.211689
    158          1           0       13.133382    5.714074    2.277301
 ---------------------------------------------------------------------

 SCF Done:  E(RPBE1PBE) =  -4067.39549084     A.U. after   16 cycles

 Excitation energies and oscillator strengths:

 Excited State   1:      Singlet-A      1.8776 eV  660.35 nm  f=0.3936  <S**2>=0.000
     309 -> 316       -0.17168
     311 -> 313        0.69336
     311 <- 313       -0.11026
 This state for optimization and/or second-order correction.
 Total Energy, E(TD-HF/TD-DFT) =  -4067.32649189
 Copying the excited state density for this state as the 1-particle RhoCI density.

 Excited State   2:      Singlet-A      1.8791 eV  659.79 nm  f=0.0000  <S**2>=0.000
     312 -> 313        0.70711

 Excited State   3:      Singlet-A      1.8859 eV  657.43 nm  f=0.3663  <S**2>=0.000
     310 -> 315       -0.19023
     312 -> 314        0.68803
     312 <- 314       -0.10012

 Excited State   4:      Singlet-A      2.1043 eV  589.20 nm  f=0.0000  <S**2>=0.000
     311 -> 314        0.70710

 Excited State   5:      Singlet-A      2.2138 eV  560.05 nm  f=0.0921  <S**2>=0.000
     310 -> 314        0.64976
     312 -> 315        0.26392

 The electronic state is 1-A.
 Alpha  occ. eigenvalues --  -46.92457 -46.91630 -19.25643 -19.24989 -19.20363
 Alpha  occ. eigenvalues --  -19.19322 -19.19161 -19.19002 -19.18874 -19.18695
 Alpha  occ. eigenvalues --  -14.41577 -14.41218 -14.41141 -14.40997 -14.39131
 Alpha  occ. eigenvalues --  -14.39105 -14.38982 -14.38889 -10.35865 -10.35834
 Alpha  occ. eigenvalues --  -10.32432 -10.32398 -10.32120 -10.31685 -10.28798
 Alpha  occ. eigenvalues --  -10.28776 -10.28631 -10.28480 -10.28346 -10.28339
 Alpha  occ. eigenvalues --  -10.28256 -10.28217 -10.28152 -10.28124 -10.27741
 Alpha  occ. eigenvalues --  -10.27644 -10.27643 -10.27633 -10.27190 -10.26901
 Alpha  occ. eigenvalues --  -10.26693 -10.26664 -10.26250 -10.26246 -10.26229
 Alpha  occ. eigenvalues --  -10.26134 -10.26015 -10.25883 -10.25864 -10.25842
 Alpha  occ. eigenvalues --  -10.25770 -10.25746 -10.25703 -10.25600 -10.25593
 Alpha  occ. eigenvalues --  -10.25372 -10.25323 -10.25308 -10.25288 -10.25248
 Alpha  occ. eigenvalues --  -10.25217 -10.25097 -10.25093 -10.25084 -10.24438
 Alpha  occ. eigenvalues --  -10.24300 -10.24287 -10.24246 -10.24227 -10.24154
 Alpha  occ. eigenvalues --  -10.24048 -10.23844 -10.23843 -10.23785 -10.23725
 Alpha  occ. eigenvalues --  -10.23515 -10.23498 -10.23359 -10.23348 -10.23156
 Alpha  occ. eigenvalues --  -10.23116 -10.22782 -10.22656 -10.22606 -10.22413
 Alpha  occ. eigenvalues --  -10.22369  -3.14646  -3.13845  -1.87469  -1.86981
 Alpha  occ. eigenvalues --   -1.86918  -1.86687  -1.86236  -1.86059  -1.12310
 Alpha  occ. eigenvalues --   -1.10562  -1.06300  -1.04667  -1.04578  -1.04087
 Alpha  occ. eigenvalues --   -1.02637  -1.00569  -1.00046  -0.99843  -0.99279
 Alpha  occ. eigenvalues --   -0.98734  -0.98624  -0.98084  -0.97651  -0.96786
 Alpha  occ. eigenvalues --   -0.87303  -0.86946  -0.83628  -0.83274  -0.83020
 Alpha  occ. eigenvalues --   -0.82737  -0.82491  -0.82410  -0.82126  -0.81647
 Alpha  occ. eigenvalues --   -0.81619  -0.80691  -0.80671  -0.79917  -0.78535
 Alpha  occ. eigenvalues --   -0.78325  -0.77994  -0.77969  -0.76890  -0.76685
 Alpha  occ. eigenvalues --   -0.75963  -0.75932  -0.75699  -0.75449  -0.74574
 Alpha  occ. eigenvalues --   -0.74561  -0.72623  -0.72301  -0.71756  -0.71636
 Alpha  occ. eigenvalues --   -0.71359  -0.71043  -0.70502  -0.70147  -0.69864
 Alpha  occ. eigenvalues --   -0.69803  -0.67969  -0.67063  -0.66420  -0.65945
 Alpha  occ. eigenvalues --   -0.64602  -0.63978  -0.63605  -0.63262  -0.62517
 Alpha  occ. eigenvalues --   -0.62470  -0.61492  -0.60653  -0.59992  -0.59637
 Alpha  occ. eigenvalues --   -0.59628  -0.59387  -0.59193  -0.58788  -0.58722
 Alpha  occ. eigenvalues --   -0.58599  -0.56854  -0.56796  -0.55048  -0.54679
 Alpha  occ. eigenvalues --   -0.54363  -0.54163  -0.53686  -0.53608  -0.53343
 Alpha  occ. eigenvalues --   -0.52824  -0.52695  -0.52394  -0.52342  -0.51843
 Alpha  occ. eigenvalues --   -0.50805  -0.50729  -0.50552  -0.50211  -0.49820
 Alpha  occ. eigenvalues --   -0.49819  -0.49543  -0.49289  -0.48755  -0.48560
 Alpha  occ. eigenvalues --   -0.48245  -0.48039  -0.47812  -0.47721  -0.47634
 Alpha  occ. eigenvalues --   -0.47190  -0.47081  -0.46965  -0.46712  -0.46708
 Alpha  occ. eigenvalues --   -0.46574  -0.46568  -0.46228  -0.45942  -0.45343
 Alpha  occ. eigenvalues --   -0.45330  -0.45227  -0.45019  -0.44775  -0.44738
 Alpha  occ. eigenvalues --   -0.44597  -0.44422  -0.44238  -0.44107  -0.44084
 Alpha  occ. eigenvalues --   -0.43905  -0.43871  -0.43828  -0.43626  -0.43373
 Alpha  occ. eigenvalues --   -0.43326  -0.43316  -0.43122  -0.42883  -0.42768
 Alpha  occ. eigenvalues --   -0.42761  -0.42600  -0.42483  -0.42275  -0.42090
 Alpha  occ. eigenvalues --   -0.41774  -0.41555  -0.41506  -0.41388  -0.41221
 Alpha  occ. eigenvalues --   -0.41162  -0.40889  -0.40678  -0.40648  -0.40612
 Alpha  occ. eigenvalues --   -0.40567  -0.40201  -0.40052  -0.39902  -0.39714
 Alpha  occ. eigenvalues --   -0.39660  -0.39490  -0.39186  -0.38793  -0.38732
 Alpha  occ. eigenvalues --   -0.38667  -0.38353  -0.38161  -0.38159  -0.38132
 Alpha  occ. eigenvalues --   -0.37926  -0.37752  -0.37693  -0.37683  -0.37560
 Alpha  occ. eigenvalues --   -0.37189  -0.37075  -0.36913  -0.36791  -0.36733
 Alpha  occ. eigenvalues --   -0.36642  -0.36529  -0.36367  -0.36318  -0.36275
 Alpha  occ. eigenvalues --   -0.36139  -0.35956  -0.35800  -0.35421  -0.35067
 Alpha  occ. eigenvalues --   -0.34918  -0.34708  -0.34432  -0.34419  -0.34385
 Alpha  occ. eigenvalues --   -0.33393  -0.33297  -0.33165  -0.32773  -0.32504
 Alpha  occ. eigenvalues --   -0.32280  -0.32136  -0.31626  -0.31257  -0.31069
 Alpha  occ. eigenvalues --   -0.30849  -0.30528  -0.30100  -0.29699  -0.29097
 Alpha  occ. eigenvalues --   -0.28797  -0.28596  -0.27951  -0.26938  -0.26927
 Alpha  occ. eigenvalues --   -0.26492  -0.26078  -0.26005  -0.25591  -0.25508
 Alpha  occ. eigenvalues --   -0.25349  -0.25206  -0.24958  -0.20781  -0.20721
 Alpha  occ. eigenvalues --   -0.19026  -0.18700
 Alpha virt. eigenvalues --   -0.11419  -0.10910  -0.05316  -0.04736  -0.03977
 Alpha virt. eigenvalues --   -0.03893  -0.01883  -0.01777  -0.00926   0.00208
 Alpha virt. eigenvalues --    0.00311   0.01320   0.01508   0.01860   0.01863

 Mulliken charges:
               1
     1  Mg  11.998370
     2  C    6.020479
     3  C    5.995350
     4  C    5.974281
     5  C    5.994271
     6  N    7.007353
     7  C    5.971740
     8  C    6.009806
     9  C    5.987428
    10  C    6.030519
    11  C    5.996262
    12  C    6.004445
    13  C    6.000271
    14  H    0.993530
    15  N    6.996786
    16  C    6.036209
    17  C    6.019092
    18  C    6.017745
    19  C    6.033011
    20  C    5.995982
    21  C    6.012188
    22  O    8.031167
    23  C    5.993541
    24  N    6.985172
    25  C    6.036098
    26  C    5.990758
    27  C    6.009714
    28  C    5.979243
    29  C    6.000251
    30  C    6.002616
    31  C    6.004514
    32  N    7.000192
    33  C    5.972962
    34  C    5.970352
    35  C    5.999338
    36  C    5.973419
    37  C    6.000841
    38  C    5.984392
    39  O    7.970493
    40  C    5.991860
    41  C    5.996845
    42  O    7.994315
    43  O    7.997735
    44  C    6.003001
    45  H    1.013092
    46  H    1.001577
    47  H    0.987170
    48  H    1.002177
    49  H    1.002336
    50  H    1.003377
    51  H    1.013994
    52  H    0.997807
    53  H    0.988924
    54  H    1.004485
    55  H    0.998523
    56  H    1.005535
    57  H    1.015831
    58  H    1.015090
    59  H    1.020832
    60  H    1.006854
    61  H    1.009684
    62  H    1.014080
    63  H    0.996831
    64  H    0.997124
    65  H    1.008818
    66  H    1.001635
    67  H    0.994439
    68  H    0.988832
    69  H    1.000720
    70  H    0.990684
    71  H    1.002774
    72  H    0.998909
    73  H    0.984505
    74  H    0.983070
    75  H    0.983906
    76  H    0.994224
    77  H    0.996059
    78  H    0.999081
    79  H    0.993086
    80  Mg  11.999980
    81  C    6.000012
    82  C    5.999902
    83  C    5.999947
    84  C    5.999986
    85  N    6.999945
    86  C    5.999872
    87  C    6.000062
    88  C    5.999946
    89  C    6.000147
    90  C    5.999997
    91  C    6.000044
    92  C    6.000009
    93  H    1.000033
    94  N    6.999886
    95  C    6.000185
    96  C    6.000038
    97  C    6.000069
    98  C    6.000147
    99  C    6.000000
   100  C    6.000060
   101  O    8.000062
   102  C    5.999992
   103  N    7.000024
   104  C    6.000210
   105  C    5.999961
   106  C    5.999991
   107  C    5.999903
   108  C    6.000008
   109  C    6.000053
   110  C    6.000008
   111  N    6.999983
   112  C    5.999944
   113  C    5.999933
   114  C    6.000039
   115  C    5.999902
   116  C    6.000014
   117  C    5.999858
   118  O    7.999875
   119  C    5.999985
   120  C    5.999953
   121  O    7.999918
   122  O    8.000049
   123  C    5.999978
   124  H    1.000102
   125  H    1.000009
   126  H    0.999936
   127  H    1.000042
   128  H    1.000007
   129  H    1.000036
   130  H    1.000093
   131  H    1.000012
   132  H    0.999914
   133  H    0.999993
   134  H    0.999925
   135  H    0.999980
   136  H    1.000083
   137  H    1.000041
   138  H    1.000093
   139  H    1.000034
   140  H    1.000023
   141  H    1.000078
   142  H    0.999955
   143  H    1.000048
   144  H    1.000051
   145  H    0.999988
   146  H    1.000047
   147  H    0.999971
   148  H    0.999994
   149  H    0.999961
   150  H    0.999951
   151  H    0.999977
   152  H    0.999949
   153  H    0.999794
   154  H    0.999964
   155  H    1.000062
   156  H    1.000044
   157  H    0.999998
   158  H    0.999932
 Sum of Mulliken charges = 624.00000

 Dipole moment (field-independent basis, Debye):
    X=              0.8580    Y=             -3.4196    Z=              9.9060  Tot=             10.5147
 Quadrupole moment (field-independent basis, Debye-Ang):
   XX=            -27.3135   YY=              2.5899   ZZ=              6.0619
   XY=             57.8360   XZ=           -172.4964   YZ=             -8.7495

 Normal termination of Gaussian 16 at Fri Oct 15 18:02:19 2021.
