 Gaussian 16, Revision A.03,
 Gaussian 16:  ES64L-G16RevA.03 25-Dec-2016

 --------------------------------------------------------
 #p PBE1PBE/Def2SVP td=(nstates=5) density=(transition=1)
 --------------------------------------------------------

 --------------------------------
 TDDFT excited states in gaussian
 --------------------------------
 Symbolic Z-matrix:
 Charge =  0 Multiplicity = 1

                         Standard orientation:
 ---------------------------------------------------------------------
 Center     Atomic      Atomic             Coordinates (Angstroms)
 Number     Number       Type             X           Y           Z
 ---------------------------------------------------------------------
      1         12           0      -13.389415   -0.793594   -0.002811
      2          6           0      -11.731294    2.025243    1.653145
      3          6           0      -14.653134    1.557505   -2.272454
      4          6           0      -15.177279   -3.180358   -1.319808
      5          6           0      -11.893958   -2.933798    2.220939
      6          7           0      -13.383108    1.513172   -0.152468
      7          6           0      -12.537788    2.472023    0.548203
      8          6           0      -12.716290    3.927970    0.066983
      9          6           0      -13.853697    3.686436   -1.085608
     10          6           0      -14.018697    2.158608   -1.204269
     11          6           0      -15.160904    4.405749   -0.815221
     12          6           0      -11.350830    4.528010   -0.385781
     13          6           0      -11.436288    5.817419   -1.145786
     14          1           0      -10.480191    6.944144   -0.823235
     15          7           0      -14.775498   -0.837730   -1.586513
     16          6           0      -15.163924    0.223550   -2.411980
     17          6           0      -16.096928   -0.259471   -3.428287
     18          6           0      -16.269715   -1.681443   -3.173189
     19          6           0      -15.396206   -1.995865   -1.982716
     20          6           0      -16.683653    0.610270   -4.599950
     21          6           0      -17.130819   -2.700782   -3.827739
     22          8           0      -17.160594   -3.888157   -3.532778
     23          6           0      -17.946909   -2.335049   -4.997614
     24          7           0      -13.450062   -2.731761    0.317893
     25          6           0      -14.356050   -3.523533   -0.258808
     26          6           0      -14.256915   -4.991438    0.218420
     27          6           0      -12.949309   -4.959742    0.982098
     28          6           0      -12.757541   -3.419497    1.265817
     29          6           0      -15.439205   -5.426854    1.076402
     30          6           0      -11.673192   -5.554929    0.445719
     31          6           0      -11.160977   -4.895560   -0.816973
     32          7           0      -12.166730   -0.550872    1.665686
     33          6           0      -11.552030   -1.566889    2.419548
     34          6           0      -10.718331   -0.959845    3.427665
     35          6           0      -10.745502    0.411139    3.064040
     36          6           0      -11.643997    0.627300    2.001861
     37          6           0       -9.856802   -1.628423    4.458838
     38          6           0      -10.108990    1.711815    3.438482
     39          8           0       -9.184337    1.970217    4.238347
     40          6           0      -10.768075    2.764537    2.550051
     41          6           0      -11.387963    3.865006    3.413777
     42          8           0      -12.336888    3.810868    4.250729
     43          8           0      -10.820540    5.041420    3.022061
     44          6           0      -11.345254    6.258767    3.681302
     45          1           0      -14.876008    2.250317   -3.085377
     46          1           0      -15.813171   -3.981085   -1.703001
     47          1           0      -11.405012   -3.551343    2.977415
     48          1           0      -13.012711    4.484521    0.956027
     49          1           0      -13.434348    3.957527   -2.054524
     50          1           0      -15.366420    5.074739   -1.651364
     51          1           0      -15.003632    4.996214    0.086698
     52          1           0      -15.998646    3.810413   -0.452732
     53          1           0      -10.829062    3.713886   -0.890028
     54          1           0      -10.744623    4.713056    0.501080
     55          1           0      -12.374344    6.368376   -1.082018
     56          1           0      -11.199603    5.630637   -2.192861
     57          1           0      -16.305627    0.139195   -5.507762
     58          1           0      -16.349964    1.647633   -4.579990
     59          1           0      -17.768074    0.538606   -4.515346
     60          1           0      -18.466506   -1.382415   -4.892572
     61          1           0      -18.674715   -3.143178   -5.061572
     62          1           0      -17.209933   -2.157503   -5.780250
     63          1           0      -14.234375   -5.614852   -0.675491
     64          1           0      -13.018427   -5.485890    1.934612
     65          1           0      -15.712094   -6.443598    0.796168
     66          1           0      -16.301968   -4.780920    0.917111
     67          1           0      -15.131651   -5.528125    2.117820
     68          1           0      -11.823264   -6.630144    0.344490
     69          1           0      -10.840390   -5.367518    1.123321
     70          1           0      -10.863393   -5.626633   -1.567794
     71          1           0      -10.257572   -4.308745   -0.649309
     72          1           0      -11.885084   -4.247976   -1.311505
     73          1           0       -8.841274   -1.238424    4.394762
     74          1           0       -9.749512   -2.712948    4.477193
     75          1           0      -10.269235   -1.363620    5.432653
     76          1           0       -9.984948    3.259914    1.975397
     77          1           0      -12.052558    6.759185    3.020262
     78          1           0      -10.398201    6.763802    3.871437
     79          1           0      -11.755660    6.053093    4.670752
     80         12           0       13.505741   -0.585758    0.115535
     81          6           0       11.290325    1.991700   -0.717107
     82          6           0       16.096433    1.643236    0.092946
     83          6           0       15.577414   -3.125265    0.563049
     84          6           0       10.736734   -2.837311   -0.083299
     85          7           0       13.649398    1.581844   -0.323376
     86          6           0       12.636192    2.480088   -0.574906
     87          6           0       13.152286    3.904023   -0.479972
     88          6           0       14.720629    3.715368   -0.504244
     89          6           0       14.802466    2.196782   -0.127482
     90          6           0       15.350547    4.010718   -1.859490
     91          6           0       12.474418    4.641283    0.731976
     92          6           0       13.097695    6.031914    1.035935
     93          1           0       13.683673    6.786013   -0.139611
     94          7           0       15.483008   -0.712851    0.312411
     95          6           0       16.424926    0.298556    0.172152
     96          6           0       17.800131   -0.215280    0.298530
     97          6           0       17.619167   -1.621392    0.476813
     98          6           0       16.179443   -1.864989    0.445003
     99          6           0       18.998675    0.657628    0.282714
    100          6           0       18.714096   -2.642879    0.646110
    101          8           0       18.463653   -3.864030    0.844538
    102          6           0       20.163344   -2.238720    0.666392
    103          7           0       13.178779   -2.699870    0.280558
    104          6           0       14.236196   -3.490502    0.465763
    105          6           0       13.799445   -5.020416    0.413456
    106          6           0       12.192944   -4.930132    0.156651
    107          6           0       12.017463   -3.412064    0.098347
    108          6           0       14.613705   -5.736375   -0.740788
    109          6           0       11.304810   -5.526122    1.331028
    110          6           0       11.029807   -7.055824    1.262980
    111          7           0       11.483248   -0.525311   -0.360284
    112          6           0       10.434792   -1.480591   -0.293848
    113          6           0        9.101388   -0.796880   -0.593572
    114          6           0        9.389121    0.542214   -0.837583
    115          6           0       10.850079    0.666958   -0.601134
    116          6           0        7.735020   -1.407497   -0.584017
    117          6           0        8.851474    1.849618   -1.133072
    118          8           0        7.702337    2.241286   -1.359951
    119          6           0       10.046908    2.897897   -0.887734
    120          6           0       10.184528    3.901417   -2.009712
    121          8           0       10.829756    3.713083   -3.005447
    122          8           0        9.662918    5.160121   -1.634496
    123          6           0       10.110370    6.331090   -2.403484
    124          1           0       16.814349    2.461334    0.000790
    125          1           0       16.267936   -3.961002    0.695293
    126          1           0        9.870169   -3.477421   -0.262113
    127          1           0       12.823946    4.430178   -1.375426
    128          1           0       15.272465    4.260793    0.262003
    129          1           0       16.099366    4.780314   -1.672769
    130          1           0       14.556334    4.268936   -2.559576
    131          1           0       15.987283    3.200760   -2.214548
    132          1           0       12.435274    3.841821    1.471204
    133          1           0       11.434957    4.779550    0.436379
    134          1           0       13.860984    5.800394    1.778881
    135          1           0       12.321204    6.659847    1.472579
    136          1           0       19.513822    0.328370   -0.619516
    137          1           0       19.598930    0.581356    1.188951
    138          1           0       18.877428    1.733221    0.148021
    139          1           0       20.339294   -1.599335    1.530364
    140          1           0       20.205709   -1.755137   -0.310340
    141          1           0       20.893195   -3.047474    0.642565
    142          1           0       14.043037   -5.318762    1.433883
    143          1           0       11.826681   -5.185657   -0.838571
    144          1           0       15.285298   -5.080611   -1.294632
    145          1           0       13.924101   -6.165474   -1.468210
    146          1           0       15.259427   -6.454512   -0.236258
    147          1           0       10.419517   -4.922193    1.528033
    148          1           0       11.891559   -5.388639    2.238703
    149          1           0       11.367446   -7.475356    2.209997
    150          1           0       11.522339   -7.456062    0.376701
    151          1           0        9.966049   -7.276745    1.171980
    152          1           0        7.242871   -1.031908    0.313366
    153          1           0        7.807771   -2.495740   -0.583530
    154          1           0        7.055601   -1.147238   -1.395387
    155          1           0        9.824987    3.387830    0.059883
    156          1           0        9.526845    6.297636   -3.323143
    157          1           0       11.196333    6.339311   -2.499020
    158          1           0        9.869267    7.201953   -1.794508
 ---------------------------------------------------------------------

 SCF Done:  E(RPBE1PBE) =  -4067.39979762     A.U. after   16 cycles

 Excitation energies and oscillator strengths:

 Excited State   1:      Singlet-A      1.6306 eV  760.35 nm  f=0.0000  <S**2>=0.000
     312 -> 313        0.70710
 This state for optimization and/or second-order correction.
 Total Energy, E(TD-HF/TD-DFT) =  -4067.33987343
 Copying the excited state density for this state as the 1-particle RhoCI density.

 Excited State   2:      Singlet-A      1.8173 eV  682.24 nm  f=0.4146  <S**2>=0.000
     309 -> 316       -0.16194
     311 -> 313        0.69529
     311 <- 313       -0.11393

 Excited State   3:      Singlet-A      1.8622 eV  665.81 nm  f=0.3543  <S**2>=0.000
     310 -> 315        0.19113
     312 -> 314        0.68747
     312 <- 314       -0.10007

 Excited State   4:      Singlet-A      2.1797 eV  568.80 nm  f=0.1263  <S**2>=0.000
     309 -> 313        0.66144
     311 -> 316        0.23363

 Excited State   5:      Singlet-A      2.2050 eV  562.30 nm  f=0.0000  <S**2>=0.000
     311 -> 314        0.70709

 The electronic state is 1-A.
 Alpha  occ. eigenvalues --  -46.91470 -46.91113 -19.26459 -19.24608 -19.20441
 Alpha  occ. eigenvalues --  -19.19957 -19.19384 -19.18846 -19.18729 -19.18567
 Alpha  occ. eigenvalues --  -14.42036 -14.41609 -14.41574 -14.41111 -14.39621
 Alpha  occ. eigenvalues --  -14.39493 -14.39470 -14.38623 -10.37042 -10.36386
 Alpha  occ. eigenvalues --  -10.32655 -10.32312 -10.31933 -10.31568 -10.29862
 Alpha  occ. eigenvalues --  -10.29155 -10.28996 -10.28945 -10.28745 -10.28742
 Alpha  occ. eigenvalues --  -10.28601 -10.28560 -10.28526 -10.28426 -10.28094
 Alpha  occ. eigenvalues --  -10.28054 -10.28046 -10.27886 -10.27806 -10.27726
 Alpha  occ. eigenvalues --  -10.27265 -10.27259 -10.27113 -10.26825 -10.26779
 Alpha  occ. eigenvalues --  -10.26751 -10.26740 -10.26517 -10.26505 -10.26394
 Alpha  occ. eigenvalues --  -10.26270 -10.26147 -10.26147 -10.26085 -10.25919
 Alpha  occ. eigenvalues --  -10.25772 -10.25660 -10.25566 -10.25486 -10.25426
 Alpha  occ. eigenvalues --  -10.25207 -10.25081 -10.25044 -10.24935 -10.24798
 Alpha  occ. eigenvalues --  -10.24751 -10.24657 -10.24445 -10.24406 -10.24324
 Alpha  occ. eigenvalues --  -10.24106 -10.23737 -10.23643 -10.23640 -10.23626
 Alpha  occ. eigenvalues --  -10.23501 -10.23284 -10.23215 -10.23210 -10.23056
 Alpha  occ. eigenvalues --  -10.23022 -10.22881 -10.22862 -10.22820 -10.22672
 Alpha  occ. eigenvalues --  -10.21925  -3.13728  -3.13430  -1.86575  -1.86277
 Alpha  occ. eigenvalues --   -1.86088  -1.85983  -1.85817  -1.85655  -1.10818
 Alpha  occ. eigenvalues --   -1.10166  -1.04854  -1.03821  -1.02641  -1.02573
 Alpha  occ. eigenvalues --   -1.02429  -1.00603  -0.99612  -0.98900  -0.98074
 Alpha  occ. eigenvalues --   -0.97653  -0.97423  -0.96678  -0.96048  -0.95103
 Alpha  occ. eigenvalues --   -0.86713  -0.85926  -0.83947  -0.83135  -0.83079
 Alpha  occ. eigenvalues --   -0.82895  -0.82806  -0.82077  -0.81842  -0.81569
 Alpha  occ. eigenvalues --   -0.81032  -0.81021  -0.80635  -0.80289  -0.78965
 Alpha  occ. eigenvalues --   -0.78482  -0.78358  -0.77213  -0.77170  -0.76302
 Alpha  occ. eigenvalues --   -0.76262  -0.76152  -0.75760  -0.75022  -0.74353
 Alpha  occ. eigenvalues --   -0.74309  -0.73187  -0.72613  -0.71739  -0.71571
 Alpha  occ. eigenvalues --   -0.71250  -0.71150  -0.70275  -0.70056  -0.69761
 Alpha  occ. eigenvalues --   -0.68884  -0.67244  -0.66501  -0.66281  -0.65887
 Alpha  occ. eigenvalues --   -0.64539  -0.63764  -0.63690  -0.62957  -0.62750
 Alpha  occ. eigenvalues --   -0.62001  -0.61577  -0.61463  -0.59910  -0.59625
 Alpha  occ. eigenvalues --   -0.59533  -0.59179  -0.58701  -0.58442  -0.58329
 Alpha  occ. eigenvalues --   -0.58264  -0.56531  -0.55826  -0.55168  -0.54621
 Alpha  occ. eigenvalues --   -0.54041  -0.53745  -0.53658  -0.53236  -0.52862
 Alpha  occ. eigenvalues --   -0.52234  -0.52176  -0.52154  -0.51897  -0.51332
 Alpha  occ. eigenvalues --   -0.50766  -0.50726  -0.50398  -0.50287  -0.49939
 Alpha  occ. eigenvalues --   -0.49739  -0.49300  -0.49135  -0.48891  -0.48716
 Alpha  occ. eigenvalues --   -0.48446  -0.47947  -0.47826  -0.47809  -0.47444
 Alpha  occ. eigenvalues --   -0.47299  -0.47119  -0.47031  -0.46758  -0.46756
 Alpha  occ. eigenvalues --   -0.46482  -0.46324  -0.45952  -0.45771  -0.45713
 Alpha  occ. eigenvalues --   -0.45364  -0.45324  -0.45119  -0.45016  -0.44952
 Alpha  occ. eigenvalues --   -0.44764  -0.44568  -0.44441  -0.44067  -0.44014
 Alpha  occ. eigenvalues --   -0.43895  -0.43861  -0.43617  -0.43495  -0.43459
 Alpha  occ. eigenvalues --   -0.43428  -0.43166  -0.43139  -0.42892  -0.42761
 Alpha  occ. eigenvalues --   -0.42699  -0.42675  -0.42372  -0.42109  -0.41998
 Alpha  occ. eigenvalues --   -0.41675  -0.41504  -0.41433  -0.41277  -0.40902
 Alpha  occ. eigenvalues --   -0.40853  -0.40746  -0.40651  -0.40443  -0.40438
 Alpha  occ. eigenvalues --   -0.40301  -0.40152  -0.39952  -0.39836  -0.39644
 Alpha  occ. eigenvalues --   -0.39634  -0.39406  -0.39203  -0.39096  -0.39037
 Alpha  occ. eigenvalues --   -0.38952  -0.38796  -0.38789  -0.38309  -0.38280
 Alpha  occ. eigenvalues --   -0.37955  -0.37862  -0.37807  -0.37704  -0.37452
 Alpha  occ. eigenvalues --   -0.37425  -0.37299  -0.37149  -0.37006  -0.36995
 Alpha  occ. eigenvalues --   -0.36640  -0.36433  -0.36247  -0.36048  -0.36033
 Alpha  occ. eigenvalues --   -0.35733  -0.35688  -0.35306  -0.35255  -0.35049
 Alpha  occ. eigenvalues --   -0.34788  -0.34147  -0.34107  -0.34029  -0.33954
 Alpha  occ. eigenvalues --   -0.33798  -0.33441  -0.33221  -0.32974  -0.32283
 Alpha  occ. eigenvalues --   -0.32125  -0.31761  -0.31729  -0.31533  -0.31172
 Alpha  occ. eigenvalues --   -0.31127  -0.30906  -0.29483  -0.29365  -0.29338
 Alpha  occ. eigenvalues --   -0.29080  -0.28666  -0.28567  -0.27030  -0.26812
 Alpha  occ. eigenvalues --   -0.26363  -0.25806  -0.25739  -0.25735  -0.25567
 Alpha  occ. eigenvalues --   -0.25330  -0.25172  -0.24962  -0.21111  -0.20862
 Alpha  occ. eigenvalues --   -0.19056  -0.18134
 Alpha virt. eigenvalues --   -0.11647  -0.10453  -0.05514  -0.05186  -0.04379
 Alpha virt. eigenvalues --   -0.03821  -0.02167  -0.02153  -0.00272  -0.00167
 Alpha virt. eigenvalues --    0.00147   0.00636   0.01119   0.01526   0.01747

 Mulliken charges:
               1
     1  Mg  12.000000
     2  C    6.000000
     3  C    6.000000
     4  C    6.000000
     5  C    6.000000
     6  N    7.000000
     7  C    6.000000
     8  C    6.000000
     9  C    6.000000
    10  C    6.000000
    11  C    6.000000
    12  C    6.000000
    13  C    6.000000
    14  H    1.000000
    15  N    7.000000
    16  C    6.000000
    17  C    6.000000
    18  C    6.000000
    19  C    6.000000
    20  C    6.000000
    21  C    6.000000
    22  O    8.000000
    23  C    6.000000
    24  N    7.000000
    25  C    6.000000
    26  C    6.000000
    27  C    6.000000
    28  C    6.000000
    29  C    6.000000
    30  C    6.000000
    31  C    6.000000
    32  N    7.000000
    33  C    6.000000
    34  C    6.000000
    35  C    6.000000
    36  C    6.000000
    37  C    6.000000
    38  C    6.000000
    39  O    8.000000
    40  C    6.000000
    41  C    6.000000
    42  O    8.000000
    43  O    8.000000
    44  C    6.000000
    45  H    1.000000
    46  H    1.000000
    47  H    1.000000
    48  H    1.000000
    49  H    1.000000
    50  H    1.000000
    51  H    1.000000
    52  H    1.000000
    53  H    1.000000
    54  H    1.000000
    55  H    1.000000
    56  H    1.000000
    57  H    1.000000
    58  H    1.000000
    59  H    1.000000
    60  H    1.000000
    61  H    1.000000
    62  H    1.000000
    63  H    1.000000
    64  H    1.000000
    65  H    1.000000
    66  H    1.000000
    67  H    1.000000
    68  H    1.000000
    69  H    1.000000
    70  H    1.000000
    71  H    1.000000
    72  H    1.000000
    73  H    1.000000
    74  H    1.000000
    75  H    1.000000
    76  H    1.000000
    77  H    1.000000
    78  H    1.000000
    79  H    1.000000
    80  Mg  12.000000
    81  C    6.000000
    82  C    6.000000
    83  C    6.000000
    84  C    6.000000
    85  N    7.000000
    86  C    6.000000
    87  C    6.000000
    88  C    6.000000
    89  C    6.000000
    90  C    6.000000
    91  C    6.000000
    92  C    6.000000
    93  H    1.000000
    94  N    7.000000
    95  C    6.000000
    96  C    6.000000
    97  C    6.000000
    98  C    6.000000
    99  C    6.000000
   100  C    6.000000
   101  O    8.000000
   102  C    6.000000
   103  N    7.000000
   104  C    6.000000
   105  C    6.000000
   106  C    6.000000
   107  C    6.000000
   108  C    6.000000
   109  C    6.000000
   110  C    6.000000
   111  N    7.000000
   112  C    6.000000
   113  C    6.000000
   114  C    6.000000
   115  C    6.000000
   116  C    6.000000
   117  C    6.000000
   118  O    8.000000
   119  C    6.000000
   120  C    6.000000
   121  O    8.000000
   122  O    8.000000
   123  C    6.000000
   124  H    1.000000
   125  H    1.000000
   126  H    1.000000
   127  H    1.000000
   128  H    1.000000
   129  H    1.000000
   130  H    1.000000
   131  H    1.000000
   132  H    1.000000
   133  H    1.000000
   134  H    1.000000
   135  H    1.000000
   136  H    1.000000
   137  H    1.000000
   138  H    1.000000
   139  H    1.000000
   140  H    1.000000
   141  H    1.000000
   142  H    1.000000
   143  H    1.000000
   144  H    1.000000
   145  H    1.000000
   146  H    1.000000
   147  H    1.000000
   148  H    1.000000
   149  H    1.000000
   150  H    1.000000
   151  H    1.000000
   152  H    1.000000
   153  H    1.000000
   154  H    1.000000
   155  H    1.000000
   156  H    1.000000
   157  H    1.000000
   158  H    1.000000
 Sum of Mulliken charges = 624.00000

 Dipole moment (field-independent basis, Debye):
    X=             -0.0000    Y=             -0.0000    Z=             -0.0000  Tot=              0.0000
 Quadrupole moment (field-independent basis, Debye-Ang):
   XX=             -0.0000   YY=              0.0000   ZZ=             -0.0000
   XY=              0.0000   XZ=              0.0000   YZ=             -0.0000

 Normal termination of Gaussian 16 at Thu Oct 14 08:46:54 2021.
