 Gaussian 16, Revision A.03,
 Gaussian 16:  ES64L-G16RevA.03 25-Dec-2016

 --------------------------------------------------------
 #p PBE1PBE/Def2SVP td=(nstates=5) density=(transition=1)
 --------------------------------------------------------

 --------------------------------
 TDDFT excited states in gaussian
 --------------------------------
 Symbolic Z-matrix:
 Charge =  0 Multiplicity = 1

                         Standard orientation:
 ---------------------------------------------------------------------
 Center     Atomic      Atomic             Coordinates (Angstroms)
 Number     Number       Type             X           Y           Z
 ---------------------------------------------------------------------
      1         12           0       17.002495    0.573653   -0.225875
      2          6           0       16.234264   -2.144159    1.721714
      3          6           0       14.211450    2.152908    0.987982
      4          6           0       17.700181    3.285703   -2.271887
      5          6           0       19.546279   -1.228529   -1.742998
      6          7           0       15.332148    0.056614    1.180390
      7          6           0       15.326256   -1.100096    1.906623
      8          6           0       14.202219   -1.133683    2.824874
      9          6           0       13.382423    0.107248    2.508574
     10          6           0       14.323461    0.846141    1.459644
     11          6           0       11.918406   -0.071028    1.976775
     12          6           0       14.674396   -1.217542    4.316365
     13          6           0       13.759744   -2.014095    5.309787
     14          1           0       12.252255   -2.064760    4.992697
     15          7           0       16.118046    2.504885   -0.484843
     16          6           0       14.965980    2.947265    0.142422
     17          6           0       14.669337    4.319333   -0.316830
     18          6           0       15.704103    4.675841   -1.285311
     19          6           0       16.578597    3.493315   -1.371414
     20          6           0       13.473160    5.142183    0.133057
     21          6           0       15.919874    6.014128   -1.952574
     22          8           0       16.905883    6.166504   -2.694874
     23          6           0       15.013477    7.180383   -1.820848
     24          7           0       18.367784    0.961182   -1.844615
     25          6           0       18.475245    2.146676   -2.451416
     26          6           0       19.689504    2.168374   -3.394723
     27          6           0       20.483901    0.789231   -3.066657
     28          6           0       19.430737    0.161783   -2.086900
     29          6           0       19.250706    2.332712   -4.882479
     30          6           0       21.857929    0.960219   -2.362653
     31          6           0       23.087397    0.578059   -3.200357
     32          7           0       17.738956   -1.337520   -0.129346
     33          6           0       18.782658   -1.956101   -0.821497
     34          6           0       18.943169   -3.352682   -0.359394
     35          6           0       17.931070   -3.431333    0.626147
     36          6           0       17.231199   -2.198596    0.718784
     37          6           0       19.927472   -4.332707   -0.771952
     38          6           0       17.384499   -4.306666    1.683598
     39          8           0       17.706957   -5.402167    2.059948
     40          6           0       16.235780   -3.509223    2.397886
     41          6           0       15.013452   -4.328260    2.368484
     42          8           0       14.398629   -4.498231    1.303293
     43          8           0       14.568481   -4.738371    3.587900
     44          6           0       13.260274   -5.379221    3.677683
     45          1           0       13.316474    2.628226    1.394873
     46          1           0       17.881412    4.135004   -2.934295
     47          1           0       20.435125   -1.710449   -2.155260
     48          1           0       13.610672   -2.020731    2.595732
     49          1           0       13.394542    0.813331    3.339692
     50          1           0       11.465257   -1.055602    1.856669
     51          1           0       11.852264    0.426805    1.009672
     52          1           0       11.178516    0.493842    2.544397
     53          1           0       14.884852   -0.215377    4.690020
     54          1           0       15.701738   -1.580633    4.338278
     55          1           0       13.872833   -1.618358    6.319491
     56          1           0       13.978439   -3.081414    5.324871
     57          1           0       12.907034    4.676486    0.938998
     58          1           0       12.758458    5.272490   -0.680032
     59          1           0       13.811096    6.052500    0.627935
     60          1           0       15.496363    8.003653   -2.346432
     61          1           0       14.811685    7.461128   -0.786307
     62          1           0       14.026841    6.917587   -2.202791
     63          1           0       20.348799    2.960739   -3.040100
     64          1           0       20.576379    0.142854   -3.939368
     65          1           0       19.794260    3.115355   -5.411910
     66          1           0       18.192835    2.588358   -4.948805
     67          1           0       19.390775    1.338786   -5.308104
     68          1           0       21.942844    0.388452   -1.439302
     69          1           0       22.020691    1.986886   -2.033952
     70          1           0       22.864169    0.720937   -4.257706
     71          1           0       23.290997   -0.479180   -3.033321
     72          1           0       23.925661    1.144814   -2.797234
     73          1           0       20.044191   -5.142883   -0.052506
     74          1           0       20.912928   -3.904132   -0.953376
     75          1           0       19.512367   -4.878653   -1.619268
     76          1           0       16.657965   -3.393591    3.396707
     77          1           0       13.200309   -6.347965    3.180909
     78          1           0       12.469883   -4.700036    3.358305
     79          1           0       13.042728   -5.613746    4.719570
     80         12           0      -16.860304    0.425023    0.699351
     81          6           0      -16.435015   -2.478067   -1.504468
     82          6           0      -13.424648    0.263201    1.086354
     83          6           0      -17.012274    3.449657    1.698533
     84          6           0      -20.286099    0.402471   -0.384709
     85          7           0      -15.084074   -0.955457   -0.297675
     86          6           0      -15.151284   -2.050806   -1.130713
     87          6           0      -13.694631   -2.514623   -1.499234
     88          6           0      -12.794856   -1.821490   -0.461363
     89          6           0      -13.811203   -0.781302    0.146025
     90          6           0      -12.170584   -2.695136    0.704790
     91          6           0      -13.304176   -2.239479   -2.991791
     92          6           0      -12.488852   -3.311428   -3.682431
     93          1           0      -10.958846   -3.041459   -3.833295
     94          7           0      -15.470898    1.637527    1.418166
     95          6           0      -14.138914    1.391063    1.612072
     96          6           0      -13.488981    2.582612    2.223294
     97          6           0      -14.544095    3.519585    2.375198
     98          6           0      -15.726614    2.898903    1.783300
     99          6           0      -11.994226    2.769719    2.530561
    100          6           0      -14.461638    4.986432    2.807278
    101          8           0      -13.366302    5.402534    3.174982
    102          6           0      -15.551446    5.879815    2.844369
    103          7           0      -18.414150    1.838000    0.402751
    104          6           0      -18.246829    2.960266    1.189537
    105          6           0      -19.612848    3.749465    1.211168
    106          6           0      -20.544934    2.899356    0.275240
    107          6           0      -19.727829    1.588874    0.175834
    108          6           0      -20.219862    4.006966    2.617671
    109          6           0      -20.958156    3.489987   -1.132853
    110          6           0      -22.094099    4.526769   -1.177314
    111          7           0      -18.194544   -0.763909   -0.610674
    112          6           0      -19.557574   -0.704993   -0.821988
    113          6           0      -20.037672   -1.848581   -1.559228
    114          6           0      -18.829650   -2.590879   -1.838615
    115          6           0      -17.685175   -1.900210   -1.306839
    116          6           0      -21.465324   -2.049937   -1.964496
    117          6           0      -18.345900   -3.707704   -2.519052
    118          8           0      -18.895822   -4.476499   -3.296034
    119          6           0      -16.792558   -3.634940   -2.459500
    120          6           0      -16.374270   -4.957514   -1.860663
    121          8           0      -15.495706   -5.675162   -2.345118
    122          8           0      -16.957704   -5.270032   -0.567235
    123          6           0      -16.255209   -6.356473    0.113699
    124          1           0      -12.353667    0.193318    1.285309
    125          1           0      -17.254279    4.405559    2.167715
    126          1           0      -21.360982    0.488540   -0.556465
    127          1           0      -13.589040   -3.565735   -1.226923
    128          1           0      -12.019061   -1.219823   -0.934889
    129          1           0      -11.117898   -2.792286    0.440085
    130          1           0      -12.589998   -3.700775    0.711365
    131          1           0      -12.324178   -2.312884    1.713891
    132          1           0      -12.639345   -1.387871   -3.138488
    133          1           0      -14.199997   -2.123037   -3.602128
    134          1           0      -12.981632   -3.520888   -4.631867
    135          1           0      -12.565878   -4.218570   -3.082201
    136          1           0      -11.875482    3.285221    3.483959
    137          1           0      -11.619227    3.321677    1.668769
    138          1           0      -11.496742    1.808537    2.652595
    139          1           0      -16.240201    5.538383    3.617776
    140          1           0      -16.039407    6.048068    1.884274
    141          1           0      -15.035969    6.819559    3.045466
    142          1           0      -19.553254    4.740983    0.763599
    143          1           0      -21.457449    2.599949    0.790203
    144          1           0      -21.212829    3.558398    2.584575
    145          1           0      -20.300720    5.083868    2.762144
    146          1           0      -19.511562    3.523037    3.291262
    147          1           0      -21.259638    2.606044   -1.695809
    148          1           0      -20.126999    4.028127   -1.589051
    149          1           0      -22.400315    4.532448   -0.130832
    150          1           0      -22.958652    4.142631   -1.720570
    151          1           0      -21.837496    5.531250   -1.513004
    152          1           0      -21.726432   -1.163948   -2.541751
    153          1           0      -22.162118   -2.031105   -1.126700
    154          1           0      -21.593261   -2.862754   -2.679482
    155          1           0      -16.439582   -3.598183   -3.489931
    156          1           0      -16.540522   -6.051690    1.121290
    157          1           0      -15.207032   -6.416711   -0.179134
    158          1           0      -16.815503   -7.265530   -0.105252
 ---------------------------------------------------------------------

 SCF Done:  E(RPBE1PBE) =  -4067.36520899     A.U. after   16 cycles

 Excitation energies and oscillator strengths:

 Excited State   1:      Singlet-A      1.8342 eV  675.96 nm  f=0.0000  <S**2>=0.000
     312 -> 313        0.70710
 This state for optimization and/or second-order correction.
 Total Energy, E(TD-HF/TD-DFT) =  -4067.29780392
 Copying the excited state density for this state as the 1-particle RhoCI density.

 Excited State   2:      Singlet-A      1.8702 eV  662.95 nm  f=0.3361  <S**2>=0.000
     309 -> 315        0.19125
     311 -> 313        0.68573

 Excited State   3:      Singlet-A      1.8898 eV  656.08 nm  f=0.3779  <S**2>=0.000
     310 -> 316        0.17991
     312 -> 314        0.68886
     312 <- 314       -0.10426

 Excited State   4:      Singlet-A      2.1675 eV  572.00 nm  f=0.0000  <S**2>=0.000
     311 -> 314        0.70710

 Excited State   5:      Singlet-A      2.2321 eV  555.46 nm  f=0.0729  <S**2>=0.000
     308 -> 313        0.10221
     309 -> 313        0.63200
     311 -> 315       -0.29395

 The electronic state is 1-A.
 Alpha  occ. eigenvalues --  -46.94165 -46.92279 -19.26580 -19.24401 -19.20355
 Alpha  occ. eigenvalues --  -19.19527 -19.19260 -19.18964 -19.18562 -19.18206
 Alpha  occ. eigenvalues --  -14.42107 -14.41664 -14.41314 -14.41221 -14.40353
 Alpha  occ. eigenvalues --  -14.39183 -14.38937 -14.38897 -10.36552 -10.36483
 Alpha  occ. eigenvalues --  -10.32049 -10.32022 -10.32005 -10.30728 -10.29954
 Alpha  occ. eigenvalues --  -10.29585 -10.29532 -10.29493 -10.29103 -10.28895
 Alpha  occ. eigenvalues --  -10.28814 -10.28740 -10.28326 -10.28325 -10.28122
 Alpha  occ. eigenvalues --  -10.28024 -10.27825 -10.27705 -10.27673 -10.27272
 Alpha  occ. eigenvalues --  -10.27176 -10.27160 -10.26816 -10.26810 -10.26706
 Alpha  occ. eigenvalues --  -10.26687 -10.26675 -10.26375 -10.26222 -10.26148
 Alpha  occ. eigenvalues --  -10.26078 -10.26066 -10.26032 -10.25991 -10.25991
 Alpha  occ. eigenvalues --  -10.25841 -10.25799 -10.25642 -10.25605 -10.25247
 Alpha  occ. eigenvalues --  -10.25220 -10.25098 -10.25086 -10.25079 -10.24994
 Alpha  occ. eigenvalues --  -10.24775 -10.24680 -10.24623 -10.24551 -10.24462
 Alpha  occ. eigenvalues --  -10.24435 -10.24126 -10.24118 -10.23991 -10.23775
 Alpha  occ. eigenvalues --  -10.23695 -10.23666 -10.23542 -10.23538 -10.23496
 Alpha  occ. eigenvalues --  -10.23338 -10.23326 -10.23108 -10.23017 -10.23011
 Alpha  occ. eigenvalues --  -10.22798  -3.16157  -3.14286  -1.88939  -1.88583
 Alpha  occ. eigenvalues --   -1.88344  -1.87148  -1.86643  -1.86515  -1.11190
 Alpha  occ. eigenvalues --   -1.08692  -1.05711  -1.05139  -1.03821  -1.03596
 Alpha  occ. eigenvalues --   -1.01906  -1.01205  -0.99741  -0.99594  -0.98718
 Alpha  occ. eigenvalues --   -0.98057  -0.98033  -0.97924  -0.95868  -0.95596
 Alpha  occ. eigenvalues --   -0.87341  -0.86837  -0.83421  -0.83280  -0.83227
 Alpha  occ. eigenvalues --   -0.82801  -0.82579  -0.82015  -0.81510  -0.81299
 Alpha  occ. eigenvalues --   -0.81153  -0.81075  -0.80459  -0.80375  -0.79264
 Alpha  occ. eigenvalues --   -0.78250  -0.78147  -0.77958  -0.77832  -0.76863
 Alpha  occ. eigenvalues --   -0.76582  -0.75998  -0.75559  -0.75519  -0.74900
 Alpha  occ. eigenvalues --   -0.74262  -0.72756  -0.72546  -0.71856  -0.71697
 Alpha  occ. eigenvalues --   -0.71614  -0.71346  -0.70547  -0.70163  -0.69639
 Alpha  occ. eigenvalues --   -0.69244  -0.67368  -0.67065  -0.66412  -0.65981
 Alpha  occ. eigenvalues --   -0.63552  -0.63531  -0.63070  -0.62743  -0.62469
 Alpha  occ. eigenvalues --   -0.62185  -0.61411  -0.61363  -0.60262  -0.60041
 Alpha  occ. eigenvalues --   -0.59865  -0.59851  -0.59608  -0.59502  -0.58883
 Alpha  occ. eigenvalues --   -0.58634  -0.57316  -0.56427  -0.54914  -0.54456
 Alpha  occ. eigenvalues --   -0.54395  -0.54113  -0.53805  -0.53778  -0.53543
 Alpha  occ. eigenvalues --   -0.53221  -0.52907  -0.51880  -0.51865  -0.51578
 Alpha  occ. eigenvalues --   -0.51243  -0.50688  -0.50320  -0.50303  -0.49915
 Alpha  occ. eigenvalues --   -0.49382  -0.49272  -0.48766  -0.48521  -0.48455
 Alpha  occ. eigenvalues --   -0.48326  -0.48146  -0.48063  -0.47877  -0.47611
 Alpha  occ. eigenvalues --   -0.47499  -0.47365  -0.47147  -0.46936  -0.46626
 Alpha  occ. eigenvalues --   -0.46606  -0.46437  -0.46250  -0.46114  -0.45941
 Alpha  occ. eigenvalues --   -0.45819  -0.45732  -0.45624  -0.45269  -0.44864
 Alpha  occ. eigenvalues --   -0.44542  -0.44523  -0.44521  -0.44416  -0.44092
 Alpha  occ. eigenvalues --   -0.43927  -0.43899  -0.43651  -0.43552  -0.43331
 Alpha  occ. eigenvalues --   -0.43144  -0.43066  -0.43053  -0.42876  -0.42766
 Alpha  occ. eigenvalues --   -0.42660  -0.42590  -0.42435  -0.42119  -0.41900
 Alpha  occ. eigenvalues --   -0.41859  -0.41772  -0.41491  -0.41358  -0.41169
 Alpha  occ. eigenvalues --   -0.40954  -0.40939  -0.40651  -0.40635  -0.40455
 Alpha  occ. eigenvalues --   -0.40272  -0.40186  -0.39916  -0.39777  -0.39743
 Alpha  occ. eigenvalues --   -0.39523  -0.39320  -0.39301  -0.39176  -0.39135
 Alpha  occ. eigenvalues --   -0.38965  -0.38755  -0.38599  -0.38510  -0.38423
 Alpha  occ. eigenvalues --   -0.38316  -0.38078  -0.37983  -0.37830  -0.37521
 Alpha  occ. eigenvalues --   -0.37439  -0.37390  -0.37174  -0.36977  -0.36876
 Alpha  occ. eigenvalues --   -0.36765  -0.36604  -0.36394  -0.36345  -0.36196
 Alpha  occ. eigenvalues --   -0.35983  -0.35759  -0.35544  -0.35267  -0.35211
 Alpha  occ. eigenvalues --   -0.35089  -0.34868  -0.34861  -0.34513  -0.34289
 Alpha  occ. eigenvalues --   -0.33831  -0.33157  -0.32910  -0.32587  -0.32478
 Alpha  occ. eigenvalues --   -0.32193  -0.32191  -0.31724  -0.31661  -0.31376
 Alpha  occ. eigenvalues --   -0.31077  -0.30282  -0.29698  -0.29259  -0.29254
 Alpha  occ. eigenvalues --   -0.28917  -0.28494  -0.28438  -0.27139  -0.26691
 Alpha  occ. eigenvalues --   -0.26686  -0.26110  -0.25798  -0.25670  -0.25546
 Alpha  occ. eigenvalues --   -0.25192  -0.25123  -0.24463  -0.21411  -0.20811
 Alpha  occ. eigenvalues --   -0.19138  -0.18497
 Alpha virt. eigenvalues --   -0.11361  -0.10781  -0.06140  -0.05210  -0.04405
 Alpha virt. eigenvalues --   -0.03646  -0.02447  -0.02182  -0.01819  -0.00233
 Alpha virt. eigenvalues --    0.00065   0.00114   0.00350   0.01317   0.01352

 Mulliken charges:
               1
     1  Mg  12.000000
     2  C    6.000000
     3  C    6.000000
     4  C    6.000000
     5  C    6.000000
     6  N    7.000000
     7  C    6.000000
     8  C    6.000000
     9  C    6.000000
    10  C    6.000000
    11  C    6.000000
    12  C    6.000000
    13  C    6.000000
    14  H    1.000000
    15  N    7.000000
    16  C    6.000000
    17  C    6.000000
    18  C    6.000000
    19  C    6.000000
    20  C    6.000000
    21  C    6.000000
    22  O    8.000000
    23  C    6.000000
    24  N    7.000000
    25  C    6.000000
    26  C    6.000000
    27  C    6.000000
    28  C    6.000000
    29  C    6.000000
    30  C    6.000000
    31  C    6.000000
    32  N    7.000000
    33  C    6.000000
    34  C    6.000000
    35  C    6.000000
    36  C    6.000000
    37  C    6.000000
    38  C    6.000000
    39  O    8.000000
    40  C    6.000000
    41  C    6.000000
    42  O    8.000000
    43  O    8.000000
    44  C    6.000000
    45  H    1.000000
    46  H    1.000000
    47  H    1.000000
    48  H    1.000000
    49  H    1.000000
    50  H    1.000000
    51  H    1.000000
    52  H    1.000000
    53  H    1.000000
    54  H    1.000000
    55  H    1.000000
    56  H    1.000000
    57  H    1.000000
    58  H    1.000000
    59  H    1.000000
    60  H    1.000000
    61  H    1.000000
    62  H    1.000000
    63  H    1.000000
    64  H    1.000000
    65  H    1.000000
    66  H    1.000000
    67  H    1.000000
    68  H    1.000000
    69  H    1.000000
    70  H    1.000000
    71  H    1.000000
    72  H    1.000000
    73  H    1.000000
    74  H    1.000000
    75  H    1.000000
    76  H    1.000000
    77  H    1.000000
    78  H    1.000000
    79  H    1.000000
    80  Mg  12.000000
    81  C    6.000000
    82  C    6.000000
    83  C    6.000000
    84  C    6.000000
    85  N    7.000000
    86  C    6.000000
    87  C    6.000000
    88  C    6.000000
    89  C    6.000000
    90  C    6.000000
    91  C    6.000000
    92  C    6.000000
    93  H    1.000000
    94  N    7.000000
    95  C    6.000000
    96  C    6.000000
    97  C    6.000000
    98  C    6.000000
    99  C    6.000000
   100  C    6.000000
   101  O    8.000000
   102  C    6.000000
   103  N    7.000000
   104  C    6.000000
   105  C    6.000000
   106  C    6.000000
   107  C    6.000000
   108  C    6.000000
   109  C    6.000000
   110  C    6.000000
   111  N    7.000000
   112  C    6.000000
   113  C    6.000000
   114  C    6.000000
   115  C    6.000000
   116  C    6.000000
   117  C    6.000000
   118  O    8.000000
   119  C    6.000000
   120  C    6.000000
   121  O    8.000000
   122  O    8.000000
   123  C    6.000000
   124  H    1.000000
   125  H    1.000000
   126  H    1.000000
   127  H    1.000000
   128  H    1.000000
   129  H    1.000000
   130  H    1.000000
   131  H    1.000000
   132  H    1.000000
   133  H    1.000000
   134  H    1.000000
   135  H    1.000000
   136  H    1.000000
   137  H    1.000000
   138  H    1.000000
   139  H    1.000000
   140  H    1.000000
   141  H    1.000000
   142  H    1.000000
   143  H    1.000000
   144  H    1.000000
   145  H    1.000000
   146  H    1.000000
   147  H    1.000000
   148  H    1.000000
   149  H    1.000000
   150  H    1.000000
   151  H    1.000000
   152  H    1.000000
   153  H    1.000000
   154  H    1.000000
   155  H    1.000000
   156  H    1.000000
   157  H    1.000000
   158  H    1.000000
 Sum of Mulliken charges = 624.00000

 Dipole moment (field-independent basis, Debye):
    X=             -0.0000    Y=             -0.0000    Z=             -0.0000  Tot=              0.0000
 Quadrupole moment (field-independent basis, Debye-Ang):
   XX=              0.0000   YY=             -0.0000   ZZ=             -0.0000
   XY=              0.0000   XZ=              0.0000   YZ=             -0.0000

 Normal termination of Gaussian 16 at Fri Oct 15 03:01:36 2021.
