 Gaussian 16, Revision A.03,
 Gaussian 16:  ES64L-G16RevA.03 25-Dec-2016

 --------------------------------------------------------
 #p PBE1PBE/Def2SVP td=(nstates=5) density=(transition=1)
 --------------------------------------------------------

 --------------------------------
 TDDFT excited states in gaussian
 --------------------------------
 Symbolic Z-matrix:
 Charge =  0 Multiplicity = 1

                         Standard orientation:
 ---------------------------------------------------------------------
 Center     Atomic      Atomic             Coordinates (Angstroms)
 Number     Number       Type             X           Y           Z
 ---------------------------------------------------------------------
      1         12           0       25.312392   -0.629833    0.379138
      2          6           0       25.487820    1.921643   -1.876709
      3          6           0       24.137424    1.686469    2.780828
      4          6           0       25.345289   -3.055170    2.687794
      5          6           0       26.396507   -2.798747   -2.053819
      6          7           0       25.161670    1.580718    0.553276
      7          6           0       25.181670    2.407564   -0.577204
      8          6           0       24.834740    3.881959   -0.225413
      9          6           0       24.491533    3.697829    1.276752
     10          6           0       24.663676    2.225283    1.602796
     11          6           0       25.169192    4.592425    2.400360
     12          6           0       23.649352    4.555295   -1.047619
     13          6           0       23.373589    6.010304   -0.582445
     14          1           0       23.826172    7.063918   -1.594330
     15          7           0       24.749284   -0.677075    2.485286
     16          6           0       24.084979    0.320266    3.166269
     17          6           0       23.899074   -0.183678    4.521954
     18          6           0       24.263692   -1.567963    4.482556
     19          6           0       24.792937   -1.847663    3.184894
     20          6           0       23.337843    0.680125    5.584725
     21          6           0       24.220531   -2.500890    5.742862
     22          8           0       24.729779   -3.639471    5.777904
     23          6           0       23.604837   -2.004521    7.025058
     24          7           0       25.800341   -2.522919    0.337604
     25          6           0       25.752204   -3.400008    1.457505
     26          6           0       26.465537   -4.699060    1.158328
     27          6           0       26.326241   -4.729974   -0.362471
     28          6           0       26.109848   -3.275313   -0.754713
     29          6           0       27.957042   -4.701726    1.634413
     30          6           0       25.096740   -5.538020   -0.834355
     31          6           0       25.239133   -7.026795   -1.003938
     32          7           0       25.903282   -0.563384   -1.594933
     33          6           0       26.169564   -1.513769   -2.505405
     34          6           0       26.449612   -0.896907   -3.768297
     35          6           0       26.181525    0.444640   -3.597399
     36          6           0       25.805313    0.601533   -2.254345
     37          6           0       26.834491   -1.679785   -4.974907
     38          6           0       26.148067    1.672083   -4.271054
     39          8           0       26.361649    1.964202   -5.431842
     40          6           0       25.680853    2.720064   -3.155264
     41          6           0       26.717528    3.783265   -3.065072
     42          8           0       27.848530    3.666931   -2.660002
     43          8           0       26.207228    4.982730   -3.359616
     44          6           0       27.152880    6.159812   -3.252460
     45          1           0       23.635539    2.421355    3.413457
     46          1           0       25.355074   -3.857755    3.427991
     47          1           0       26.619783   -3.440912   -2.907938
     48          1           0       25.738434    4.482585   -0.329283
     49          1           0       23.424091    3.862097    1.427023
     50          1           0       24.534489    4.875674    3.240438
     51          1           0       25.723961    5.408644    1.937290
     52          1           0       25.892906    3.924087    2.866713
     53          1           0       22.822964    3.858902   -0.910816
     54          1           0       23.920338    4.546887   -2.103284
     55          1           0       23.769434    6.160733    0.421937
     56          1           0       22.290628    6.113195   -0.520419
     57          1           0       24.129708    0.877863    6.307439
     58          1           0       22.434297    0.176676    5.928626
     59          1           0       22.979553    1.621983    5.168983
     60          1           0       23.607134   -2.800573    7.769643
     61          1           0       22.553832   -1.861920    6.770031
     62          1           0       24.012038   -1.086344    7.447611
     63          1           0       25.969969   -5.541301    1.641971
     64          1           0       27.213221   -5.107104   -0.871118
     65          1           0       28.578258   -4.088861    0.982434
     66          1           0       28.338652   -5.722195    1.677121
     67          1           0       27.935881   -4.297604    2.645909
     68          1           0       24.661502   -5.149508   -1.754201
     69          1           0       24.264245   -5.362001   -0.152984
     70          1           0       24.514453   -7.486146   -0.332282
     71          1           0       26.209856   -7.231949   -0.552329
     72          1           0       25.191747   -7.372613   -2.036667
     73          1           0       25.962637   -1.862356   -5.601906
     74          1           0       27.440020   -2.576608   -4.840409
     75          1           0       27.470641   -1.009638   -5.553368
     76          1           0       24.730941    3.152578   -3.470270
     77          1           0       27.622362    6.101111   -2.270256
     78          1           0       26.645978    7.124121   -3.296581
     79          1           0       27.890622    6.065779   -4.049629
     80         12           0      -25.245574   -0.835453   -0.403624
     81          6           0      -26.360855    2.006251    1.625728
     82          6           0      -23.391402    1.488471   -2.257635
     83          6           0      -24.488441   -3.242488   -2.467725
     84          6           0      -26.990377   -2.947892    1.659187
     85          7           0      -25.081837    1.469804   -0.454485
     86          6           0      -25.516135    2.438985    0.544002
     87          6           0      -25.090954    3.889517    0.230324
     88          6           0      -24.296610    3.632049   -1.177948
     89          6           0      -24.239765    2.102448   -1.358654
     90          6           0      -24.909638    4.348038   -2.365746
     91          6           0      -24.276219    4.491348    1.415031
     92          6           0      -23.558739    5.773137    1.115491
     93          1           0      -23.597728    6.907111    2.115618
     94          7           0      -24.103361   -0.900709   -2.170649
     95          6           0      -23.407850    0.150993   -2.777915
     96          6           0      -22.690367   -0.345751   -3.950582
     97          6           0      -22.994231   -1.766011   -4.036972
     98          6           0      -23.901771   -2.065289   -2.868252
     99          6           0      -21.717870    0.510272   -4.842189
    100          6           0      -22.609088   -2.795311   -5.037569
    101          8           0      -22.910205   -3.979973   -4.977116
    102          6           0      -21.705198   -2.444275   -6.145777
    103          7           0      -25.585805   -2.770760   -0.360631
    104          6           0      -25.286051   -3.571972   -1.384598
    105          6           0      -25.729264   -5.034854   -1.148252
    106          6           0      -26.104580   -4.990120    0.318437
    107          6           0      -26.312701   -3.446427    0.570080
    108          6           0      -26.882103   -5.467430   -2.046790
    109          6           0      -25.243334   -5.584638    1.402516
    110          6           0      -23.883428   -4.934928    1.544139
    111          7           0      -26.512599   -0.571550    1.228170
    112          6           0      -27.076815   -1.577657    2.033069
    113          6           0      -27.812698   -0.957418    3.107144
    114          6           0      -27.459740    0.409942    2.971830
    115          6           0      -26.683192    0.612062    1.814953
    116          6           0      -28.573123   -1.612388    4.223080
    117          6           0      -27.634949    1.716919    3.677679
    118          8           0      -28.148359    1.986978    4.784485
    119          6           0      -26.953224    2.758263    2.792931
    120          6           0      -27.945225    3.864051    2.426214
    121          8           0      -29.010819    3.813575    1.743690
    122          8           0      -27.403636    5.039239    2.856302
    123          6           0      -28.171975    6.260396    2.524205
    124          1           0      -22.665420    2.172584   -2.699728
    125          1           0      -24.300724   -4.049623   -3.178818
    126          1           0      -27.588484   -3.556086    2.341135
    127          1           0      -26.022815    4.453100    0.185344
    128          1           0      -23.247723    3.895858   -1.042364
    129          1           0      -24.156752    5.008188   -2.797354
    130          1           0      -25.729130    4.947680   -1.971151
    131          1           0      -25.492733    3.752415   -3.067791
    132          1           0      -23.654566    3.674841    1.784040
    133          1           0      -24.961234    4.687454    2.239984
    134          1           0      -23.873118    6.320479    0.227149
    135          1           0      -22.488406    5.577547    1.057132
    136          1           0      -20.744900    0.032349   -4.724473
    137          1           0      -21.637367    1.549257   -4.522970
    138          1           0      -22.097329    0.434570   -5.861278
    139          1           0      -21.941298   -1.493021   -6.623165
    140          1           0      -21.849731   -3.256212   -6.857630
    141          1           0      -20.749019   -2.270831   -5.653014
    142          1           0      -24.868395   -5.666564   -1.367514
    143          1           0      -27.043600   -5.507564    0.516895
    144          1           0      -26.695484   -6.487980   -2.379085
    145          1           0      -26.960586   -4.826885   -2.924575
    146          1           0      -27.799927   -5.557501   -1.464655
    147          1           0      -25.195605   -6.661419    1.237832
    148          1           0      -25.664935   -5.387129    2.387945
    149          1           0      -23.085531   -5.671714    1.629356
    150          1           0      -23.792173   -4.342532    2.454821
    151          1           0      -23.601491   -4.295275    0.707709
    152          1           0      -28.229809   -1.218482    5.179362
    153          1           0      -28.569843   -2.696201    4.338748
    154          1           0      -29.620619   -1.340255    4.091804
    155          1           0      -26.181882    3.251688    3.384942
    156          1           0      -27.726470    6.751395    1.659268
    157          1           0      -28.090993    6.771424    3.483587
    158          1           0      -29.237641    6.062234    2.402404
 ---------------------------------------------------------------------

 SCF Done:  E(RPBE1PBE) =  -4067.40959872     A.U. after   16 cycles

 Excitation energies and oscillator strengths:

 Excited State   1:      Singlet-A      1.8106 eV  684.78 nm  f=0.3568  <S**2>=0.000
     309 -> 316       -0.15516
     312 -> 314        0.69933
     312 <- 314       -0.12507
 This state for optimization and/or second-order correction.
 Total Energy, E(TD-HF/TD-DFT) =  -4067.34306164
 Copying the excited state density for this state as the 1-particle RhoCI density.

 Excited State   2:      Singlet-A      1.8175 eV  682.18 nm  f=0.4028  <S**2>=0.000
     310 -> 315       -0.16215
     311 -> 313        0.69579
     311 <- 313       -0.11402

 Excited State   3:      Singlet-A      1.8573 eV  667.53 nm  f=0.0000  <S**2>=0.000
     312 -> 313        0.70711

 Excited State   4:      Singlet-A      1.9954 eV  621.34 nm  f=0.0000  <S**2>=0.000
     311 -> 314        0.70711

 Excited State   5:      Singlet-A      2.1799 eV  568.77 nm  f=0.1279  <S**2>=0.000
     310 -> 313        0.66146
     311 -> 315        0.23367

 The electronic state is 1-A.
 Alpha  occ. eigenvalues --  -46.91190 -46.90928 -19.26539 -19.25519 -19.20035
 Alpha  occ. eigenvalues --  -19.19503 -19.18928 -19.18910 -19.18910 -19.18800
 Alpha  occ. eigenvalues --  -14.42171 -14.42114 -14.41685 -14.41394 -14.39547
 Alpha  occ. eigenvalues --  -14.38700 -14.38622 -14.38486 -10.37121 -10.35477
 Alpha  occ. eigenvalues --  -10.32505 -10.32014 -10.31979 -10.31639 -10.29940
 Alpha  occ. eigenvalues --  -10.29788 -10.29501 -10.29233 -10.29075 -10.29054
 Alpha  occ. eigenvalues --  -10.28822 -10.28676 -10.28601 -10.28397 -10.28170
 Alpha  occ. eigenvalues --  -10.27882 -10.27868 -10.27360 -10.27342 -10.27179
 Alpha  occ. eigenvalues --  -10.27000 -10.26861 -10.26830 -10.26598 -10.26591
 Alpha  occ. eigenvalues --  -10.26583 -10.26552 -10.26488 -10.26416 -10.26352
 Alpha  occ. eigenvalues --  -10.26217 -10.25845 -10.25735 -10.25636 -10.25633
 Alpha  occ. eigenvalues --  -10.25629 -10.25623 -10.25503 -10.25244 -10.25151
 Alpha  occ. eigenvalues --  -10.25121 -10.25100 -10.24986 -10.24968 -10.24870
 Alpha  occ. eigenvalues --  -10.24732 -10.24572 -10.24497 -10.24301 -10.24084
 Alpha  occ. eigenvalues --  -10.24040 -10.23718 -10.23575 -10.23543 -10.23360
 Alpha  occ. eigenvalues --  -10.23300 -10.23285 -10.23280 -10.23223 -10.23221
 Alpha  occ. eigenvalues --  -10.23087 -10.22948 -10.22750 -10.22582 -10.22544
 Alpha  occ. eigenvalues --  -10.22004  -3.13507  -3.13283  -1.86354  -1.86128
 Alpha  occ. eigenvalues --   -1.85894  -1.85732  -1.85676  -1.85504  -1.11644
 Alpha  occ. eigenvalues --   -1.10898  -1.05096  -1.04924  -1.03122  -1.02723
 Alpha  occ. eigenvalues --   -1.01920  -1.00682  -1.00080  -0.99687  -0.98549
 Alpha  occ. eigenvalues --   -0.97760  -0.97731  -0.96754  -0.96748  -0.95181
 Alpha  occ. eigenvalues --   -0.87639  -0.86793  -0.84020  -0.83413  -0.83154
 Alpha  occ. eigenvalues --   -0.83150  -0.82978  -0.82960  -0.82220  -0.81646
 Alpha  occ. eigenvalues --   -0.81519  -0.81107  -0.80922  -0.80365  -0.79044
 Alpha  occ. eigenvalues --   -0.78665  -0.78433  -0.78293  -0.77249  -0.76830
 Alpha  occ. eigenvalues --   -0.76334  -0.75847  -0.75838  -0.75529  -0.74936
 Alpha  occ. eigenvalues --   -0.74431  -0.72768  -0.72688  -0.71887  -0.71647
 Alpha  occ. eigenvalues --   -0.71545  -0.71231  -0.70497  -0.70354  -0.69834
 Alpha  occ. eigenvalues --   -0.69615  -0.67665  -0.67321  -0.66357  -0.66286
 Alpha  occ. eigenvalues --   -0.64613  -0.63897  -0.63844  -0.63346  -0.62694
 Alpha  occ. eigenvalues --   -0.62083  -0.61654  -0.60587  -0.60266  -0.59610
 Alpha  occ. eigenvalues --   -0.59427  -0.59257  -0.59219  -0.58781  -0.58724
 Alpha  occ. eigenvalues --   -0.58405  -0.56651  -0.56609  -0.54837  -0.54695
 Alpha  occ. eigenvalues --   -0.54607  -0.53821  -0.53738  -0.53736  -0.53524
 Alpha  occ. eigenvalues --   -0.52941  -0.52923  -0.52434  -0.52312  -0.51975
 Alpha  occ. eigenvalues --   -0.51173  -0.50842  -0.50483  -0.50477  -0.50015
 Alpha  occ. eigenvalues --   -0.49812  -0.49688  -0.49378  -0.49259  -0.48972
 Alpha  occ. eigenvalues --   -0.48849  -0.48046  -0.48010  -0.47885  -0.47520
 Alpha  occ. eigenvalues --   -0.47424  -0.47372  -0.47305  -0.47106  -0.46834
 Alpha  occ. eigenvalues --   -0.46831  -0.46335  -0.46309  -0.45924  -0.45849
 Alpha  occ. eigenvalues --   -0.45444  -0.45194  -0.45037  -0.45029  -0.44914
 Alpha  occ. eigenvalues --   -0.44835  -0.44612  -0.44521  -0.44474  -0.44298
 Alpha  occ. eigenvalues --   -0.43968  -0.43849  -0.43604  -0.43537  -0.43503
 Alpha  occ. eigenvalues --   -0.43433  -0.43245  -0.42993  -0.42966  -0.42778
 Alpha  occ. eigenvalues --   -0.42759  -0.42448  -0.42395  -0.42185  -0.42172
 Alpha  occ. eigenvalues --   -0.41867  -0.41760  -0.41629  -0.41509  -0.41354
 Alpha  occ. eigenvalues --   -0.41354  -0.41148  -0.40929  -0.40873  -0.40732
 Alpha  occ. eigenvalues --   -0.40586  -0.40522  -0.40227  -0.40207  -0.39973
 Alpha  occ. eigenvalues --   -0.39720  -0.39455  -0.39278  -0.39173  -0.39113
 Alpha  occ. eigenvalues --   -0.39021  -0.38870  -0.38596  -0.38585  -0.38385
 Alpha  occ. eigenvalues --   -0.38373  -0.38239  -0.37936  -0.37731  -0.37505
 Alpha  occ. eigenvalues --   -0.37379  -0.37073  -0.36906  -0.36735  -0.36716
 Alpha  occ. eigenvalues --   -0.36568  -0.36509  -0.36382  -0.36109  -0.36013
 Alpha  occ. eigenvalues --   -0.35810  -0.35761  -0.35612  -0.35381  -0.35354
 Alpha  occ. eigenvalues --   -0.34947  -0.34874  -0.34765  -0.34228  -0.34027
 Alpha  occ. eigenvalues --   -0.33874  -0.33388  -0.33005  -0.32499  -0.32360
 Alpha  occ. eigenvalues --   -0.32203  -0.32005  -0.31843  -0.31703  -0.31610
 Alpha  occ. eigenvalues --   -0.31523  -0.31212  -0.29560  -0.29519  -0.29157
 Alpha  occ. eigenvalues --   -0.29137  -0.28644  -0.28496  -0.27107  -0.27090
 Alpha  occ. eigenvalues --   -0.26226  -0.26014  -0.25880  -0.25811  -0.25437
 Alpha  occ. eigenvalues --   -0.25411  -0.25041  -0.24837  -0.21491  -0.21188
 Alpha  occ. eigenvalues --   -0.19133  -0.18811
 Alpha virt. eigenvalues --   -0.11723  -0.11540  -0.05262  -0.05134  -0.03899
 Alpha virt. eigenvalues --   -0.03861  -0.02230  -0.02093  -0.00351   0.00066
 Alpha virt. eigenvalues --    0.00167   0.00970   0.01343   0.01445   0.01698

 Mulliken charges:
               1
     1  Mg  11.998538
     2  C    5.975187
     3  C    5.995400
     4  C    6.029647
     5  C    6.013515
     6  N    6.988169
     7  C    6.038920
     8  C    5.985307
     9  C    6.006722
    10  C    5.975300
    11  C    6.004203
    12  C    5.997182
    13  C    6.002415
    14  H    0.995921
    15  N    7.006048
    16  C    5.963723
    17  C    5.976377
    18  C    5.992430
    19  C    5.955131
    20  C    6.004754
    21  C    5.987508
    22  O    7.974924
    23  C    6.005562
    24  N    7.017893
    25  C    5.961504
    26  C    6.007932
    27  C    5.994680
    28  C    6.020910
    29  C    6.001069
    30  C    5.992640
    31  C    5.999394
    32  N    6.996241
    33  C    6.022564
    34  C    6.034980
    35  C    5.998715
    36  C    6.031586
    37  C    5.995943
    38  C    6.015345
    39  O    8.026319
    40  C    6.002818
    41  C    6.001801
    42  O    8.003876
    43  O    8.001688
    44  C    5.999119
    45  H    0.983689
    46  H    0.995710
    47  H    1.013947
    48  H    1.001858
    49  H    0.998867
    50  H    0.999763
    51  H    0.985457
    52  H    1.001592
    53  H    1.005208
    54  H    0.992611
    55  H    1.006934
    56  H    1.002276
    57  H    0.981704
    58  H    0.982799
    59  H    0.984820
    60  H    0.986370
    61  H    0.994330
    62  H    0.994516
    63  H    1.001571
    64  H    1.001201
    65  H    0.987920
    66  H    0.994485
    67  H    1.007449
    68  H    0.995336
    69  H    1.015153
    70  H    1.007187
    71  H    1.004572
    72  H    0.999457
    73  H    1.022004
    74  H    1.017618
    75  H    1.015887
    76  H    1.007624
    77  H    1.005017
    78  H    1.004965
    79  H    1.000204
    80  Mg  12.000047
    81  C    5.999683
    82  C    6.000174
    83  C    6.000318
    84  C    5.999780
    85  N    6.999898
    86  C    6.000664
    87  C    5.999771
    88  C    6.000163
    89  C    5.999455
    90  C    6.000157
    91  C    5.999947
    92  C    5.999996
    93  H    1.000036
    94  N    7.000083
    95  C    5.999209
    96  C    5.999568
    97  C    5.999651
    98  C    5.999340
    99  C    5.999974
   100  C    5.999698
   101  O    7.999336
   102  C    6.000086
   103  N    6.999978
   104  C    5.999281
   105  C    6.000173
   106  C    5.999957
   107  C    6.000700
   108  C    6.000025
   109  C    5.999839
   110  C    5.999873
   111  N    6.999997
   112  C    6.000845
   113  C    6.000452
   114  C    6.000133
   115  C    6.000692
   116  C    5.999928
   117  C    6.000453
   118  O    8.000702
   119  C    5.999944
   120  C    6.000056
   121  O    8.000115
   122  O    8.000046
   123  C    5.999975
   124  H    0.999756
   125  H    0.999846
   126  H    1.000215
   127  H    0.999993
   128  H    1.000015
   129  H    0.999968
   130  H    0.999707
   131  H    1.000030
   132  H    1.000069
   133  H    0.999873
   134  H    1.000089
   135  H    1.000129
   136  H    0.999658
   137  H    0.999617
   138  H    0.999639
   139  H    0.999827
   140  H    0.999663
   141  H    0.999827
   142  H    1.000036
   143  H    0.999999
   144  H    0.999940
   145  H    1.000111
   146  H    0.999717
   147  H    1.000225
   148  H    0.999910
   149  H    1.000146
   150  H    0.999896
   151  H    1.000329
   152  H    1.000341
   153  H    1.000393
   154  H    1.000370
   155  H    1.000208
   156  H    1.000142
   157  H    1.000081
   158  H    1.000038
 Sum of Mulliken charges = 624.00000

 Dipole moment (field-independent basis, Debye):
    X=              2.5793    Y=             -0.4308    Z=             -9.8541  Tot=             10.1952
 Quadrupole moment (field-independent basis, Debye-Ang):
   XX=            142.4375   YY=              3.4643   ZZ=             -8.8114
   XY=            -12.8261   XZ=           -257.4097   YZ=              5.0865

 Normal termination of Gaussian 16 at Fri Oct 15 04:31:00 2021.
