 Gaussian 16, Revision A.03,
 Gaussian 16:  ES64L-G16RevA.03 25-Dec-2016

 --------------------------------------------------------
 #p PBE1PBE/Def2SVP td=(nstates=5) density=(transition=1)
 --------------------------------------------------------

 --------------------------------
 TDDFT excited states in gaussian
 --------------------------------
 Symbolic Z-matrix:
 Charge =  0 Multiplicity = 1

                         Standard orientation:
 ---------------------------------------------------------------------
 Center     Atomic      Atomic             Coordinates (Angstroms)
 Number     Number       Type             X           Y           Z
 ---------------------------------------------------------------------
      1         12           0       16.233706   -0.670442    0.311510
      2          6           0       15.324588    2.454025   -1.086782
      3          6           0       17.989752    1.181382    2.700159
      4          6           0       17.079269   -3.470984    1.801985
      5          6           0       15.127325   -2.256044   -2.578423
      6          7           0       16.555083    1.552334    0.732233
      7          6           0       15.978005    2.630101    0.131791
      8          6           0       16.360640    4.005525    0.704679
      9          6           0       17.342669    3.490669    1.874855
     10          6           0       17.285631    1.998957    1.727440
     11          6           0       18.836656    3.985376    1.735464
     12          6           0       15.131984    4.805146    1.248404
     13          6           0       14.590431    6.086185    0.625952
     14          1           0       14.014829    7.202014    1.487987
     15          7           0       17.314284   -1.119526    2.063571
     16          6           0       18.024001   -0.224685    2.877285
     17          6           0       18.746713   -1.009497    3.853156
     18          6           0       18.376046   -2.345326    3.719772
     19          6           0       17.508306   -2.352817    2.525908
     20          6           0       19.514778   -0.294287    4.911699
     21          6           0       18.808952   -3.597056    4.482302
     22          8           0       18.419496   -4.741717    4.231822
     23          6           0       19.640426   -3.394656    5.687352
     24          7           0       16.229428   -2.601338   -0.312936
     25          6           0       16.426693   -3.645199    0.547989
     26          6           0       15.849222   -4.977358   -0.039623
     27          6           0       15.355986   -4.557338   -1.418158
     28          6           0       15.647529   -3.032740   -1.492525
     29          6           0       16.863973   -6.166674   -0.007984
     30          6           0       13.866942   -4.906685   -1.562541
     31          6           0       13.406817   -5.529173   -2.830381
     32          7           0       15.486347   -0.081219   -1.530703
     33          6           0       15.051537   -0.825404   -2.598145
     34          6           0       14.529562    0.008848   -3.638942
     35          6           0       14.499431    1.380613   -3.083062
     36          6           0       15.102800    1.232435   -1.772424
     37          6           0       14.045958   -0.469008   -5.018841
     38          6           0       14.145135    2.806310   -3.297733
     39          8           0       13.498969    3.343094   -4.213538
     40          6           0       14.671259    3.536965   -1.994325
     41          6           0       15.622466    4.513490   -2.612360
     42          8           0       16.800823    4.349904   -2.904736
     43          8           0       15.074136    5.693225   -2.714459
     44          6           0       15.779880    6.771614   -3.448353
     45          1           0       18.357425    1.878959    3.455146
     46          1           0       17.329310   -4.469754    2.164947
     47          1           0       14.720366   -2.777708   -3.446741
     48          1           0       16.928114    4.535380   -0.061413
     49          1           0       17.056160    3.679103    2.909971
     50          1           0       19.138806    4.387279    0.768752
     51          1           0       19.519147    3.159466    1.932830
     52          1           0       19.013602    4.754324    2.487690
     53          1           0       15.380384    5.086252    2.271947
     54          1           0       14.247331    4.169881    1.266084
     55          1           0       13.717079    5.694182    0.104508
     56          1           0       15.429480    6.398383    0.004074
     57          1           0       19.128217   -0.505530    5.907765
     58          1           0       19.474531    0.785306    4.764729
     59          1           0       20.568037   -0.571660    4.941589
     60          1           0       19.182536   -2.635136    6.321174
     61          1           0       20.597959   -2.926294    5.459154
     62          1           0       19.748874   -4.279625    6.313573
     63          1           0       15.042404   -5.190770    0.661328
     64          1           0       15.848383   -5.130155   -2.203811
     65          1           0       17.772775   -5.965132    0.558889
     66          1           0       17.205602   -6.479753   -0.993885
     67          1           0       16.356679   -7.073717    0.320363
     68          1           0       13.387932   -3.936077   -1.440296
     69          1           0       13.489284   -5.607255   -0.818183
     70          1           0       12.607693   -4.875973   -3.180068
     71          1           0       13.140471   -6.572799   -2.663320
     72          1           0       14.128629   -5.496627   -3.646772
     73          1           0       14.882631   -0.441658   -5.715959
     74          1           0       13.227682    0.177588   -5.335398
     75          1           0       13.707650   -1.505249   -5.000632
     76          1           0       13.814660    4.050546   -1.558159
     77          1           0       16.746033    7.039447   -3.022072
     78          1           0       15.198305    7.685839   -3.565309
     79          1           0       16.007413    6.584589   -4.497360
     80         12           0      -15.763198   -0.817492    0.249953
     81          6           0      -18.027053    1.721269    1.023117
     82          6           0      -13.320830    1.430005    0.004043
     83          6           0      -14.083271   -3.044343   -1.725921
     84          6           0      -18.363597   -3.125301    0.469513
     85          7           0      -15.652896    1.340364    0.654821
     86          6           0      -16.676074    2.127975    0.962988
     87          6           0      -16.133044    3.567066    1.285297
     88          6           0      -14.653952    3.463394    0.842282
     89          6           0      -14.510131    1.996822    0.446840
     90          6           0      -14.300338    4.329211   -0.466860
     91          6           0      -16.264149    4.018039    2.810670
     92          6           0      -16.693062    5.438837    2.945852
     93          1           0      -15.897620    6.380155    3.837161
     94          7           0      -13.941658   -0.799637   -0.698132
     95          6           0      -13.044321    0.234677   -0.663826
     96          6           0      -11.750613   -0.250738   -1.164057
     97          6           0      -11.988150   -1.560266   -1.667277
     98          6           0      -13.413902   -1.821170   -1.408510
     99          6           0      -10.466242    0.636969   -1.213111
    100          6           0      -11.003053   -2.510994   -2.411926
    101          8           0      -11.296805   -3.633269   -2.808233
    102          6           0       -9.615486   -2.039336   -2.632041
    103          7           0      -16.150192   -2.724135   -0.527335
    104          6           0      -15.341112   -3.466591   -1.392710
    105          6           0      -16.124070   -4.705989   -1.899455
    106          6           0      -17.150188   -4.984571   -0.715266
    107          6           0      -17.198517   -3.507572   -0.231272
    108          6           0      -16.737892   -4.507179   -3.301968
    109          6           0      -16.698589   -5.904431    0.383327
    110          6           0      -15.770681   -5.427295    1.460797
    111          7           0      -17.740341   -0.831241    0.846903
    112          6           0      -18.697469   -1.819425    0.853573
    113          6           0      -19.995626   -1.322879    1.315721
    114          6           0      -19.819778    0.133789    1.306540
    115          6           0      -18.419563    0.347523    0.999943
    116          6           0      -21.208035   -2.090316    1.461138
    117          6           0      -20.479654    1.422253    1.478988
    118          8           0      -21.600328    1.722230    1.657132
    119          6           0      -19.292121    2.514533    1.374949
    120          6           0      -19.596673    3.679109    0.466891
    121          8           0      -19.309154    3.742130   -0.724762
    122          8           0      -20.166070    4.698651    1.229105
    123          6           0      -20.515353    5.953198    0.538299
    124          1           0      -12.375027    1.974515    0.050348
    125          1           0      -13.495884   -3.697923   -2.374781
    126          1           0      -19.105243   -3.913751    0.611046
    127          1           0      -16.594197    4.330406    0.658102
    128          1           0      -13.907629    3.777960    1.571746
    129          1           0      -13.948519    5.299318   -0.115251
    130          1           0      -15.144371    4.557503   -1.117189
    131          1           0      -13.491857    3.821214   -0.993902
    132          1           0      -15.318921    3.916113    3.344085
    133          1           0      -16.942216    3.421090    3.420735
    134          1           0      -17.657918    5.355870    3.445375
    135          1           0      -16.864269    6.010142    2.033924
    136          1           0      -10.484260    1.125274   -2.187045
    137          1           0       -9.565851    0.052372   -1.022781
    138          1           0      -10.520715    1.532071   -0.592580
    139          1           0       -9.399780   -1.011489   -2.923342
    140          1           0       -9.136206   -2.655259   -3.392577
    141          1           0       -8.989564   -2.373272   -1.804015
    142          1           0      -15.369983   -5.492471   -1.908260
    143          1           0      -18.107418   -5.360047   -1.076530
    144          1           0      -17.807492   -4.693907   -3.398020
    145          1           0      -16.159392   -4.969899   -4.101863
    146          1           0      -16.650064   -3.462215   -3.598826
    147          1           0      -16.205193   -6.810553    0.033835
    148          1           0      -17.589700   -6.264840    0.897463
    149          1           0      -16.464182   -5.153231    2.255609
    150          1           0      -15.189651   -4.534437    1.228874
    151          1           0      -15.118020   -6.247408    1.761785
    152          1           0      -21.723148   -1.667085    2.323672
    153          1           0      -20.913019   -3.114429    1.688390
    154          1           0      -21.826966   -1.989095    0.570179
    155          1           0      -19.147842    2.920341    2.376260
    156          1           0      -21.133571    5.681372   -0.317707
    157          1           0      -19.622912    6.444725    0.151823
    158          1           0      -21.035464    6.741300    1.083050
 ---------------------------------------------------------------------

 SCF Done:  E(RPBE1PBE) =  -4067.37971772     A.U. after   16 cycles

 Excitation energies and oscillator strengths:

 Excited State   1:      Singlet-A      1.8399 eV  673.86 nm  f=0.3724  <S**2>=0.000
     309 -> 316       -0.17094
     312 -> 314        0.69372
     312 <- 314       -0.11315
 This state for optimization and/or second-order correction.
 Total Energy, E(TD-HF/TD-DFT) =  -4067.31210225
 Copying the excited state density for this state as the 1-particle RhoCI density.

 Excited State   2:      Singlet-A      1.8639 eV  665.17 nm  f=0.3596  <S**2>=0.000
     310 -> 315        0.18305
     311 -> 313        0.68893

 Excited State   3:      Singlet-A      1.8809 eV  659.17 nm  f=0.0000  <S**2>=0.000
     312 -> 313        0.70710

 Excited State   4:      Singlet-A      2.0373 eV  608.57 nm  f=0.0000  <S**2>=0.000
     311 -> 314        0.70710

 Excited State   5:      Singlet-A      2.2119 eV  560.53 nm  f=0.1040  <S**2>=0.000
     310 -> 313        0.65040
     311 -> 315       -0.26771

 The electronic state is 1-A.
 Alpha  occ. eigenvalues --  -46.92006 -46.91328 -19.26004 -19.25611 -19.20223
 Alpha  occ. eigenvalues --  -19.19755 -19.19553 -19.19450 -19.19418 -19.18539
 Alpha  occ. eigenvalues --  -14.41998 -14.41621 -14.41601 -14.41016 -14.39401
 Alpha  occ. eigenvalues --  -14.38920 -14.38903 -14.38901 -10.36607 -10.35758
 Alpha  occ. eigenvalues --  -10.32902 -10.32853 -10.32822 -10.32525 -10.29255
 Alpha  occ. eigenvalues --  -10.29194 -10.29005 -10.28987 -10.28958 -10.28898
 Alpha  occ. eigenvalues --  -10.28531 -10.28457 -10.28385 -10.28286 -10.28087
 Alpha  occ. eigenvalues --  -10.27819 -10.27644 -10.27348 -10.27217 -10.27120
 Alpha  occ. eigenvalues --  -10.27036 -10.26943 -10.26884 -10.26656 -10.26571
 Alpha  occ. eigenvalues --  -10.26524 -10.26438 -10.26228 -10.26083 -10.25966
 Alpha  occ. eigenvalues --  -10.25966 -10.25959 -10.25936 -10.25925 -10.25774
 Alpha  occ. eigenvalues --  -10.25740 -10.25731 -10.25511 -10.25392 -10.25386
 Alpha  occ. eigenvalues --  -10.25381 -10.25027 -10.24977 -10.24935 -10.24906
 Alpha  occ. eigenvalues --  -10.24697 -10.24455 -10.24306 -10.24177 -10.23977
 Alpha  occ. eigenvalues --  -10.23899 -10.23784 -10.23719 -10.23574 -10.23493
 Alpha  occ. eigenvalues --  -10.23452 -10.23430 -10.23407 -10.23344 -10.23162
 Alpha  occ. eigenvalues --  -10.23131 -10.23095 -10.23022 -10.22979 -10.22401
 Alpha  occ. eigenvalues --  -10.21950  -3.14180  -3.13606  -1.87023  -1.86557
 Alpha  occ. eigenvalues --   -1.86451  -1.86408  -1.85957  -1.85857  -1.12692
 Alpha  occ. eigenvalues --   -1.09820  -1.07618  -1.04933  -1.04569  -1.03403
 Alpha  occ. eigenvalues --   -1.02191  -1.01396  -1.00084  -0.99786  -0.98492
 Alpha  occ. eigenvalues --   -0.98208  -0.97568  -0.97482  -0.96791  -0.96340
 Alpha  occ. eigenvalues --   -0.86361  -0.86130  -0.83882  -0.83313  -0.83264
 Alpha  occ. eigenvalues --   -0.82993  -0.82845  -0.82361  -0.81912  -0.81427
 Alpha  occ. eigenvalues --   -0.81233  -0.81131  -0.80595  -0.79564  -0.78732
 Alpha  occ. eigenvalues --   -0.78448  -0.77934  -0.77849  -0.77221  -0.76811
 Alpha  occ. eigenvalues --   -0.76719  -0.76057  -0.75274  -0.75243  -0.74890
 Alpha  occ. eigenvalues --   -0.74709  -0.72918  -0.72565  -0.71913  -0.71550
 Alpha  occ. eigenvalues --   -0.71249  -0.71032  -0.70642  -0.70092  -0.69534
 Alpha  occ. eigenvalues --   -0.69220  -0.66840  -0.66679  -0.66274  -0.65913
 Alpha  occ. eigenvalues --   -0.63588  -0.63538  -0.62929  -0.62696  -0.62289
 Alpha  occ. eigenvalues --   -0.62094  -0.61309  -0.61139  -0.60257  -0.60119
 Alpha  occ. eigenvalues --   -0.59766  -0.59439  -0.59169  -0.58826  -0.58792
 Alpha  occ. eigenvalues --   -0.58546  -0.57136  -0.56355  -0.55309  -0.54743
 Alpha  occ. eigenvalues --   -0.54090  -0.54050  -0.53672  -0.53439  -0.53161
 Alpha  occ. eigenvalues --   -0.52750  -0.52473  -0.52331  -0.52299  -0.51615
 Alpha  occ. eigenvalues --   -0.51179  -0.50431  -0.50254  -0.50061  -0.49815
 Alpha  occ. eigenvalues --   -0.49667  -0.49319  -0.48945  -0.48858  -0.48592
 Alpha  occ. eigenvalues --   -0.48477  -0.48171  -0.47955  -0.47914  -0.47469
 Alpha  occ. eigenvalues --   -0.47463  -0.47287  -0.47048  -0.46940  -0.46789
 Alpha  occ. eigenvalues --   -0.46718  -0.46224  -0.46154  -0.46147  -0.45876
 Alpha  occ. eigenvalues --   -0.45744  -0.45379  -0.45026  -0.44975  -0.44739
 Alpha  occ. eigenvalues --   -0.44663  -0.44617  -0.44429  -0.44266  -0.44155
 Alpha  occ. eigenvalues --   -0.44129  -0.43970  -0.43821  -0.43604  -0.43527
 Alpha  occ. eigenvalues --   -0.43265  -0.43186  -0.42973  -0.42915  -0.42657
 Alpha  occ. eigenvalues --   -0.42647  -0.42437  -0.42424  -0.42252  -0.41645
 Alpha  occ. eigenvalues --   -0.41396  -0.41318  -0.41317  -0.41029  -0.40993
 Alpha  occ. eigenvalues --   -0.40854  -0.40786  -0.40695  -0.40432  -0.40386
 Alpha  occ. eigenvalues --   -0.40261  -0.40217  -0.40060  -0.39856  -0.39797
 Alpha  occ. eigenvalues --   -0.39685  -0.39572  -0.39462  -0.39200  -0.39146
 Alpha  occ. eigenvalues --   -0.38947  -0.38915  -0.38847  -0.38570  -0.38174
 Alpha  occ. eigenvalues --   -0.38122  -0.38083  -0.37938  -0.37751  -0.37687
 Alpha  occ. eigenvalues --   -0.37502  -0.37427  -0.36748  -0.36740  -0.36461
 Alpha  occ. eigenvalues --   -0.36404  -0.36359  -0.36310  -0.36170  -0.36152
 Alpha  occ. eigenvalues --   -0.36009  -0.35770  -0.35396  -0.35393  -0.35162
 Alpha  occ. eigenvalues --   -0.35077  -0.34866  -0.34469  -0.34035  -0.33613
 Alpha  occ. eigenvalues --   -0.33469  -0.32989  -0.32957  -0.32682  -0.32296
 Alpha  occ. eigenvalues --   -0.31925  -0.31784  -0.31616  -0.31433  -0.31395
 Alpha  occ. eigenvalues --   -0.30933  -0.30920  -0.29736  -0.29516  -0.29237
 Alpha  occ. eigenvalues --   -0.28906  -0.28355  -0.28130  -0.27309  -0.26790
 Alpha  occ. eigenvalues --   -0.26372  -0.26206  -0.26018  -0.25995  -0.25752
 Alpha  occ. eigenvalues --   -0.25661  -0.25143  -0.24737  -0.20900  -0.20864
 Alpha  occ. eigenvalues --   -0.18827  -0.18429
 Alpha virt. eigenvalues --   -0.11110  -0.10930  -0.05437  -0.04899  -0.04437
 Alpha virt. eigenvalues --   -0.03826  -0.02326  -0.01924  -0.00220  -0.00155
 Alpha virt. eigenvalues --    0.00159   0.01016   0.01417   0.01571   0.01742

 Mulliken charges:
               1
     1  Mg  12.000289
     2  C    5.999107
     3  C    6.000035
     4  C    6.001186
     5  C    5.999742
     6  N    6.999454
     7  C    6.001596
     8  C    5.999239
     9  C    6.000553
    10  C    5.998516
    11  C    6.000232
    12  C    5.999850
    13  C    5.999861
    14  H    1.000303
    15  N    7.000336
    16  C    5.998410
    17  C    5.999133
    18  C    5.999047
    19  C    5.998772
    20  C    6.000321
    21  C    5.999359
    22  O    7.998585
    23  C    6.000230
    24  N    7.000498
    25  C    5.998040
    26  C    6.000336
    27  C    5.999654
    28  C    6.001247
    29  C    6.000137
    30  C    5.999853
    31  C    5.999976
    32  N    6.999998
    33  C    6.001318
    34  C    6.001545
    35  C    6.000049
    36  C    6.001498
    37  C    5.999931
    38  C    6.000951
    39  O    8.001455
    40  C    6.000035
    41  C    6.000020
    42  O    8.000284
    43  O    8.000097
    44  C    5.999917
    45  H    0.999315
    46  H    0.999803
    47  H    1.000533
    48  H    0.999990
    49  H    1.000024
    50  H    0.999334
    51  H    1.000139
    52  H    0.999599
    53  H    1.000359
    54  H    1.000085
    55  H    0.999923
    56  H    0.999910
    57  H    0.999109
    58  H    0.999239
    59  H    0.999001
    60  H    0.999742
    61  H    0.999576
    62  H    0.999248
    63  H    1.000077
    64  H    1.000054
    65  H    1.000187
    66  H    0.999582
    67  H    0.999844
    68  H    0.999945
    69  H    1.000574
    70  H    1.000047
    71  H    1.000296
    72  H    0.999858
    73  H    1.000841
    74  H    1.000867
    75  H    1.000952
    76  H    1.000530
    77  H    1.000180
    78  H    1.000229
    79  H    1.000011
    80  Mg  12.001684
    81  C    5.975800
    82  C    5.995331
    83  C    6.028971
    84  C    6.007048
    85  N    6.988074
    86  C    6.033203
    87  C    5.990457
    88  C    6.008195
    89  C    5.974212
    90  C    6.006269
    91  C    5.998370
    92  C    5.999916
    93  H    1.005211
    94  N    7.004610
    95  C    5.966980
    96  C    5.978019
    97  C    5.988385
    98  C    5.960746
    99  C    6.001458
   100  C    5.986195
   101  O    7.972271
   102  C    6.009596
   103  N    7.017886
   104  C    5.963951
   105  C    6.003864
   106  C    5.991770
   107  C    6.020559
   108  C    5.998942
   109  C    5.994538
   110  C    5.996845
   111  N    6.997858
   112  C    6.023883
   113  C    6.035912
   114  C    6.003854
   115  C    6.027302
   116  C    5.995298
   117  C    6.014925
   118  O    8.023762
   119  C    6.004256
   120  C    6.002781
   121  O    8.008592
   122  O    8.000156
   123  C    5.997956
   124  H    0.988654
   125  H    0.996062
   126  H    1.014234
   127  H    1.000169
   128  H    0.995596
   129  H    0.990189
   130  H    0.988051
   131  H    1.006989
   132  H    1.007042
   133  H    0.993190
   134  H    0.995431
   135  H    1.001029
   136  H    0.982722
   137  H    0.985166
   138  H    0.983839
   139  H    0.994429
   140  H    0.986053
   141  H    0.989272
   142  H    1.003664
   143  H    1.001986
   144  H    0.989479
   145  H    1.003031
   146  H    1.001601
   147  H    1.011568
   148  H    0.998643
   149  H    0.993599
   150  H    1.011967
   151  H    1.007271
   152  H    1.017936
   153  H    1.015448
   154  H    1.023371
   155  H    1.006169
   156  H    1.000795
   157  H    1.006102
   158  H    1.003363
 Sum of Mulliken charges = 624.00000

 Dipole moment (field-independent basis, Debye):
    X=             -9.9391    Y=             -0.6431    Z=              2.7464  Tot=             10.3316
 Quadrupole moment (field-independent basis, Debye-Ang):
   XX=            298.0844   YY=              4.0362   ZZ=             -1.7448
   XY=             20.0322   XZ=            -56.3774   YZ=             -3.8804

 Normal termination of Gaussian 16 at Fri Oct 15 12:22:43 2021.
