 Gaussian 16, Revision A.03,
 Gaussian 16:  ES64L-G16RevA.03 25-Dec-2016

 --------------------------------------------------------
 #p PBE1PBE/Def2SVP td=(nstates=5) density=(transition=1)
 --------------------------------------------------------

 --------------------------------
 TDDFT excited states in gaussian
 --------------------------------
 Symbolic Z-matrix:
 Charge =  0 Multiplicity = 1

                         Standard orientation:
 ---------------------------------------------------------------------
 Center     Atomic      Atomic             Coordinates (Angstroms)
 Number     Number       Type             X           Y           Z
 ---------------------------------------------------------------------
      1         12           0       33.526492    0.050085    0.152942
      2          6           0       30.053151   -0.260042    0.560382
      3          6           0       33.675225   -3.306063   -0.353494
      4          6           0       36.660708    0.554050   -0.633886
      5          6           0       32.889069    3.583847   -0.116542
      6          7           0       32.045071   -1.555191    0.182267
      7          6           0       30.691605   -1.463678    0.345324
      8          6           0       30.068146   -2.809599   -0.053602
      9          6           0       31.211891   -3.778685    0.224626
     10          6           0       32.382782   -2.830039   -0.096349
     11          6           0       31.249969   -4.258998    1.693805
     12          6           0       29.632388   -2.815428   -1.565539
     13          6           0       28.064709   -2.904096   -1.908636
     14          1           0       27.403888   -1.753673   -2.687039
     15          7           0       34.957793   -1.191162   -0.471139
     16          6           0       34.837857   -2.555966   -0.598571
     17          6           0       36.133345   -3.092712   -0.876151
     18          6           0       37.097256   -2.030991   -0.856030
     19          6           0       36.272156   -0.804704   -0.654761
     20          6           0       36.400121   -4.618912   -1.111634
     21          6           0       38.650769   -2.223897   -0.997362
     22          8           0       39.115421   -3.321410   -1.038130
     23          6           0       39.511582   -1.065021   -0.794095
     24          7           0       34.558155    1.804810   -0.622756
     25          6           0       35.903010    1.730701   -0.481833
     26          6           0       36.551453    3.076835   -0.205483
     27          6           0       35.410108    4.060471   -0.413843
     28          6           0       34.175566    3.093585   -0.392014
     29          6           0       37.166294    3.176943    1.239444
     30          6           0       35.413955    5.014632   -1.699423
     31          6           0       35.686244    6.491345   -1.595738
     32          7           0       31.912190    1.416705    0.402519
     33          6           0       31.795428    2.805961    0.266163
     34          6           0       30.428580    3.246833    0.442170
     35          6           0       29.727004    2.075250    0.586955
     36          6           0       30.631511    0.963876    0.536803
     37          6           0       29.964188    4.642119    0.375603
     38          6           0       28.392659    1.528506    0.780069
     39          8           0       27.320285    2.115361    0.970730
     40          6           0       28.560253    0.026888    0.879411
     41          6           0       28.089693   -0.389725    2.268675
     42          8           0       28.611425    0.078684    3.277917
     43          8           0       26.960510   -1.220852    2.204493
     44          6           0       26.441601   -1.625116    3.483798
     45          1           0       33.709311   -4.397238   -0.354878
     46          1           0       37.746023    0.650446   -0.576632
     47          1           0       32.723593    4.663071   -0.089002
     48          1           0       29.140418   -2.903871    0.511342
     49          1           0       31.112388   -4.622153   -0.457435
     50          1           0       31.324341   -5.330470    1.511330
     51          1           0       30.291889   -3.946673    2.110250
     52          1           0       32.064686   -3.884606    2.313733
     53          1           0       30.071880   -3.701516   -2.023408
     54          1           0       30.107911   -1.962308   -2.048796
     55          1           0       27.560463   -2.897445   -0.942010
     56          1           0       27.757623   -3.828614   -2.396119
     57          1           0       36.974826   -4.908102   -1.990968
     58          1           0       35.414332   -5.079570   -1.183585
     59          1           0       36.906050   -5.092087   -0.269873
     60          1           0       39.316485   -0.234669   -1.473085
     61          1           0       40.547445   -1.382361   -0.913735
     62          1           0       39.526848   -0.789635    0.259541
     63          1           0       37.403203    3.273493   -0.857453
     64          1           0       35.294783    4.696338    0.463939
     65          1           0       38.241963    3.003267    1.263563
     66          1           0       36.588127    2.557242    1.924842
     67          1           0       37.017610    4.203523    1.577365
     68          1           0       34.617882    4.889843   -2.432660
     69          1           0       36.291256    4.558477   -2.158853
     70          1           0       36.619263    6.795677   -2.068983
     71          1           0       35.751235    6.777176   -0.545613
     72          1           0       34.825884    6.957385   -2.075488
     73          1           0       30.670595    5.197271   -0.242164
     74          1           0       30.041430    5.022824    1.394427
     75          1           0       28.926949    4.702089    0.049188
     76          1           0       27.861480   -0.336348    0.127051
     77          1           0       27.013053   -2.411452    3.977692
     78          1           0       25.417425   -1.988414    3.403883
     79          1           0       26.366186   -0.819227    4.213332
     80         12           0      -33.062504    0.521770    0.411561
     81          6           0      -30.841700   -2.066887   -0.132789
     82          6           0      -30.682512    2.691519   -0.804232
     83          6           0      -35.444498    2.996536    0.382532
     84          6           0      -35.428360   -1.725488    1.508714
     85          7           0      -31.097835    0.315911   -0.554525
     86          6           0      -30.373118   -0.859075   -0.590287
     87          6           0      -28.980808   -0.650960   -1.180179
     88          6           0      -28.834283    0.912163   -1.064848
     89          6           0      -30.281663    1.326493   -0.843460
     90          6           0      -27.784574    1.473854   -0.002378
     91          6           0      -28.734332   -1.242217   -2.604823
     92          6           0      -27.431761   -1.991755   -2.789395
     93          1           0      -26.463761   -1.245000   -3.693904
     94          7           0      -33.031070    2.522014   -0.150614
     95          6           0      -31.978450    3.222148   -0.588210
     96          6           0      -32.326828    4.621356   -0.764480
     97          6           0      -33.662444    4.825500   -0.460481
     98          6           0      -34.141541    3.422201   -0.100543
     99          6           0      -31.290929    5.702842   -1.334894
    100          6           0      -34.427363    6.191722   -0.431747
    101          8           0      -33.816576    7.235215   -0.798725
    102          6           0      -35.851689    6.285092   -0.037794
    103          7           0      -35.283305    0.591322    0.660155
    104          6           0      -35.961029    1.710833    0.768617
    105          6           0      -37.307098    1.520905    1.436046
    106          6           0      -37.434318   -0.006974    1.756949
    107          6           0      -35.941672   -0.443994    1.366965
    108          6           0      -37.790460    2.533582    2.522808
    109          6           0      -38.500194   -0.880900    1.034435
    110          6           0      -38.768307   -2.192805    1.742539
    111          7           0      -33.138862   -1.530663    0.639180
    112          6           0      -34.165820   -2.330902    1.191120
    113          6           0      -33.666682   -3.674602    1.299695
    114          6           0      -32.333772   -3.642633    0.822153
    115          6           0      -32.123008   -2.329387    0.411128
    116          6           0      -34.331492   -4.832032    2.029910
    117          6           0      -31.225848   -4.441844    0.640832
    118          8           0      -30.990380   -5.615428    0.737382
    119          6           0      -30.201215   -3.473130   -0.149427
    120          6           0      -30.325680   -3.918390   -1.605724
    121          8           0      -31.212363   -3.596439   -2.373007
    122          8           0      -29.255260   -4.761329   -1.857560
    123          6           0      -29.238202   -5.394525   -3.172251
    124          1           0      -29.916331    3.447475   -0.987612
    125          1           0      -36.146417    3.832429    0.361905
    126          1           0      -36.020634   -2.521840    1.964196
    127          1           0      -28.263974   -1.080451   -0.480931
    128          1           0      -28.659370    1.282018   -2.075807
    129          1           0      -28.180066    2.471630    0.187389
    130          1           0      -26.795729    1.677507   -0.413994
    131          1           0      -27.653609    0.896596    0.912791
    132          1           0      -28.752367   -0.359464   -3.244304
    133          1           0      -29.558921   -1.787976   -3.062943
    134          1           0      -27.677565   -2.968311   -3.207176
    135          1           0      -26.903256   -2.148670   -1.848890
    136          1           0      -30.313001    5.307993   -1.613521
    137          1           0      -31.135842    6.502966   -0.610349
    138          1           0      -31.597060    6.125232   -2.290954
    139          1           0      -35.971496    5.920784    0.982025
    140          1           0      -36.506927    5.851316   -0.793291
    141          1           0      -36.011362    7.352405    0.110221
    142          1           0      -38.172001    1.582130    0.775198
    143          1           0      -37.377168   -0.215180    2.825613
    144          1           0      -37.112392    3.385655    2.458010
    145          1           0      -37.896192    2.097188    3.516693
    146          1           0      -38.780582    2.950228    2.337403
    147          1           0      -38.148329   -0.996232    0.009346
    148          1           0      -39.376537   -0.235728    0.973031
    149          1           0      -39.810070   -2.456691    1.558638
    150          1           0      -38.626127   -2.177447    2.823767
    151          1           0      -38.199478   -2.982690    1.251945
    152          1           0      -33.686303   -5.700940    2.159952
    153          1           0      -35.235438   -5.091516    1.480390
    154          1           0      -34.659285   -4.534997    3.026178
    155          1           0      -29.207501   -3.494819    0.299025
    156          1           0      -30.085871   -6.074501   -3.258636
    157          1           0      -28.292152   -5.898324   -3.367466
    158          1           0      -29.394689   -4.637848   -3.940534
 ---------------------------------------------------------------------

 SCF Done:  E(RPBE1PBE) =  -4067.37862325     A.U. after   17 cycles

 Excitation energies and oscillator strengths:

 Excited State   1:      Singlet-A      1.8785 eV  660.01 nm  f=0.3507  <S**2>=0.000
     309 -> 315       -0.18341
     312 -> 314        0.69002
     312 <- 314       -0.10095
 This state for optimization and/or second-order correction.
 Total Energy, E(TD-HF/TD-DFT) =  -4067.30958858
 Copying the excited state density for this state as the 1-particle RhoCI density.

 Excited State   2:      Singlet-A      1.8858 eV  657.46 nm  f=0.3630  <S**2>=0.000
     310 -> 316        0.14492
     311 -> 313        0.69236

 Excited State   3:      Singlet-A      2.0081 eV  617.41 nm  f=0.0000  <S**2>=0.000
     312 -> 313        0.70711

 Excited State   4:      Singlet-A      2.1401 eV  579.35 nm  f=0.0000  <S**2>=0.000
     311 -> 314        0.70711

 Excited State   5:      Singlet-A      2.2300 eV  555.98 nm  f=0.1180  <S**2>=0.000
     310 -> 313        0.65862
     311 -> 316       -0.22013
     311 -> 317       -0.11497

 The electronic state is 1-A.
 Alpha  occ. eigenvalues --  -46.92788 -46.92074 -19.26659 -19.25315 -19.20769
 Alpha  occ. eigenvalues --  -19.20267 -19.20070 -19.19309 -19.18918 -19.18468
 Alpha  occ. eigenvalues --  -14.41715 -14.41637 -14.41589 -14.41580 -14.39971
 Alpha  occ. eigenvalues --  -14.39073 -14.38994 -14.38412 -10.37257 -10.36295
 Alpha  occ. eigenvalues --  -10.33825 -10.32214 -10.31643 -10.30937 -10.30217
 Alpha  occ. eigenvalues --  -10.29678 -10.29006 -10.28875 -10.28863 -10.28709
 Alpha  occ. eigenvalues --  -10.28535 -10.28527 -10.28469 -10.28395 -10.28334
 Alpha  occ. eigenvalues --  -10.28114 -10.27841 -10.27435 -10.27284 -10.26860
 Alpha  occ. eigenvalues --  -10.26835 -10.26808 -10.26358 -10.26225 -10.26118
 Alpha  occ. eigenvalues --  -10.26045 -10.26011 -10.25986 -10.25978 -10.25935
 Alpha  occ. eigenvalues --  -10.25826 -10.25711 -10.25684 -10.25593 -10.25523
 Alpha  occ. eigenvalues --  -10.25399 -10.25377 -10.25319 -10.25281 -10.25258
 Alpha  occ. eigenvalues --  -10.25131 -10.24880 -10.24745 -10.24556 -10.24549
 Alpha  occ. eigenvalues --  -10.24548 -10.24529 -10.24522 -10.24517 -10.24504
 Alpha  occ. eigenvalues --  -10.24500 -10.24448 -10.24375 -10.24282 -10.24078
 Alpha  occ. eigenvalues --  -10.23830 -10.23734 -10.23622 -10.23608 -10.23347
 Alpha  occ. eigenvalues --  -10.23336 -10.23117 -10.23113 -10.23000 -10.22771
 Alpha  occ. eigenvalues --  -10.21435  -3.14810  -3.14263  -1.87633  -1.87187
 Alpha  occ. eigenvalues --   -1.87077  -1.87037  -1.86653  -1.86486  -1.10700
 Alpha  occ. eigenvalues --   -1.10362  -1.06701  -1.05030  -1.03778  -1.03478
 Alpha  occ. eigenvalues --   -1.02992  -1.02885  -0.99374  -0.99159  -0.98887
 Alpha  occ. eigenvalues --   -0.98372  -0.97894  -0.97487  -0.97205  -0.96777
 Alpha  occ. eigenvalues --   -0.87371  -0.86228  -0.83469  -0.83445  -0.83262
 Alpha  occ. eigenvalues --   -0.82857  -0.82755  -0.82171  -0.81915  -0.81448
 Alpha  occ. eigenvalues --   -0.81373  -0.80570  -0.80355  -0.79322  -0.78848
 Alpha  occ. eigenvalues --   -0.78644  -0.78514  -0.77928  -0.77227  -0.76813
 Alpha  occ. eigenvalues --   -0.76755  -0.76347  -0.75373  -0.75186  -0.75179
 Alpha  occ. eigenvalues --   -0.74595  -0.72339  -0.71978  -0.71524  -0.71343
 Alpha  occ. eigenvalues --   -0.70924  -0.70704  -0.70580  -0.69745  -0.69477
 Alpha  occ. eigenvalues --   -0.69447  -0.67307  -0.66936  -0.66593  -0.66109
 Alpha  occ. eigenvalues --   -0.64082  -0.63477  -0.63404  -0.63023  -0.62490
 Alpha  occ. eigenvalues --   -0.62476  -0.61606  -0.61226  -0.60257  -0.60080
 Alpha  occ. eigenvalues --   -0.60020  -0.59907  -0.59403  -0.59212  -0.59024
 Alpha  occ. eigenvalues --   -0.58705  -0.57271  -0.56392  -0.54752  -0.54608
 Alpha  occ. eigenvalues --   -0.54352  -0.54144  -0.53733  -0.53563  -0.53478
 Alpha  occ. eigenvalues --   -0.52985  -0.52955  -0.52522  -0.52282  -0.52062
 Alpha  occ. eigenvalues --   -0.50844  -0.50829  -0.50671  -0.50124  -0.49796
 Alpha  occ. eigenvalues --   -0.49689  -0.49387  -0.48715  -0.48574  -0.48336
 Alpha  occ. eigenvalues --   -0.48134  -0.48088  -0.48023  -0.47758  -0.47686
 Alpha  occ. eigenvalues --   -0.47606  -0.47436  -0.47209  -0.47164  -0.46743
 Alpha  occ. eigenvalues --   -0.46602  -0.46311  -0.46197  -0.45702  -0.45606
 Alpha  occ. eigenvalues --   -0.45488  -0.45470  -0.45220  -0.45119  -0.44743
 Alpha  occ. eigenvalues --   -0.44743  -0.44536  -0.44455  -0.44262  -0.44149
 Alpha  occ. eigenvalues --   -0.43973  -0.43895  -0.43740  -0.43667  -0.43374
 Alpha  occ. eigenvalues --   -0.43297  -0.43249  -0.43001  -0.42864  -0.42739
 Alpha  occ. eigenvalues --   -0.42253  -0.42235  -0.42013  -0.41838  -0.41600
 Alpha  occ. eigenvalues --   -0.41298  -0.41257  -0.41033  -0.41023  -0.40998
 Alpha  occ. eigenvalues --   -0.40851  -0.40814  -0.40706  -0.40594  -0.40124
 Alpha  occ. eigenvalues --   -0.40080  -0.40019  -0.40002  -0.39924  -0.39570
 Alpha  occ. eigenvalues --   -0.39437  -0.39212  -0.39067  -0.38994  -0.38873
 Alpha  occ. eigenvalues --   -0.38799  -0.38637  -0.38506  -0.38377  -0.38244
 Alpha  occ. eigenvalues --   -0.38133  -0.37895  -0.37851  -0.37497  -0.37388
 Alpha  occ. eigenvalues --   -0.37377  -0.37232  -0.37176  -0.37065  -0.37024
 Alpha  occ. eigenvalues --   -0.36856  -0.36828  -0.36549  -0.36452  -0.36445
 Alpha  occ. eigenvalues --   -0.36007  -0.35842  -0.35801  -0.35589  -0.35359
 Alpha  occ. eigenvalues --   -0.35276  -0.35092  -0.34930  -0.34892  -0.34184
 Alpha  occ. eigenvalues --   -0.33947  -0.33891  -0.33028  -0.32978  -0.32466
 Alpha  occ. eigenvalues --   -0.32434  -0.32060  -0.31711  -0.31592  -0.31542
 Alpha  occ. eigenvalues --   -0.31412  -0.30475  -0.29908  -0.29700  -0.29641
 Alpha  occ. eigenvalues --   -0.29255  -0.29007  -0.28695  -0.27213  -0.26953
 Alpha  occ. eigenvalues --   -0.26764  -0.26387  -0.26112  -0.25847  -0.25576
 Alpha  occ. eigenvalues --   -0.25301  -0.25260  -0.24928  -0.21281  -0.20862
 Alpha  occ. eigenvalues --   -0.18940  -0.18666
 Alpha virt. eigenvalues --   -0.11087  -0.10876  -0.05640  -0.05467  -0.03908
 Alpha virt. eigenvalues --   -0.03700  -0.02510  -0.01875  -0.00924  -0.00872
 Alpha virt. eigenvalues --   -0.00348   0.00759   0.00894   0.01269   0.01775

 Mulliken charges:
               1
     1  Mg  12.000431
     2  C    6.021816
     3  C    5.985839
     4  C    5.982773
     5  C    6.011529
     6  N    7.004274
     7  C    5.970243
     8  C    5.999919
     9  C    5.992636
    10  C    6.031492
    11  C    5.998606
    12  C    6.000911
    13  C    5.999649
    14  H    1.005472
    15  N    6.993731
    16  C    6.038618
    17  C    6.018261
    18  C    6.011099
    19  C    6.036904
    20  C    5.997350
    21  C    6.014055
    22  O    8.017021
    23  C    5.993157
    24  N    7.001441
    25  C    6.031150
    26  C    5.991792
    27  C    6.005375
    28  C    5.966901
    29  C    5.995642
    30  C    6.009065
    31  C    5.999218
    32  N    7.001418
    33  C    5.965484
    34  C    5.971198
    35  C    6.000592
    36  C    5.967228
    37  C    6.002135
    38  C    5.979643
    39  O    7.969609
    40  C    6.003113
    41  C    5.992865
    42  O    7.997981
    43  O    7.997555
    44  C    6.002925
    45  H    1.010712
    46  H    1.008050
    47  H    0.990729
    48  H    1.004492
    49  H    1.002238
    50  H    1.000974
    51  H    1.015406
    52  H    0.998983
    53  H    0.987705
    54  H    1.000355
    55  H    1.002179
    56  H    0.995923
    57  H    1.016666
    58  H    1.015393
    59  H    1.017703
    60  H    1.009674
    61  H    1.012460
    62  H    1.009326
    63  H    0.999482
    64  H    1.000603
    65  H    0.997795
    66  H    1.003063
    67  H    1.011360
    68  H    1.000396
    69  H    0.986764
    70  H    0.994465
    71  H    0.998399
    72  H    1.001765
    73  H    0.983510
    74  H    0.981488
    75  H    0.986239
    76  H    0.990093
    77  H    0.993033
    78  H    0.995591
    79  H    0.998873
    80  Mg  11.999982
    81  C    6.000152
    82  C    5.999836
    83  C    5.999927
    84  C    6.000096
    85  N    7.000075
    86  C    5.999779
    87  C    6.000087
    88  C    5.999921
    89  C    6.000293
    90  C    6.000001
    91  C    6.000032
    92  C    6.000011
    93  H    0.999954
    94  N    6.999991
    95  C    6.000278
    96  C    6.000194
    97  C    6.000118
    98  C    6.000232
    99  C    5.999981
   100  C    6.000116
   101  O    8.000163
   102  C    5.999955
   103  N    7.000034
   104  C    6.000244
   105  C    5.999867
   106  C    6.000025
   107  C    5.999742
   108  C    6.000003
   109  C    6.000033
   110  C    6.000041
   111  N    6.999965
   112  C    5.999626
   113  C    5.999789
   114  C    6.000042
   115  C    5.999743
   116  C    5.999993
   117  C    5.999802
   118  O    7.999746
   119  C    6.000000
   120  C    5.999955
   121  O    7.999955
   122  O    7.999998
   123  C    6.000012
   124  H    1.000108
   125  H    1.000044
   126  H    0.999928
   127  H    1.000025
   128  H    1.000009
   129  H    0.999951
   130  H    1.000081
   131  H    1.000093
   132  H    0.999919
   133  H    1.000013
   134  H    1.000017
   135  H    1.000009
   136  H    1.000154
   137  H    1.000136
   138  H    1.000136
   139  H    1.000068
   140  H    1.000062
   141  H    1.000093
   142  H    1.000052
   143  H    1.000016
   144  H    0.999955
   145  H    1.000066
   146  H    1.000013
   147  H    0.999977
   148  H    0.999904
   149  H    0.999946
   150  H    0.999986
   151  H    1.000049
   152  H    0.999898
   153  H    0.999842
   154  H    0.999839
   155  H    0.999919
   156  H    0.999983
   157  H    0.999965
   158  H    0.999954
 Sum of Mulliken charges = 624.00000

 Dipole moment (field-independent basis, Debye):
    X=              7.6372    Y=             -6.1736    Z=             -1.4165  Tot=              9.9220
 Quadrupole moment (field-independent basis, Debye-Ang):
   XX=            506.9008   YY=             -1.3941   ZZ=             -0.4294
   XY=           -212.2248   XZ=            -45.4567   YZ=              1.8266

 Normal termination of Gaussian 16 at Fri Oct 15 16:01:32 2021.
