 Gaussian 16, Revision A.03,
 Gaussian 16:  ES64L-G16RevA.03 25-Dec-2016

 --------------------------------------------------------
 #p PBE1PBE/Def2SVP td=(nstates=5) density=(transition=1)
 --------------------------------------------------------

 --------------------------------
 TDDFT excited states in gaussian
 --------------------------------
 Symbolic Z-matrix:
 Charge =  0 Multiplicity = 1

                         Standard orientation:
 ---------------------------------------------------------------------
 Center     Atomic      Atomic             Coordinates (Angstroms)
 Number     Number       Type             X           Y           Z
 ---------------------------------------------------------------------
      1         12           0       28.746041    0.210052   -0.476744
      2          6           0       26.847748   -1.897264    1.660991
      3          6           0       28.516454    2.620949    2.101410
      4          6           0       30.165002    2.373977   -2.463781
      5          6           0       28.568326   -2.228660   -2.950140
      6          7           0       27.762628    0.352133    1.681093
      7          6           0       27.148077   -0.704920    2.306440
      8          6           0       26.789130   -0.416720    3.754344
      9          6           0       27.232535    1.107664    3.816718
     10          6           0       27.917545    1.385362    2.469752
     11          6           0       26.060011    2.002707    4.206976
     12          6           0       27.588922   -1.330473    4.708761
     13          6           0       26.887360   -1.846535    6.022539
     14          1           0       25.653630   -1.071548    6.542267
     15          7           0       29.346203    2.207163   -0.202638
     16          6           0       29.084100    3.027042    0.895364
     17          6           0       29.674385    4.348377    0.628998
     18          6           0       30.251459    4.250139   -0.679068
     19          6           0       29.952975    2.876640   -1.127874
     20          6           0       29.556256    5.460231    1.528061
     21          6           0       30.996967    5.319629   -1.471005
     22          8           0       31.356847    5.114777   -2.641164
     23          6           0       31.465080    6.558089   -0.813431
     24          7           0       29.198681    0.125206   -2.468539
     25          6           0       29.880100    1.121908   -3.039632
     26          6           0       30.151468    0.824080   -4.550107
     27          6           0       29.817093   -0.699359   -4.629229
     28          6           0       29.147062   -0.981628   -3.321143
     29          6           0       29.369806    1.756469   -5.544147
     30          6           0       31.214089   -1.423504   -4.725301
     31          6           0       31.927829   -1.941159   -3.429161
     32          7           0       27.996677   -1.707956   -0.629080
     33          6           0       27.993913   -2.578314   -1.734149
     34          6           0       27.240150   -3.800842   -1.360465
     35          6           0       26.749650   -3.528590   -0.088730
     36          6           0       27.218379   -2.312373    0.361054
     37          6           0       26.900961   -4.790461   -2.368447
     38          6           0       25.825986   -4.062861    0.908990
     39          8           0       25.161934   -5.091366    0.846444
     40          6           0       25.821237   -3.001446    2.106987
     41          6           0       24.453536   -2.488900    2.364705
     42          8           0       23.962828   -1.465574    1.896592
     43          8           0       23.799290   -3.358379    3.257819
     44          6           0       22.424301   -3.145396    3.649435
     45          1           0       28.707664    3.322131    2.916903
     46          1           0       30.658155    3.041457   -3.174049
     47          1           0       28.619161   -2.929110   -3.785996
     48          1           0       25.724020   -0.535442    3.954886
     49          1           0       27.898059    1.187728    4.675800
     50          1           0       26.233213    2.633396    5.078241
     51          1           0       25.109653    1.499503    4.385201
     52          1           0       25.937746    2.719458    3.393842
     53          1           0       28.519246   -0.851865    5.014355
     54          1           0       27.838694   -2.148389    4.032052
     55          1           0       27.571544   -1.779275    6.867733
     56          1           0       26.804330   -2.925492    5.892011
     57          1           0       30.569504    5.828119    1.690865
     58          1           0       28.909679    5.214420    2.369896
     59          1           0       28.929004    6.121873    0.929829
     60          1           0       30.662062    7.258034   -0.580509
     61          1           0       32.135567    7.092407   -1.486251
     62          1           0       31.864117    6.281707    0.162096
     63          1           0       31.211020    1.079509   -4.566243
     64          1           0       29.247355   -0.944373   -5.525945
     65          1           0       30.008378    2.580523   -5.862640
     66          1           0       28.445625    2.041663   -5.042539
     67          1           0       29.118885    1.131874   -6.401318
     68          1           0       31.861609   -0.865239   -5.401734
     69          1           0       30.951774   -2.398666   -5.136683
     70          1           0       32.964492   -1.641148   -3.579440
     71          1           0       31.901624   -3.027276   -3.332073
     72          1           0       31.600612   -1.496300   -2.490034
     73          1           0       26.484510   -4.274814   -3.232827
     74          1           0       26.117976   -5.414143   -1.935915
     75          1           0       27.725972   -5.483855   -2.529471
     76          1           0       26.150505   -3.591891    2.962569
     77          1           0       21.712593   -3.727277    3.064289
     78          1           0       22.215497   -2.087416    3.808832
     79          1           0       22.456630   -3.486675    4.684520
     80         12           0      -28.629920    0.385958    0.206636
     81          6           0      -26.154716   -2.031222   -0.145524
     82          6           0      -26.141285    2.657247    1.026159
     83          6           0      -30.783615    2.887827    0.040929
     84          6           0      -30.943640   -1.830367   -1.102231
     85          7           0      -26.407915    0.370900    0.259243
     86          6           0      -25.621481   -0.762060    0.216615
     87          6           0      -24.192395   -0.493201    0.585034
     88          6           0      -24.310182    0.916877    1.315171
     89          6           0      -25.673028    1.387383    0.824733
     90          6           0      -23.988634    1.096693    2.874456
     91          6           0      -23.147001   -0.573341   -0.621921
     92          6           0      -23.642135   -0.155158   -2.038398
     93          1           0      -22.647045    0.660730   -2.828158
     94          7           0      -28.472319    2.511375    0.377771
     95          6           0      -27.341467    3.253755    0.740078
     96          6           0      -27.612149    4.665243    0.731638
     97          6           0      -28.987949    4.773943    0.417884
     98          6           0      -29.496904    3.382584    0.230695
     99          6           0      -26.580969    5.651364    1.282698
    100          6           0      -29.702625    6.143013    0.354514
    101          8           0      -29.090265    7.208560    0.478565
    102          6           0      -31.163957    6.099398    0.194074
    103          7           0      -30.545124    0.473464   -0.566517
    104          6           0      -31.307899    1.584722   -0.249087
    105          6           0      -32.809347    1.392796   -0.556539
    106          6           0      -32.735684   -0.076383   -1.143286
    107          6           0      -31.342329   -0.496074   -0.983812
    108          6           0      -33.809924    1.533863    0.546813
    109          6           0      -33.138461   -0.150915   -2.702338
    110          6           0      -34.090529   -1.288968   -2.962884
    111          7           0      -28.660849   -1.629045   -0.323524
    112          6           0      -29.686709   -2.395918   -0.844118
    113          6           0      -29.202052   -3.768624   -1.115406
    114          6           0      -27.792717   -3.669207   -0.845785
    115          6           0      -27.548719   -2.369912   -0.385791
    116          6           0      -29.861577   -4.900161   -1.793271
    117          6           0      -26.472232   -4.332228   -0.895651
    118          8           0      -26.180142   -5.427718   -1.316332
    119          6           0      -25.382778   -3.322154   -0.411219
    120          6           0      -24.635488   -3.882496    0.715318
    121          8           0      -23.438797   -4.154578    0.814902
    122          8           0      -25.595004   -4.356711    1.647877
    123          6           0      -25.040886   -4.915510    2.899678
    124          1           0      -25.378929    3.264730    1.519375
    125          1           0      -31.617453    3.585532    0.141615
    126          1           0      -31.764073   -2.468412   -1.435478
    127          1           0      -23.832930   -1.252159    1.279832
    128          1           0      -23.555130    1.481998    0.768117
    129          1           0      -23.594442    0.216636    3.382292
    130          1           0      -24.862837    1.340353    3.478054
    131          1           0      -23.151933    1.786199    2.990076
    132          1           0      -22.682853   -1.558235   -0.661574
    133          1           0      -22.314671    0.071527   -0.340113
    134          1           0      -24.587901    0.383539   -1.972324
    135          1           0      -23.836456   -1.044089   -2.637884
    136          1           0      -26.612517    6.632539    0.807935
    137          1           0      -25.580339    5.289711    1.047405
    138          1           0      -26.811813    5.757349    2.342951
    139          1           0      -31.601853    5.722504    1.117877
    140          1           0      -31.421256    5.487185   -0.670842
    141          1           0      -31.459904    7.136931    0.039285
    142          1           0      -33.042596    2.004852   -1.428106
    143          1           0      -33.294803   -0.649681   -0.403842
    144          1           0      -34.748770    1.152489    0.144950
    145          1           0      -33.974483    2.601544    0.692126
    146          1           0      -33.458727    1.030201    1.448197
    147          1           0      -32.203602   -0.237935   -3.255870
    148          1           0      -33.535739    0.757646   -3.156639
    149          1           0      -33.557846   -2.042407   -3.542630
    150          1           0      -34.864737   -1.025771   -3.684366
    151          1           0      -34.362145   -1.765965   -2.021405
    152          1           0      -30.889903   -4.728107   -2.114605
    153          1           0      -29.910468   -5.700273   -1.055487
    154          1           0      -29.273915   -4.945433   -2.709950
    155          1           0      -24.741890   -3.176897   -1.280538
    156          1           0      -25.681943   -4.455950    3.652847
    157          1           0      -24.003426   -4.739261    3.183919
    158          1           0      -25.372173   -5.954112    2.899828
 ---------------------------------------------------------------------

 SCF Done:  E(RPBE1PBE) =  -4067.37657690     A.U. after   16 cycles

 Excitation energies and oscillator strengths:

 Excited State   1:      Singlet-A      1.8711 eV  662.63 nm  f=0.3500  <S**2>=0.000
     309 -> 315       -0.17704
     311 -> 313        0.68989
     311 <- 313       -0.10398
 This state for optimization and/or second-order correction.
 Total Energy, E(TD-HF/TD-DFT) =  -4067.30781518
 Copying the excited state density for this state as the 1-particle RhoCI density.

 Excited State   2:      Singlet-A      1.8853 eV  657.63 nm  f=0.3701  <S**2>=0.000
     310 -> 316        0.18511
     312 -> 314        0.68864
     312 <- 314       -0.10056

 Excited State   3:      Singlet-A      1.9163 eV  647.00 nm  f=0.0000  <S**2>=0.000
     312 -> 313        0.70711

 Excited State   4:      Singlet-A      2.1667 eV  572.23 nm  f=0.0000  <S**2>=0.000
     311 -> 314        0.70711

 Excited State   5:      Singlet-A      2.2140 eV  560.01 nm  f=0.0898  <S**2>=0.000
     309 -> 313        0.64344
     311 -> 315        0.27383

 The electronic state is 1-A.
 Alpha  occ. eigenvalues --  -46.92487 -46.91898 -19.25006 -19.24636 -19.20749
 Alpha  occ. eigenvalues --  -19.20065 -19.19640 -19.19167 -19.19098 -19.18800
 Alpha  occ. eigenvalues --  -14.41743 -14.41674 -14.41426 -14.40967 -14.39236
 Alpha  occ. eigenvalues --  -14.39190 -14.38878 -14.38703 -10.36728 -10.36439
 Alpha  occ. eigenvalues --  -10.32621 -10.32342 -10.32242 -10.32165 -10.29321
 Alpha  occ. eigenvalues --  -10.28954 -10.28672 -10.28535 -10.28516 -10.28385
 Alpha  occ. eigenvalues --  -10.28257 -10.28243 -10.28095 -10.28013 -10.27945
 Alpha  occ. eigenvalues --  -10.27892 -10.27849 -10.27758 -10.27123 -10.26916
 Alpha  occ. eigenvalues --  -10.26736 -10.26709 -10.26523 -10.26459 -10.26339
 Alpha  occ. eigenvalues --  -10.26335 -10.26284 -10.26156 -10.26026 -10.25973
 Alpha  occ. eigenvalues --  -10.25911 -10.25869 -10.25788 -10.25726 -10.25561
 Alpha  occ. eigenvalues --  -10.25462 -10.25110 -10.25095 -10.25007 -10.24999
 Alpha  occ. eigenvalues --  -10.24964 -10.24942 -10.24844 -10.24759 -10.24754
 Alpha  occ. eigenvalues --  -10.24651 -10.24591 -10.24534 -10.24421 -10.24416
 Alpha  occ. eigenvalues --  -10.24353 -10.24241 -10.24114 -10.23686 -10.23637
 Alpha  occ. eigenvalues --  -10.23614 -10.23335 -10.23266 -10.23239 -10.23210
 Alpha  occ. eigenvalues --  -10.23202 -10.23122 -10.22759 -10.22716 -10.22682
 Alpha  occ. eigenvalues --  -10.22554  -3.14593  -3.14023  -1.87417  -1.86983
 Alpha  occ. eigenvalues --   -1.86872  -1.86808  -1.86411  -1.86233  -1.09530
 Alpha  occ. eigenvalues --   -1.09373  -1.05176  -1.04491  -1.04019  -1.03756
 Alpha  occ. eigenvalues --   -1.02039  -1.01714  -0.99680  -0.99266  -0.98582
 Alpha  occ. eigenvalues --   -0.98349  -0.97836  -0.97753  -0.96956  -0.96171
 Alpha  occ. eigenvalues --   -0.86815  -0.86364  -0.83948  -0.83943  -0.83511
 Alpha  occ. eigenvalues --   -0.82903  -0.82720  -0.82272  -0.81942  -0.81579
 Alpha  occ. eigenvalues --   -0.81240  -0.81105  -0.80620  -0.80426  -0.79029
 Alpha  occ. eigenvalues --   -0.78757  -0.78322  -0.77604  -0.76944  -0.76669
 Alpha  occ. eigenvalues --   -0.76569  -0.76241  -0.75184  -0.75178  -0.74803
 Alpha  occ. eigenvalues --   -0.74490  -0.73076  -0.72681  -0.71773  -0.71454
 Alpha  occ. eigenvalues --   -0.71187  -0.71087  -0.70502  -0.70088  -0.70075
 Alpha  occ. eigenvalues --   -0.69119  -0.67106  -0.66619  -0.66572  -0.65750
 Alpha  occ. eigenvalues --   -0.63740  -0.63657  -0.63640  -0.63192  -0.62576
 Alpha  occ. eigenvalues --   -0.62344  -0.61239  -0.61028  -0.60857  -0.59361
 Alpha  occ. eigenvalues --   -0.59333  -0.59179  -0.59068  -0.58988  -0.58758
 Alpha  occ. eigenvalues --   -0.58539  -0.57065  -0.56106  -0.54787  -0.54752
 Alpha  occ. eigenvalues --   -0.53973  -0.53915  -0.53564  -0.53534  -0.52885
 Alpha  occ. eigenvalues --   -0.52564  -0.52442  -0.52107  -0.51765  -0.51740
 Alpha  occ. eigenvalues --   -0.50884  -0.50810  -0.50354  -0.50058  -0.49897
 Alpha  occ. eigenvalues --   -0.49775  -0.49631  -0.49105  -0.48796  -0.48413
 Alpha  occ. eigenvalues --   -0.48371  -0.48177  -0.47795  -0.47695  -0.47600
 Alpha  occ. eigenvalues --   -0.47340  -0.47251  -0.47019  -0.46884  -0.46713
 Alpha  occ. eigenvalues --   -0.46484  -0.46313  -0.46251  -0.46151  -0.45960
 Alpha  occ. eigenvalues --   -0.45711  -0.45381  -0.45316  -0.45137  -0.45052
 Alpha  occ. eigenvalues --   -0.44778  -0.44448  -0.44299  -0.44291  -0.44200
 Alpha  occ. eigenvalues --   -0.44071  -0.43873  -0.43649  -0.43479  -0.43442
 Alpha  occ. eigenvalues --   -0.43177  -0.43101  -0.42965  -0.42934  -0.42781
 Alpha  occ. eigenvalues --   -0.42673  -0.42396  -0.42216  -0.42048  -0.41889
 Alpha  occ. eigenvalues --   -0.41637  -0.41622  -0.41263  -0.41236  -0.40970
 Alpha  occ. eigenvalues --   -0.40917  -0.40893  -0.40737  -0.40454  -0.40186
 Alpha  occ. eigenvalues --   -0.40141  -0.39881  -0.39797  -0.39714  -0.39697
 Alpha  occ. eigenvalues --   -0.39506  -0.39401  -0.39385  -0.39049  -0.38956
 Alpha  occ. eigenvalues --   -0.38792  -0.38744  -0.38726  -0.38466  -0.38268
 Alpha  occ. eigenvalues --   -0.38215  -0.38142  -0.37943  -0.37827  -0.37739
 Alpha  occ. eigenvalues --   -0.37679  -0.37496  -0.37320  -0.36991  -0.36795
 Alpha  occ. eigenvalues --   -0.36771  -0.36642  -0.36591  -0.36514  -0.36086
 Alpha  occ. eigenvalues --   -0.36040  -0.35900  -0.35399  -0.35322  -0.35193
 Alpha  occ. eigenvalues --   -0.34860  -0.34800  -0.34207  -0.34048  -0.33508
 Alpha  occ. eigenvalues --   -0.33438  -0.32954  -0.32698  -0.32433  -0.32406
 Alpha  occ. eigenvalues --   -0.32133  -0.31946  -0.31693  -0.31593  -0.31022
 Alpha  occ. eigenvalues --   -0.30720  -0.30555  -0.30297  -0.29701  -0.29273
 Alpha  occ. eigenvalues --   -0.29057  -0.28880  -0.28675  -0.26906  -0.26594
 Alpha  occ. eigenvalues --   -0.25880  -0.25839  -0.25762  -0.25740  -0.25659
 Alpha  occ. eigenvalues --   -0.25523  -0.25335  -0.25099  -0.20994  -0.20758
 Alpha  occ. eigenvalues --   -0.18861  -0.18430
 Alpha virt. eigenvalues --   -0.11155  -0.10667  -0.05706  -0.05153  -0.03969
 Alpha virt. eigenvalues --   -0.03525  -0.02174  -0.01949  -0.01107  -0.00496
 Alpha virt. eigenvalues --    0.00271   0.00551   0.00805   0.01095   0.01631

 Mulliken charges:
               1
     1  Mg  12.000029
     2  C    5.999915
     3  C    6.000079
     4  C    6.000199
     5  C    5.999896
     6  N    6.999892
     7  C    6.000217
     8  C    5.999859
     9  C    6.000124
    10  C    5.999660
    11  C    6.000004
    12  C    5.999976
    13  C    5.999993
    14  H    1.000034
    15  N    7.000061
    16  C    5.999491
    17  C    5.999872
    18  C    5.999707
    19  C    5.999807
    20  C    6.000026
    21  C    5.999878
    22  O    7.999654
    23  C    6.000042
    24  N    7.000115
    25  C    5.999640
    26  C    6.000037
    27  C    5.999866
    28  C    6.000355
    29  C    6.000028
    30  C    5.999998
    31  C    5.999936
    32  N    6.999926
    33  C    6.000391
    34  C    6.000380
    35  C    6.000012
    36  C    6.000296
    37  C    6.000003
    38  C    6.000156
    39  O    8.000301
    40  C    6.000027
    41  C    6.000017
    42  O    8.000089
    43  O    8.000009
    44  C    5.999972
    45  H    0.999854
    46  H    0.999992
    47  H    1.000134
    48  H    1.000007
    49  H    0.999952
    50  H    0.999960
    51  H    0.999865
    52  H    1.000034
    53  H    1.000096
    54  H    0.999932
    55  H    1.000032
    56  H    0.999969
    57  H    0.999821
    58  H    0.999839
    59  H    0.999807
    60  H    0.999903
    61  H    0.999850
    62  H    0.999953
    63  H    1.000052
    64  H    1.000036
    65  H    1.000035
    66  H    0.999990
    67  H    0.999911
    68  H    1.000118
    69  H    1.000000
    70  H    1.000100
    71  H    0.999978
    72  H    1.000038
    73  H    1.000195
    74  H    1.000160
    75  H    1.000220
    76  H    1.000082
    77  H    1.000025
    78  H    1.000047
    79  H    1.000046
    80  Mg  11.998162
    81  C    6.020657
    82  C    5.990110
    83  C    5.971784
    84  C    6.007991
    85  N    7.006349
    86  C    5.968246
    87  C    6.010709
    88  C    5.988517
    89  C    6.031388
    90  C    5.996118
    91  C    6.002373
    92  C    6.004063
    93  H    0.992590
    94  N    6.994882
    95  C    6.038044
    96  C    6.019072
    97  C    6.012364
    98  C    6.036866
    99  C    5.997812
   100  C    6.013413
   101  O    8.018964
   102  C    5.995791
   103  N    6.997899
   104  C    6.040035
   105  C    5.984237
   106  C    6.011666
   107  C    5.966451
   108  C    5.997265
   109  C    6.004219
   110  C    5.999990
   111  N    7.000984
   112  C    5.967328
   113  C    5.968853
   114  C    5.996612
   115  C    5.972346
   116  C    6.001921
   117  C    5.983991
   118  O    7.973551
   119  C    5.998493
   120  C    5.992624
   121  O    7.990808
   122  O    8.006046
   123  C    6.002205
   124  H    1.011997
   125  H    1.005775
   126  H    0.988803
   127  H    1.000467
   128  H    1.004942
   129  H    1.013367
   130  H    0.999775
   131  H    1.002953
   132  H    1.004105
   133  H    0.991894
   134  H    0.992933
   135  H    1.006800
   136  H    1.014493
   137  H    1.014344
   138  H    1.017065
   139  H    1.008971
   140  H    1.009836
   141  H    1.012292
   142  H    1.001359
   143  H    0.998993
   144  H    1.008592
   145  H    0.994792
   146  H    1.004406
   147  H    1.000149
   148  H    0.987850
   149  H    1.003692
   150  H    0.994602
   151  H    0.999512
   152  H    0.982503
   153  H    0.982986
   154  H    0.984609
   155  H    0.993434
   156  H    0.995126
   157  H    0.993637
   158  H    0.999153
 Sum of Mulliken charges = 624.00000

 Dipole moment (field-independent basis, Debye):
    X=              0.6682    Y=              9.6366    Z=              2.3119  Tot=              9.9326
 Quadrupole moment (field-independent basis, Debye-Ang):
   XX=            -43.6224   YY=              9.3705   ZZ=             -1.2582
   XY=           -278.8524   XZ=            -67.2081   YZ=              0.0003

 Normal termination of Gaussian 16 at Thu Oct 14 12:19:24 2021.
