 Gaussian 16, Revision A.03,
 Gaussian 16:  ES64L-G16RevA.03 25-Dec-2016

 --------------------------------------------------------
 #p PBE1PBE/Def2SVP td=(nstates=5) density=(transition=1)
 --------------------------------------------------------

 --------------------------------
 TDDFT excited states in gaussian
 --------------------------------
 Symbolic Z-matrix:
 Charge =  0 Multiplicity = 1

                         Standard orientation:
 ---------------------------------------------------------------------
 Center     Atomic      Atomic             Coordinates (Angstroms)
 Number     Number       Type             X           Y           Z
 ---------------------------------------------------------------------
      1         12           0      -29.769349    0.282782   -0.622659
      2          6           0      -29.070548   -2.274774    1.702153
      3          6           0      -29.347232    2.579160    1.899221
      4          6           0      -30.501460    2.771649   -2.755750
      5          6           0      -30.746467   -2.102214   -2.989138
      6          7           0      -29.142966    0.084792    1.462941
      7          6           0      -28.894477   -0.957822    2.250341
      8          6           0      -28.489342   -0.642167    3.705262
      9          6           0      -28.908033    0.907243    3.689820
     10          6           0      -29.201424    1.208857    2.240474
     11          6           0      -30.084613    1.227358    4.579494
     12          6           0      -26.908876   -0.865139    4.024602
     13          6           0      -26.631670   -1.174582    5.498661
     14          1           0      -25.973800   -2.556993    5.743644
     15          7           0      -29.754401    2.437472   -0.517689
     16          6           0      -29.593664    3.178761    0.679075
     17          6           0      -29.442594    4.563511    0.292586
     18          6           0      -29.749573    4.652612   -1.062190
     19          6           0      -30.005430    3.255952   -1.535132
     20          6           0      -29.234353    5.698465    1.277450
     21          6           0      -29.780016    5.830775   -2.008639
     22          8           0      -29.998212    5.652995   -3.171442
     23          6           0      -29.470135    7.222661   -1.555687
     24          7           0      -30.698753    0.357179   -2.508330
     25          6           0      -30.828542    1.508270   -3.229346
     26          6           0      -31.351634    1.088709   -4.631167
     27          6           0      -30.885323   -0.340170   -4.845138
     28          6           0      -30.779210   -0.783703   -3.367035
     29          6           0      -32.879162    1.127394   -4.633151
     30          6           0      -29.626880   -0.473612   -5.620071
     31          6           0      -28.451499    0.403998   -5.267418
     32          7           0      -29.874020   -1.772639   -0.706422
     33          6           0      -30.293181   -2.625347   -1.710252
     34          6           0      -30.146364   -4.013177   -1.244972
     35          6           0      -29.650096   -3.901977    0.065536
     36          6           0      -29.506894   -2.567989    0.333767
     37          6           0      -30.503489   -5.225337   -1.991346
     38          6           0      -29.099924   -4.622096    1.182513
     39          8           0      -28.914623   -5.862105    1.358606
     40          6           0      -28.673540   -3.538580    2.282167
     41          6           0      -29.493525   -3.835417    3.510922
     42          8           0      -30.673667   -4.021573    3.474701
     43          8           0      -28.781677   -3.821621    4.740966
     44          6           0      -29.634744   -3.790836    5.967811
     45          1           0      -29.268567    3.319926    2.696950
     46          1           0      -30.845018    3.545826   -3.445532
     47          1           0      -30.866588   -2.896250   -3.729450
     48          1           0      -29.027147   -1.296254    4.392717
     49          1           0      -28.015346    1.420491    4.049419
     50          1           0      -29.664435    1.610626    5.509224
     51          1           0      -30.768976    0.386752    4.696018
     52          1           0      -30.531159    2.105316    4.112822
     53          1           0      -26.349587    0.035575    3.769702
     54          1           0      -26.495284   -1.646909    3.387196
     55          1           0      -27.626389   -1.067087    5.931678
     56          1           0      -26.046078   -0.391378    5.979711
     57          1           0      -28.864427    5.206618    2.176286
     58          1           0      -30.252215    6.032956    1.475847
     59          1           0      -28.508573    6.430472    0.922590
     60          1           0      -28.396204    7.121872   -1.397863
     61          1           0      -29.939418    7.509654   -0.615060
     62          1           0      -29.713673    7.939851   -2.340292
     63          1           0      -31.053709    1.739388   -5.452605
     64          1           0      -31.572734   -0.976820   -5.401145
     65          1           0      -33.444279    0.199165   -4.548072
     66          1           0      -33.188782    1.621145   -5.554205
     67          1           0      -33.198344    1.780535   -3.820177
     68          1           0      -29.798361   -0.383174   -6.692953
     69          1           0      -29.324551   -1.506390   -5.447672
     70          1           0      -27.699492   -0.266714   -4.850817
     71          1           0      -28.509065    1.241703   -4.571776
     72          1           0      -28.029614    0.790455   -6.195058
     73          1           0      -31.590238   -5.272056   -2.060491
     74          1           0      -30.045981   -6.027995   -1.413073
     75          1           0      -30.140424   -5.183289   -3.019123
     76          1           0      -27.595023   -3.662619    2.381447
     77          1           0      -30.036704   -4.782834    6.173652
     78          1           0      -30.462278   -3.083360    5.898211
     79          1           0      -29.119801   -3.566668    6.901548
     80         12           0       30.052090   -0.772124    0.457920
     81          6           0       27.816783    1.965417    0.786151
     82          6           0       27.382909   -2.602095   -0.843542
     83          6           0       32.311593   -2.752875   -0.886480
     84          6           0       32.674318    1.535011    1.555654
     85          7           0       27.849243   -0.237386   -0.210913
     86          6           0       27.154479    0.818817    0.279853
     87          6           0       25.669516    0.586382    0.066039
     88          6           0       25.519399   -0.933808    0.126949
     89          6           0       27.000162   -1.304592   -0.395411
     90          6           0       25.276243   -1.589913    1.487369
     91          6           0       25.204188    1.307064   -1.273709
     92          6           0       23.936310    2.047524   -1.103020
     93          1           0       22.898434    1.956647   -2.238591
     94          7           0       29.910880   -2.473353   -0.778309
     95          6           0       28.699834   -3.117160   -1.134504
     96          6           0       29.069656   -4.298356   -1.872865
     97          6           0       30.480411   -4.460142   -1.852221
     98          6           0       30.996207   -3.212241   -1.184714
     99          6           0       28.001625   -5.198123   -2.486595
    100          6           0       31.244939   -5.548647   -2.495811
    101          8           0       30.634147   -6.420057   -3.102200
    102          6           0       32.730451   -5.678534   -2.579050
    103          7           0       32.269315   -0.531397    0.285200
    104          6           0       32.897920   -1.640892   -0.151426
    105          6           0       34.416966   -1.528777    0.071674
    106          6           0       34.559911   -0.202773    1.010534
    107          6           0       33.093529    0.301445    1.007407
    108          6           0       35.108759   -2.862644    0.606267
    109          6           0       35.612649    0.847271    0.535942
    110          6           0       35.094283    2.086430   -0.270679
    111          7           0       30.249631    1.233735    1.038746
    112          6           0       31.362904    1.984380    1.513102
    113          6           0       30.849968    3.307975    2.077696
    114          6           0       29.505016    3.297035    1.744204
    115          6           0       29.198577    2.024456    1.141894
    116          6           0       31.552706    4.479247    2.790792
    117          6           0       28.285704    4.034180    1.846634
    118          8           0       28.046234    5.107540    2.402192
    119          6           0       27.274056    3.238928    1.101392
    120          6           0       27.049869    4.075638   -0.178941
    121          8           0       27.772933    4.125577   -1.171742
    122          8           0       25.875089    4.850905    0.027289
    123          6           0       25.519131    5.794306   -0.953337
    124          1           0       26.574958   -3.259938   -1.170920
    125          1           0       32.972323   -3.556836   -1.216796
    126          1           0       33.357381    2.237275    2.036616
    127          1           0       25.053372    0.948957    0.888707
    128          1           0       24.760840   -1.438498   -0.470262
    129          1           0       24.902961   -0.903222    2.246570
    130          1           0       26.108686   -2.230785    1.778956
    131          1           0       24.441681   -2.258229    1.272170
    132          1           0       25.026465    0.545559   -2.033144
    133          1           0       25.982841    1.895399   -1.759277
    134          1           0       24.296808    3.065016   -0.956151
    135          1           0       23.450563    1.687024   -0.196397
    136          1           0       27.858210   -6.125627   -1.932619
    137          1           0       28.243379   -5.359666   -3.536082
    138          1           0       27.034396   -4.695406   -2.479282
    139          1           0       33.110545   -5.877645   -1.576758
    140          1           0       33.260813   -4.821302   -2.995550
    141          1           0       33.024953   -6.609917   -3.061151
    142          1           0       34.788207   -1.269411   -0.919566
    143          1           0       34.746651   -0.523734    2.034777
    144          1           0       34.522363   -3.742210    0.340911
    145          1           0       35.430461   -2.912916    1.647176
    146          1           0       36.102156   -2.804209    0.158717
    147          1           0       36.418908    0.395385   -0.041282
    148          1           0       36.003871    1.218308    1.482933
    149          1           0       35.991364    2.199352   -0.879894
    150          1           0       34.907897    3.012584    0.273451
    151          1           0       34.247969    1.755458   -0.872952
    152          1           0       31.118198    4.655390    3.774185
    153          1           0       31.154773    5.269574    2.155006
    154          1           0       32.626980    4.335083    2.677745
    155          1           0       26.345032    3.208214    1.670777
    156          1           0       24.616472    6.364292   -0.729792
    157          1           0       25.347054    5.249174   -1.880553
    158          1           0       26.374775    6.467091   -1.017656
 ---------------------------------------------------------------------

 SCF Done:  E(RPBE1PBE) =  -4067.32547966     A.U. after   15 cycles

 Excitation energies and oscillator strengths:

 Excited State   1:      Singlet-A      1.8249 eV  679.40 nm  f=0.3516  <S**2>=0.000
     309 -> 316        0.17190
     311 -> 313        0.69446
     311 <- 313       -0.10918
 This state for optimization and/or second-order correction.
 Total Energy, E(TD-HF/TD-DFT) =  -4067.25841567
 Copying the excited state density for this state as the 1-particle RhoCI density.

 Excited State   2:      Singlet-A      1.8406 eV  673.62 nm  f=0.3516  <S**2>=0.000
     310 -> 315       -0.18905
     312 -> 314        0.68696

 Excited State   3:      Singlet-A      1.9316 eV  641.87 nm  f=0.0000  <S**2>=0.000
     312 -> 313        0.70711

 Excited State   4:      Singlet-A      2.0826 eV  595.33 nm  f=0.0000  <S**2>=0.000
     311 -> 314        0.70711

 Excited State   5:      Singlet-A      2.1781 eV  569.24 nm  f=0.1120  <S**2>=0.000
     309 -> 313        0.65714
     311 -> 316       -0.25114

 The electronic state is 1-A.
 Alpha  occ. eigenvalues --  -46.94692 -46.92035 -19.25371 -19.25184 -19.21593
 Alpha  occ. eigenvalues --  -19.20260 -19.19090 -19.19047 -19.18735 -19.17838
 Alpha  occ. eigenvalues --  -14.42722 -14.41885 -14.41516 -14.41074 -14.39871
 Alpha  occ. eigenvalues --  -14.39462 -14.39247 -14.38896 -10.37654 -10.36468
 Alpha  occ. eigenvalues --  -10.32121 -10.32067 -10.31634 -10.31301 -10.29638
 Alpha  occ. eigenvalues --  -10.29349 -10.29240 -10.29216 -10.29037 -10.29004
 Alpha  occ. eigenvalues --  -10.28949 -10.28828 -10.28709 -10.28612 -10.28517
 Alpha  occ. eigenvalues --  -10.28272 -10.28248 -10.27954 -10.27887 -10.27502
 Alpha  occ. eigenvalues --  -10.27075 -10.27011 -10.26728 -10.26684 -10.26652
 Alpha  occ. eigenvalues --  -10.26387 -10.26376 -10.26328 -10.26236 -10.26201
 Alpha  occ. eigenvalues --  -10.26126 -10.25967 -10.25907 -10.25833 -10.25681
 Alpha  occ. eigenvalues --  -10.25581 -10.25468 -10.25407 -10.25352 -10.25319
 Alpha  occ. eigenvalues --  -10.25253 -10.25205 -10.25177 -10.24917 -10.24906
 Alpha  occ. eigenvalues --  -10.24897 -10.24882 -10.24745 -10.24586 -10.24551
 Alpha  occ. eigenvalues --  -10.24529 -10.24305 -10.23863 -10.23826 -10.23788
 Alpha  occ. eigenvalues --  -10.23673 -10.23357 -10.23116 -10.23105 -10.23079
 Alpha  occ. eigenvalues --  -10.22820 -10.22778 -10.22653 -10.22581 -10.22415
 Alpha  occ. eigenvalues --  -10.21911  -3.16480  -3.14113  -1.89257  -1.88905
 Alpha  occ. eigenvalues --   -1.88656  -1.86977  -1.86464  -1.86352  -1.10554
 Alpha  occ. eigenvalues --   -1.10374  -1.06638  -1.04276  -1.04137  -1.03453
 Alpha  occ. eigenvalues --   -1.02246  -1.01574  -0.99837  -0.98807  -0.98067
 Alpha  occ. eigenvalues --   -0.97980  -0.97845  -0.97482  -0.96421  -0.95983
 Alpha  occ. eigenvalues --   -0.88757  -0.87423  -0.84267  -0.83725  -0.83443
 Alpha  occ. eigenvalues --   -0.83019  -0.82998  -0.82093  -0.82000  -0.81557
 Alpha  occ. eigenvalues --   -0.81302  -0.81180  -0.80804  -0.79912  -0.79069
 Alpha  occ. eigenvalues --   -0.78899  -0.77948  -0.77907  -0.76981  -0.76831
 Alpha  occ. eigenvalues --   -0.76569  -0.75873  -0.75506  -0.75147  -0.74627
 Alpha  occ. eigenvalues --   -0.74232  -0.72991  -0.72363  -0.71680  -0.71588
 Alpha  occ. eigenvalues --   -0.71509  -0.71200  -0.70585  -0.70341  -0.69581
 Alpha  occ. eigenvalues --   -0.69342  -0.67183  -0.67014  -0.66324  -0.65759
 Alpha  occ. eigenvalues --   -0.64274  -0.64059  -0.63301  -0.63172  -0.62310
 Alpha  occ. eigenvalues --   -0.61699  -0.61407  -0.61252  -0.60209  -0.59841
 Alpha  occ. eigenvalues --   -0.59450  -0.59448  -0.59215  -0.59104  -0.58839
 Alpha  occ. eigenvalues --   -0.57901  -0.56770  -0.56397  -0.54775  -0.54486
 Alpha  occ. eigenvalues --   -0.54464  -0.54329  -0.53917  -0.53764  -0.53622
 Alpha  occ. eigenvalues --   -0.53297  -0.53077  -0.52920  -0.52293  -0.51591
 Alpha  occ. eigenvalues --   -0.50921  -0.50655  -0.50578  -0.50335  -0.50238
 Alpha  occ. eigenvalues --   -0.49434  -0.49249  -0.49153  -0.49074  -0.48657
 Alpha  occ. eigenvalues --   -0.48503  -0.48293  -0.48115  -0.47957  -0.47940
 Alpha  occ. eigenvalues --   -0.47704  -0.47651  -0.47320  -0.47128  -0.46743
 Alpha  occ. eigenvalues --   -0.46526  -0.46481  -0.46209  -0.46048  -0.45989
 Alpha  occ. eigenvalues --   -0.45954  -0.45817  -0.45482  -0.45362  -0.45172
 Alpha  occ. eigenvalues --   -0.44788  -0.44742  -0.44612  -0.44509  -0.44307
 Alpha  occ. eigenvalues --   -0.44026  -0.43968  -0.43849  -0.43807  -0.43726
 Alpha  occ. eigenvalues --   -0.43613  -0.43157  -0.43028  -0.42928  -0.42838
 Alpha  occ. eigenvalues --   -0.42521  -0.42398  -0.42213  -0.42192  -0.41932
 Alpha  occ. eigenvalues --   -0.41848  -0.41630  -0.41448  -0.41067  -0.40806
 Alpha  occ. eigenvalues --   -0.40764  -0.40638  -0.40606  -0.40543  -0.40431
 Alpha  occ. eigenvalues --   -0.40191  -0.40150  -0.40084  -0.40012  -0.39909
 Alpha  occ. eigenvalues --   -0.39615  -0.39304  -0.39233  -0.39129  -0.38925
 Alpha  occ. eigenvalues --   -0.38873  -0.38576  -0.38557  -0.38399  -0.38328
 Alpha  occ. eigenvalues --   -0.38141  -0.38026  -0.37842  -0.37828  -0.37651
 Alpha  occ. eigenvalues --   -0.37328  -0.37290  -0.37264  -0.37009  -0.36693
 Alpha  occ. eigenvalues --   -0.36421  -0.36409  -0.36158  -0.35888  -0.35867
 Alpha  occ. eigenvalues --   -0.35834  -0.35775  -0.35363  -0.35273  -0.35206
 Alpha  occ. eigenvalues --   -0.34957  -0.34713  -0.34454  -0.34076  -0.33518
 Alpha  occ. eigenvalues --   -0.33295  -0.33291  -0.32906  -0.32706  -0.32632
 Alpha  occ. eigenvalues --   -0.32348  -0.32113  -0.31598  -0.31455  -0.31317
 Alpha  occ. eigenvalues --   -0.31222  -0.30802  -0.30041  -0.29818  -0.29539
 Alpha  occ. eigenvalues --   -0.29447  -0.28972  -0.28816  -0.27131  -0.26761
 Alpha  occ. eigenvalues --   -0.26257  -0.25988  -0.25876  -0.25588  -0.25302
 Alpha  occ. eigenvalues --   -0.25262  -0.25243  -0.24855  -0.21034  -0.21003
 Alpha  occ. eigenvalues --   -0.18964  -0.18759
 Alpha virt. eigenvalues --   -0.11440  -0.11089  -0.06009  -0.05253  -0.04384
 Alpha virt. eigenvalues --   -0.03820  -0.03150  -0.02237  -0.02196   0.00033
 Alpha virt. eigenvalues --    0.00096   0.00731   0.00782   0.00931   0.01344

 Mulliken charges:
               1
     1  Mg  12.004512
     2  C    5.982908
     3  C    6.011878
     4  C    6.013706
     5  C    5.990080
     6  N    6.988648
     7  C    6.038368
     8  C    5.986310
     9  C    6.016357
    10  C    5.962713
    11  C    6.003559
    12  C    5.998979
    13  C    5.999803
    14  H    0.996535
    15  N    7.006947
    16  C    5.957672
    17  C    5.987621
    18  C    5.978992
    19  C    5.972973
    20  C    6.000387
    21  C    5.988634
    22  O    7.971728
    23  C    6.002658
    24  N    7.000826
    25  C    5.974034
    26  C    6.003387
    27  C    5.996057
    28  C    6.027432
    29  C    5.998326
    30  C    5.993984
    31  C    6.000397
    32  N    7.001783
    33  C    6.037622
    34  C    6.032804
    35  C    6.000191
    36  C    6.026446
    37  C    5.999493
    38  C    6.013321
    39  O    8.028999
    40  C    6.003124
    41  C    6.005582
    42  O    8.001948
    43  O    8.002897
    44  C    5.997915
    45  H    0.989619
    46  H    0.995749
    47  H    1.007871
    48  H    0.997713
    49  H    0.994551
    50  H    0.992095
    51  H    0.986356
    52  H    1.005726
    53  H    1.010648
    54  H    0.993994
    55  H    1.002844
    56  H    1.005307
    57  H    0.985904
    58  H    0.985768
    59  H    0.986344
    60  H    0.992457
    61  H    0.992919
    62  H    0.986336
    63  H    1.001293
    64  H    1.000414
    65  H    0.988714
    66  H    0.998550
    67  H    1.006388
    68  H    1.007059
    69  H    0.993637
    70  H    0.994056
    71  H    1.015246
    72  H    1.002721
    73  H    1.020908
    74  H    1.012735
    75  H    1.019389
    76  H    1.005867
    77  H    1.001471
    78  H    1.005298
    79  H    1.005518
    80  Mg  11.999981
    81  C    5.999877
    82  C    5.999984
    83  C    6.000154
    84  C    5.999877
    85  N    7.000041
    86  C    6.000266
    87  C    5.999994
    88  C    6.000003
    89  C    5.999733
    90  C    6.000015
    91  C    5.999972
    92  C    5.999990
    93  H    1.000060
    94  N    7.000036
    95  C    5.999594
    96  C    5.999814
    97  C    5.999990
    98  C    5.999778
    99  C    6.000028
   100  C    5.999937
   101  O    7.999770
   102  C    6.000018
   103  N    7.000028
   104  C    5.999770
   105  C    6.000122
   106  C    5.999894
   107  C    6.000262
   108  C    6.000024
   109  C    5.999993
   110  C    5.999936
   111  N    6.999871
   112  C    6.000266
   113  C    6.000215
   114  C    6.000136
   115  C    6.000218
   116  C    6.000015
   117  C    6.000159
   118  O    8.000286
   119  C    5.999988
   120  C    6.000016
   121  O    8.000061
   122  O    8.000001
   123  C    5.999958
   124  H    0.999924
   125  H    0.999956
   126  H    1.000099
   127  H    0.999980
   128  H    0.999987
   129  H    0.999894
   130  H    1.000007
   131  H    0.999974
   132  H    1.000093
   133  H    0.999978
   134  H    0.999965
   135  H    1.000021
   136  H    0.999827
   137  H    0.999867
   138  H    0.999848
   139  H    0.999903
   140  H    0.999916
   141  H    0.999883
   142  H    0.999992
   143  H    1.000044
   144  H    1.000061
   145  H    0.999940
   146  H    0.999959
   147  H    1.000083
   148  H    1.000003
   149  H    1.000077
   150  H    0.999972
   151  H    1.000016
   152  H    1.000148
   153  H    1.000122
   154  H    1.000134
   155  H    1.000077
   156  H    1.000061
   157  H    1.000050
   158  H    1.000010
 Sum of Mulliken charges = 624.00000

 Dipole moment (field-independent basis, Debye):
    X=             -0.0253    Y=            -10.0736    Z=             -0.3469  Tot=             10.0796
 Quadrupole moment (field-independent basis, Debye-Ang):
   XX=              2.8931   YY=             -6.7046   ZZ=              1.8530
   XY=            304.8858   XZ=             13.4054   YZ=              4.7109

 Normal termination of Gaussian 16 at Wed Oct 13 21:36:33 2021.
