 Gaussian 16, Revision A.03,
 Gaussian 16:  ES64L-G16RevA.03 25-Dec-2016

 --------------------------------------------------------
 #p PBE1PBE/Def2SVP td=(nstates=5) density=(transition=1)
 --------------------------------------------------------

 --------------------------------
 TDDFT excited states in gaussian
 --------------------------------
 Symbolic Z-matrix:
 Charge =  0 Multiplicity = 1

                         Standard orientation:
 ---------------------------------------------------------------------
 Center     Atomic      Atomic             Coordinates (Angstroms)
 Number     Number       Type             X           Y           Z
 ---------------------------------------------------------------------
      1         12           0      -13.058004   -0.264418   -0.409430
      2          6           0       -9.732623    0.108940    0.750939
      3          6           0      -13.765326    2.629942    1.418403
      4          6           0      -16.158957   -0.394720   -1.480245
      5          6           0      -12.305800   -3.497313   -1.445049
      6          7           0      -11.847475    1.179396    0.883258
      7          6           0      -10.502300    1.219533    1.093077
      8          6           0       -9.991611    2.374690    1.971264
      9          6           0      -11.411996    3.085379    2.247298
     10          6           0      -12.371446    2.225238    1.479312
     11          6           0      -11.833060    3.129117    3.769453
     12          6           0       -8.978552    3.305951    1.228909
     13          6           0       -7.499760    3.425266    1.576363
     14          1           0       -6.765128    4.754292    1.460149
     15          7           0      -14.740030    0.978859   -0.156260
     16          6           0      -14.856283    2.089053    0.692577
     17          6           0      -16.238706    2.511658    0.662929
     18          6           0      -16.919371    1.757104   -0.289420
     19          6           0      -15.921859    0.762384   -0.729693
     20          6           0      -16.621112    3.742886    1.411132
     21          6           0      -18.377919    1.779639   -0.745288
     22          8           0      -18.861899    1.018586   -1.588631
     23          6           0      -19.222214    2.882046   -0.239000
     24          7           0      -14.149884   -1.758098   -1.243115
     25          6           0      -15.373012   -1.535207   -1.812349
     26          6           0      -15.738211   -2.671529   -2.826652
     27          6           0      -14.566342   -3.635765   -2.696141
     28          6           0      -13.617636   -2.964440   -1.664538
     29          6           0      -17.158358   -3.283803   -2.595362
     30          6           0      -13.921656   -3.854596   -4.073325
     31          6           0      -13.553978   -5.238193   -4.469679
     32          7           0      -11.423100   -1.534552   -0.294010
     33          6           0      -11.242852   -2.805409   -0.778509
     34          6           0       -9.908944   -3.270653   -0.542020
     35          6           0       -9.163641   -2.110248   -0.003844
     36          6           0      -10.174939   -1.076841    0.110738
     37          6           0       -9.377086   -4.679060   -0.858022
     38          6           0       -7.864271   -1.575374    0.475500
     39          8           0       -6.726090   -2.072086    0.428733
     40          6           0       -8.207650   -0.111069    0.972933
     41          6           0       -7.777284   -0.216908    2.402599
     42          8           0       -8.421767   -0.613765    3.365884
     43          8           0       -6.592911    0.304786    2.569820
     44          6           0       -5.903386    0.161496    3.875048
     45          1           0      -13.805152    3.610001    1.897671
     46          1           0      -17.162791   -0.584896   -1.864892
     47          1           0      -12.070309   -4.487037   -1.840923
     48          1           0       -9.599174    1.940425    2.891632
     49          1           0      -11.569783    4.092420    1.859959
     50          1           0      -11.296100    2.471580    4.452588
     51          1           0      -12.883266    2.857438    3.870111
     52          1           0      -11.715007    4.152034    4.127415
     53          1           0       -9.363535    4.320328    1.334700
     54          1           0       -8.943183    3.055019    0.169539
     55          1           0       -7.063883    2.825372    0.777331
     56          1           0       -7.475287    2.994636    2.577443
     57          1           0      -16.988966    4.524338    0.747643
     58          1           0      -15.770921    4.149394    1.959462
     59          1           0      -17.416742    3.576468    2.136707
     60          1           0      -18.705856    3.831045   -0.384044
     61          1           0      -19.324597    2.864032    0.846127
     62          1           0      -20.181308    2.984088   -0.745763
     63          1           0      -15.745159   -2.125243   -3.769709
     64          1           0      -14.903726   -4.626451   -2.391940
     65          1           0      -17.768498   -2.740185   -1.874187
     66          1           0      -17.140869   -4.312439   -2.237129
     67          1           0      -17.660597   -3.418796   -3.553182
     68          1           0      -13.021495   -3.244776   -4.007731
     69          1           0      -14.531088   -3.533374   -4.917660
     70          1           0      -12.494722   -5.177756   -4.718422
     71          1           0      -14.216780   -5.593317   -5.258720
     72          1           0      -13.577412   -5.969380   -3.661358
     73          1           0       -9.520064   -5.315288    0.014625
     74          1           0       -8.326261   -4.592090   -1.133837
     75          1           0       -9.929801   -5.156022   -1.667709
     76          1           0       -7.557274    0.566141    0.419610
     77          1           0       -6.437351    0.612641    4.710662
     78          1           0       -4.881884    0.541200    3.883732
     79          1           0       -5.705722   -0.853797    4.217501
     80         12           0       12.695836   -0.367385    0.353286
     81          6           0       11.482643    2.590974   -1.096733
     82          6           0       10.262929   -0.102612    2.709806
     83          6           0       13.651867   -3.340762    1.323558
     84          6           0       14.538829   -0.773882   -2.713397
     85          7           0       11.138747    1.108155    0.766360
     86          6           0       10.804754    2.219958    0.045821
     87          6           0        9.443782    2.725699    0.547147
     88          6           0        9.435460    2.225254    1.987347
     89          6           0       10.260914    0.941614    1.775610
     90          6           0       10.131046    3.198588    2.966845
     91          6           0        8.260802    2.128668   -0.301372
     92          6           0        7.391391    3.129235   -1.210319
     93          1           0        7.358330    2.917164   -2.733474
     94          7           0       12.012842   -1.585798    1.777288
     95          6           0       11.009365   -1.292492    2.671895
     96          6           0       10.959907   -2.339130    3.644283
     97          6           0       12.010455   -3.278642    3.378860
     98          6           0       12.624290   -2.778677    2.114613
     99          6           0        9.923963   -2.373505    4.819675
    100          6           0       12.368437   -4.508534    4.289795
    101          8           0       11.811244   -4.661848    5.332929
    102          6           0       13.566140   -5.276877    3.972833
    103          7           0       13.679324   -1.990327   -0.716251
    104          6           0       14.225836   -2.912181    0.111696
    105          6           0       15.513722   -3.512377   -0.426858
    106          6           0       15.579266   -2.973775   -1.847855
    107          6           0       14.517193   -1.821929   -1.779348
    108          6           0       16.778383   -3.112256    0.419547
    109          6           0       15.325969   -3.963446   -3.080553
    110          6           0       16.441602   -4.410326   -3.986773
    111          7           0       13.139090    0.734232   -1.414728
    112          6           0       13.892839    0.453838   -2.561681
    113          6           0       13.786116    1.512021   -3.542741
    114          6           0       12.873615    2.375831   -2.988709
    115          6           0       12.464473    1.884759   -1.705256
    116          6           0       14.461684    1.537942   -4.850354
    117          6           0       12.158589    3.622688   -3.214056
    118          8           0       12.264410    4.435727   -4.140613
    119          6           0       11.326903    3.864705   -1.972066
    120          6           0       11.820703    5.162994   -1.343058
    121          8           0       12.993234    5.290354   -0.997901
    122          8           0       10.826703    6.153844   -1.354396
    123          6           0       11.236459    7.418769   -0.805415
    124          1           0        9.576510    0.094760    3.535457
    125          1           0       14.154842   -4.151534    1.852843
    126          1           0       15.186444   -0.852693   -3.589324
    127          1           0        9.419389    3.798769    0.355692
    128          1           0        8.399851    2.054767    2.278890
    129          1           0        9.350309    3.249862    3.724937
    130          1           0       10.255590    4.119894    2.397131
    131          1           0       11.090143    2.882777    3.377502
    132          1           0        7.548832    1.694527    0.400461
    133          1           0        8.657867    1.294180   -0.878817
    134          1           0        7.859058    4.106261   -1.086302
    135          1           0        6.357842    3.253099   -0.889209
    136          1           0        9.360422   -3.292433    4.978228
    137          1           0        9.214977   -1.572702    4.607041
    138          1           0       10.375486   -2.143689    5.784938
    139          1           0       13.568038   -5.716573    2.975217
    140          1           0       13.667004   -6.073808    4.709552
    141          1           0       14.457099   -4.697015    4.209844
    142          1           0       15.516857   -4.602170   -0.387381
    143          1           0       16.534047   -2.476722   -2.019493
    144          1           0       17.082685   -3.880583    1.130098
    145          1           0       16.628609   -2.123254    0.852584
    146          1           0       17.607435   -3.002127   -0.280959
    147          1           0       14.457230   -3.782798   -3.712692
    148          1           0       15.050495   -4.820150   -2.464938
    149          1           0       16.664069   -5.474176   -3.910399
    150          1           0       17.355333   -3.872622   -3.732497
    151          1           0       16.097616   -4.146208   -4.986518
    152          1           0       14.663266    0.506179   -5.139608
    153          1           0       15.419597    2.027578   -4.672683
    154          1           0       13.895449    2.114442   -5.580445
    155          1           0       10.328844    4.008508   -2.383731
    156          1           0       11.277822    7.449081    0.283706
    157          1           0       10.570158    8.223895   -1.113836
    158          1           0       12.215061    7.759329   -1.142644
 ---------------------------------------------------------------------

 SCF Done:  E(RPBE1PBE) =  -4067.37591235     A.U. after   16 cycles

 Excitation energies and oscillator strengths:

 Excited State   1:      Singlet-A      1.8637 eV  665.24 nm  f=0.3650  <S**2>=0.000
     310 -> 316        0.18267
     311 -> 313        0.68768
 This state for optimization and/or second-order correction.
 Total Energy, E(TD-HF/TD-DFT) =  -4067.30742108
 Copying the excited state density for this state as the 1-particle RhoCI density.

 Excited State   2:      Singlet-A      1.8786 eV  659.98 nm  f=0.3567  <S**2>=0.000
     309 -> 315       -0.18293
     312 -> 314        0.68799
     312 <- 314       -0.10067

 Excited State   3:      Singlet-A      1.9104 eV  649.01 nm  f=0.0000  <S**2>=0.000
     312 -> 313        0.70709

 Excited State   4:      Singlet-A      2.0254 eV  612.14 nm  f=0.0000  <S**2>=0.000
     311 -> 314        0.70710

 Excited State   5:      Singlet-A      2.2119 eV  560.54 nm  f=0.1059  <S**2>=0.000
     310 -> 313        0.65039
     311 -> 316       -0.26772

 The electronic state is 1-A.
 Alpha  occ. eigenvalues --  -46.92017 -46.91969 -19.26618 -19.25977 -19.20726
 Alpha  occ. eigenvalues --  -19.19518 -19.19380 -19.19249 -19.18866 -19.18510
 Alpha  occ. eigenvalues --  -14.41961 -14.41580 -14.41564 -14.41531 -14.39364
 Alpha  occ. eigenvalues --  -14.39014 -14.38937 -14.38865 -10.37212 -10.35728
 Alpha  occ. eigenvalues --  -10.32865 -10.32818 -10.32154 -10.31591 -10.29235
 Alpha  occ. eigenvalues --  -10.29156 -10.28949 -10.28862 -10.28819 -10.28806
 Alpha  occ. eigenvalues --  -10.28675 -10.28496 -10.28469 -10.28420 -10.28337
 Alpha  occ. eigenvalues --  -10.28277 -10.28050 -10.27377 -10.27226 -10.26999
 Alpha  occ. eigenvalues --  -10.26911 -10.26847 -10.26734 -10.26620 -10.26491
 Alpha  occ. eigenvalues --  -10.26403 -10.26168 -10.25938 -10.25932 -10.25928
 Alpha  occ. eigenvalues --  -10.25925 -10.25889 -10.25880 -10.25737 -10.25652
 Alpha  occ. eigenvalues --  -10.25623 -10.25534 -10.25355 -10.25349 -10.25321
 Alpha  occ. eigenvalues --  -10.25225 -10.24939 -10.24897 -10.24808 -10.24686
 Alpha  occ. eigenvalues --  -10.24663 -10.24491 -10.24458 -10.24448 -10.24326
 Alpha  occ. eigenvalues --  -10.24144 -10.24023 -10.23947 -10.23862 -10.23684
 Alpha  occ. eigenvalues --  -10.23557 -10.23537 -10.23459 -10.23366 -10.23309
 Alpha  occ. eigenvalues --  -10.23289 -10.23065 -10.22939 -10.22935 -10.22716
 Alpha  occ. eigenvalues --  -10.22360  -3.14206  -3.14143  -1.87020  -1.86985
 Alpha  occ. eigenvalues --   -1.86595  -1.86520  -1.86429  -1.86370  -1.12665
 Alpha  occ. eigenvalues --   -1.10659  -1.06641  -1.04533  -1.03728  -1.03365
 Alpha  occ. eigenvalues --   -1.02947  -1.01367  -1.00048  -0.99316  -0.98829
 Alpha  occ. eigenvalues --   -0.98455  -0.97445  -0.97430  -0.96719  -0.96302
 Alpha  occ. eigenvalues --   -0.87316  -0.86325  -0.83844  -0.83391  -0.83230
 Alpha  occ. eigenvalues --   -0.83202  -0.82958  -0.82800  -0.81877  -0.81859
 Alpha  occ. eigenvalues --   -0.81391  -0.81094  -0.79527  -0.79263  -0.78791
 Alpha  occ. eigenvalues --   -0.78696  -0.78460  -0.77900  -0.77188  -0.76756
 Alpha  occ. eigenvalues --   -0.76696  -0.76684  -0.75324  -0.75210  -0.75121
 Alpha  occ. eigenvalues --   -0.74854  -0.72882  -0.72286  -0.71879  -0.71471
 Alpha  occ. eigenvalues --   -0.71215  -0.70652  -0.70607  -0.70521  -0.69499
 Alpha  occ. eigenvalues --   -0.69389  -0.67252  -0.66802  -0.66537  -0.66239
 Alpha  occ. eigenvalues --   -0.63503  -0.63350  -0.62968  -0.62658  -0.62426
 Alpha  occ. eigenvalues --   -0.62254  -0.61274  -0.61167  -0.60225  -0.60202
 Alpha  occ. eigenvalues --   -0.60023  -0.59730  -0.59403  -0.59345  -0.58972
 Alpha  occ. eigenvalues --   -0.58791  -0.57221  -0.57104  -0.55273  -0.54695
 Alpha  occ. eigenvalues --   -0.54551  -0.54015  -0.53677  -0.53635  -0.53421
 Alpha  occ. eigenvalues --   -0.53125  -0.52903  -0.52437  -0.52297  -0.52226
 Alpha  occ. eigenvalues --   -0.51143  -0.50786  -0.50614  -0.50221  -0.49748
 Alpha  occ. eigenvalues --   -0.49632  -0.49343  -0.48910  -0.48825  -0.48523
 Alpha  occ. eigenvalues --   -0.48442  -0.48081  -0.47920  -0.47630  -0.47549
 Alpha  occ. eigenvalues --   -0.47427  -0.47379  -0.47253  -0.47110  -0.46905
 Alpha  occ. eigenvalues --   -0.46754  -0.46686  -0.46259  -0.46112  -0.45546
 Alpha  occ. eigenvalues --   -0.45433  -0.45343  -0.45066  -0.44989  -0.44684
 Alpha  occ. eigenvalues --   -0.44630  -0.44398  -0.44395  -0.44232  -0.44100
 Alpha  occ. eigenvalues --   -0.43935  -0.43838  -0.43610  -0.43568  -0.43490
 Alpha  occ. eigenvalues --   -0.43241  -0.43151  -0.42948  -0.42883  -0.42684
 Alpha  occ. eigenvalues --   -0.42620  -0.42389  -0.42219  -0.42178  -0.41785
 Alpha  occ. eigenvalues --   -0.41285  -0.41243  -0.40993  -0.40969  -0.40942
 Alpha  occ. eigenvalues --   -0.40818  -0.40792  -0.40658  -0.40644  -0.40350
 Alpha  occ. eigenvalues --   -0.40228  -0.40064  -0.40025  -0.39950  -0.39819
 Alpha  occ. eigenvalues --   -0.39534  -0.39168  -0.39158  -0.39016  -0.38940
 Alpha  occ. eigenvalues --   -0.38878  -0.38812  -0.38583  -0.38319  -0.38087
 Alpha  occ. eigenvalues --   -0.38073  -0.37903  -0.37838  -0.37717  -0.37390
 Alpha  occ. eigenvalues --   -0.37337  -0.37177  -0.36969  -0.36773  -0.36712
 Alpha  occ. eigenvalues --   -0.36495  -0.36426  -0.36391  -0.36322  -0.36123
 Alpha  occ. eigenvalues --   -0.35948  -0.35742  -0.35734  -0.35528  -0.35356
 Alpha  occ. eigenvalues --   -0.35219  -0.35046  -0.34868  -0.34828  -0.34435
 Alpha  occ. eigenvalues --   -0.33835  -0.33434  -0.32920  -0.32920  -0.32401
 Alpha  occ. eigenvalues --   -0.32260  -0.32016  -0.31747  -0.31652  -0.31534
 Alpha  occ. eigenvalues --   -0.31367  -0.30887  -0.29850  -0.29699  -0.29652
 Alpha  occ. eigenvalues --   -0.28952  -0.28870  -0.28100  -0.27273  -0.26897
 Alpha  occ. eigenvalues --   -0.26337  -0.26052  -0.25958  -0.25793  -0.25715
 Alpha  occ. eigenvalues --   -0.25522  -0.25200  -0.24699  -0.21224  -0.20828
 Alpha  occ. eigenvalues --   -0.18790  -0.18609
 Alpha virt. eigenvalues --   -0.11073  -0.10819  -0.05582  -0.05400  -0.04401
 Alpha virt. eigenvalues --   -0.03644  -0.02290  -0.01818  -0.00818  -0.00301
 Alpha virt. eigenvalues --   -0.00177   0.00819   0.01047   0.01606   0.01773

 Mulliken charges:
               1
     1  Mg  11.995348
     2  C    6.019685
     3  C    5.999080
     4  C    5.974188
     5  C    6.006124
     6  N    7.011337
     7  C    5.967546
     8  C    6.015199
     9  C    5.989157
    10  C    6.030394
    11  C    5.995792
    12  C    6.002717
    13  C    6.002061
    14  H    0.994255
    15  N    6.992999
    16  C    6.032678
    17  C    6.018108
    18  C    6.018992
    19  C    6.026082
    20  C    5.994293
    21  C    6.012952
    22  O    8.028913
    23  C    5.995400
    24  N    6.989954
    25  C    6.040909
    26  C    5.994139
    27  C    6.007310
    28  C    5.972747
    29  C    5.997230
    30  C    6.002079
    31  C    6.000143
    32  N    7.000318
    33  C    5.971612
    34  C    5.969163
    35  C    5.999291
    36  C    5.969574
    37  C    6.000046
    38  C    5.981871
    39  O    7.973243
    40  C    5.998650
    41  C    5.999118
    42  O    7.992216
    43  O    7.999182
    44  C    6.002605
    45  H    1.012527
    46  H    1.002979
    47  H    0.990274
    48  H    0.999083
    49  H    0.999190
    50  H    1.012665
    51  H    0.995543
    52  H    1.006514
    53  H    0.991399
    54  H    1.001185
    55  H    1.004618
    56  H    0.999981
    57  H    1.017420
    58  H    1.014954
    59  H    1.017954
    60  H    1.005334
    61  H    1.007080
    62  H    1.013646
    63  H    0.999730
    64  H    0.997504
    65  H    0.993920
    66  H    1.007383
    67  H    1.003145
    68  H    1.003797
    69  H    0.989470
    70  H    1.003168
    71  H    0.994009
    72  H    1.000940
    73  H    0.980560
    74  H    0.985762
    75  H    0.982511
    76  H    0.992034
    77  H    0.993976
    78  H    0.995919
    79  H    0.999130
    80  Mg  12.000014
    81  C    6.001747
    82  C    5.999116
    83  C    5.998767
    84  C    6.000856
    85  N    7.000349
    86  C    5.997668
    87  C    5.999954
    88  C    5.999444
    89  C    6.002448
    90  C    5.999813
    91  C    5.999954
    92  C    5.999980
    93  H    1.000538
    94  N    6.999553
    95  C    6.003008
    96  C    6.001522
    97  C    6.000800
    98  C    6.002814
    99  C    5.999714
   100  C    6.001197
   101  O    8.001341
   102  C    5.999465
   103  N    7.000118
   104  C    6.002334
   105  C    5.999438
   106  C    6.000363
   107  C    5.997533
   108  C    5.999706
   109  C    6.000725
   110  C    5.999956
   111  N    7.000114
   112  C    5.997322
   113  C    5.997739
   114  C    6.000017
   115  C    5.997480
   116  C    6.000134
   117  C    5.998488
   118  O    7.997490
   119  C    6.000257
   120  C    5.999417
   121  O    7.999699
   122  O    7.999900
   123  C    6.000351
   124  H    1.000969
   125  H    1.000501
   126  H    0.999099
   127  H    1.000230
   128  H    1.000519
   129  H    1.000168
   130  H    1.001048
   131  H    0.999754
   132  H    0.999498
   133  H    1.000125
   134  H    0.999866
   135  H    1.000095
   136  H    1.001599
   137  H    1.001449
   138  H    1.001212
   139  H    1.000812
   140  H    1.000877
   141  H    1.000538
   142  H    0.999926
   143  H    0.999887
   144  H    0.999731
   145  H    1.000167
   146  H    1.000701
   147  H    1.000149
   148  H    0.999040
   149  H    0.999510
   150  H    0.999712
   151  H    1.000116
   152  H    0.998742
   153  H    0.998365
   154  H    0.998898
   155  H    0.999361
   156  H    0.999399
   157  H    0.999557
   158  H    0.999735
 Sum of Mulliken charges = 624.00000

 Dipole moment (field-independent basis, Debye):
    X=             -8.3430    Y=              5.6006    Z=              1.5169  Tot=             10.1623
 Quadrupole moment (field-independent basis, Debye-Ang):
   XX=            205.8133   YY=             -4.8361   ZZ=              0.3259
   XY=            -83.2028   XZ=             -3.6087   YZ=             -0.6871

 Normal termination of Gaussian 16 at Fri Oct 15 14:17:33 2021.
