 Gaussian 16, Revision A.03,
 Gaussian 16:  ES64L-G16RevA.03 25-Dec-2016

 --------------------------------------------------------
 #p PBE1PBE/Def2SVP td=(nstates=5) density=(transition=1)
 --------------------------------------------------------

 --------------------------------
 TDDFT excited states in gaussian
 --------------------------------
 Symbolic Z-matrix:
 Charge =  0 Multiplicity = 1

                         Standard orientation:
 ---------------------------------------------------------------------
 Center     Atomic      Atomic             Coordinates (Angstroms)
 Number     Number       Type             X           Y           Z
 ---------------------------------------------------------------------
      1         12           0       -8.948843   -0.378285   -0.280212
      2          6           0       -7.386606    2.385757    1.164644
      3          6           0      -10.789388    1.647141   -2.174127
      4          6           0      -11.218772   -2.917648   -0.570312
      5          6           0       -7.034922   -2.454824    1.759682
      6          7           0       -8.953145    1.796515   -0.600603
      7          6           0       -8.234915    2.684555    0.075948
      8          6           0       -8.454175    4.106350   -0.556643
      9          6           0       -9.623131    3.849212   -1.537534
     10          6           0       -9.840167    2.342512   -1.434381
     11          6           0      -11.007650    4.543835   -1.102631
     12          6           0       -7.183443    4.724320   -1.298723
     13          6           0       -7.017296    6.178844   -1.020043
     14          1           0       -6.843656    7.148759   -2.178643
     15          7           0      -10.738556   -0.593164   -1.264053
     16          6           0      -11.338880    0.371011   -2.029674
     17          6           0      -12.403539   -0.257288   -2.824206
     18          6           0      -12.518706   -1.591913   -2.344589
     19          6           0      -11.484197   -1.719688   -1.304749
     20          6           0      -13.267605    0.524549   -3.864474
     21          6           0      -13.554404   -2.685080   -2.745983
     22          8           0      -13.574478   -3.818614   -2.279562
     23          6           0      -14.563009   -2.341432   -3.775971
     24          7           0       -9.130520   -2.323192    0.477127
     25          6           0      -10.195066   -3.209771    0.288860
     26          6           0      -10.020697   -4.435573    1.223164
     27          6           0       -8.442718   -4.512134    1.415393
     28          6           0       -8.206873   -2.992675    1.183584
     29          6           0      -10.861897   -4.341998    2.514276
     30          6           0       -7.669661   -5.341129    0.429421
     31          6           0       -7.356400   -4.821518   -0.942252
     32          7           0       -7.362811   -0.185132    1.028540
     33          6           0       -6.701617   -1.094881    1.820893
     34          6           0       -5.667287   -0.459243    2.640330
     35          6           0       -5.958848    0.971643    2.497339
     36          6           0       -7.012581    1.049438    1.505431
     37          6           0       -4.779063   -1.116852    3.566965
     38          6           0       -5.617397    2.315651    2.947190
     39          8           0       -4.889817    2.713432    3.777870
     40          6           0       -6.499459    3.301600    2.017672
     41          6           0       -7.228267    4.382736    2.774998
     42          8           0       -8.376550    4.298412    3.200449
     43          8           0       -6.416671    5.515790    2.821374
     44          6           0       -6.953395    6.712363    3.494606
     45          1           0      -11.343800    2.123301   -2.985963
     46          1           0      -11.993901   -3.677091   -0.695342
     47          1           0       -6.407375   -3.167900    2.297670
     48          1           0       -8.813692    4.830627    0.174722
     49          1           0       -9.475240    4.184019   -2.564227
     50          1           0      -11.036960    5.517513   -1.592124
     51          1           0      -11.105995    4.762867   -0.039715
     52          1           0      -11.823324    3.925575   -1.479334
     53          1           0       -7.253508    4.610900   -2.380668
     54          1           0       -6.229768    4.246054   -1.074967
     55          1           0       -6.062070    6.219478   -0.497314
     56          1           0       -7.746899    6.661508   -0.370405
     57          1           0      -14.122285    0.907211   -3.307334
     58          1           0      -13.533510   -0.100551   -4.717249
     59          1           0      -12.841302    1.481791   -4.166445
     60          1           0      -15.053923   -1.368536   -3.794173
     61          1           0      -15.375183   -3.067473   -3.749051
     62          1           0      -14.184245   -2.630605   -4.756703
     63          1           0      -10.343837   -5.271300    0.603149
     64          1           0       -8.163032   -4.853110    2.412035
     65          1           0      -10.325918   -4.459591    3.456103
     66          1           0      -11.780965   -4.927473    2.480538
     67          1           0      -11.288908   -3.343418    2.605317
     68          1           0       -8.113932   -6.312561    0.215918
     69          1           0       -6.707576   -5.579460    0.883181
     70          1           0       -6.353766   -4.415320   -0.809929
     71          1           0       -7.983004   -4.002773   -1.296659
     72          1           0       -7.364065   -5.650489   -1.650696
     73          1           0       -3.838381   -0.568529    3.513219
     74          1           0       -4.623629   -2.129935    3.196847
     75          1           0       -5.183671   -1.065631    4.577310
     76          1           0       -5.806684    3.799382    1.339147
     77          1           0       -7.281770    6.397260    4.485419
     78          1           0       -7.827905    7.094124    2.968391
     79          1           0       -6.318431    7.589326    3.621619
     80         12           0        8.628239   -1.134068   -0.167436
     81          6           0       10.967999    1.658540   -0.572727
     82          6           0        6.082980    1.177767   -0.840492
     83          6           0        6.464315   -3.472538    0.522906
     84          6           0       11.288394   -3.251079    0.283974
     85          7           0        8.521846    1.159032   -0.439425
     86          6           0        9.604246    2.099145   -0.703054
     87          6           0        9.123915    3.538982   -0.984774
     88          6           0        7.509010    3.310016   -0.842800
     89          6           0        7.309333    1.790371   -0.680402
     90          6           0        6.872856    4.115268    0.273527
     91          6           0        9.660579    4.037613   -2.360595
     92          6           0        9.027119    5.293034   -2.880338
     93          1           0        9.892528    6.376577   -3.484218
     94          7           0        6.523882   -1.171911   -0.128275
     95          6           0        5.644470   -0.129581   -0.442548
     96          6           0        4.265198   -0.604807   -0.350606
     97          6           0        4.346120   -2.001042    0.050532
     98          6           0        5.818676   -2.309534    0.175092
     99          6           0        2.993059    0.241827   -0.722580
    100          6           0        3.288654   -2.998420    0.360356
    101          8           0        3.492730   -4.167090    0.660876
    102          6           0        1.868980   -2.641109    0.201531
    103          7           0        8.830799   -3.048490    0.228770
    104          6           0        7.804193   -3.812716    0.606047
    105          6           0        8.230221   -5.260092    0.946524
    106          6           0        9.657623   -5.268295    0.440069
    107          6           0       10.000660   -3.730128    0.362640
    108          6           0        8.121550   -5.586247    2.431564
    109          6           0       10.070769   -5.960350   -0.833035
    110          6           0        9.438167   -5.391076   -2.084940
    111          7           0       10.692207   -0.884821   -0.042270
    112          6           0       11.663075   -1.898386    0.050227
    113          6           0       12.972194   -1.294136    0.019453
    114          6           0       12.679222    0.057725   -0.295507
    115          6           0       11.288354    0.275636   -0.311158
    116          6           0       14.314767   -1.962534    0.076797
    117          6           0       13.378246    1.335573   -0.635477
    118          8           0       14.586453    1.577205   -0.843783
    119          6           0       12.276013    2.382037   -0.783534
    120          6           0       12.537331    3.555403    0.163165
    121          8           0       12.563877    3.595050    1.428709
    122          8           0       12.606415    4.677655   -0.608287
    123          6           0       12.773194    5.952578    0.125617
    124          1           0        5.319406    1.843686   -1.245476
    125          1           0        5.759838   -4.252253    0.819746
    126          1           0       12.180742   -3.859897    0.444413
    127          1           0        9.612475    4.152463   -0.227830
    128          1           0        7.040178    3.511102   -1.806078
    129          1           0        6.102713    4.755349   -0.157863
    130          1           0        7.664181    4.737023    0.690739
    131          1           0        6.607915    3.586716    1.188990
    132          1           0        9.610940    3.172190   -3.022322
    133          1           0       10.729535    4.228491   -2.264942
    134          1           0        8.471185    5.899503   -2.165704
    135          1           0        8.379918    5.044395   -3.720924
    136          1           0        2.542986   -0.291988   -1.560084
    137          1           0        3.225435    1.258039   -1.040673
    138          1           0        2.357520    0.236790    0.163043
    139          1           0        1.615367   -1.656260    0.594315
    140          1           0        1.348965   -3.408053    0.774459
    141          1           0        1.747300   -2.542945   -0.876770
    142          1           0        7.561032   -5.924694    0.399973
    143          1           0       10.339592   -5.744684    1.144956
    144          1           0        7.729677   -6.597515    2.534247
    145          1           0        7.444021   -4.899783    2.938207
    146          1           0        9.115277   -5.656497    2.875373
    147          1           0        9.894794   -7.028674   -0.704299
    148          1           0       11.126188   -5.789911   -1.044855
    149          1           0        9.055631   -6.172233   -2.740848
    150          1           0       10.150373   -4.850132   -2.708433
    151          1           0        8.594117   -4.726558   -1.899861
    152          1           0       14.922040   -1.635111   -0.766717
    153          1           0       14.396243   -3.049408    0.087223
    154          1           0       14.792695   -1.629369    0.998276
    155          1           0       12.343494    2.804179   -1.786608
    156          1           0       11.812581    6.461616    0.201591
    157          1           0       13.530603    6.410498   -0.510593
    158          1           0       13.263589    5.817169    1.090461
 ---------------------------------------------------------------------

 SCF Done:  E(RPBE1PBE) =  -4067.39564661     A.U. after   17 cycles

 Excitation energies and oscillator strengths:

 Excited State   1:      Singlet-A      1.6659 eV  744.26 nm  f=0.0000  <S**2>=0.000
     312 -> 313        0.70703
 This state for optimization and/or second-order correction.
 Total Energy, E(TD-HF/TD-DFT) =  -4067.33442697
 Copying the excited state density for this state as the 1-particle RhoCI density.

 Excited State   2:      Singlet-A      1.8133 eV  683.75 nm  f=0.6081  <S**2>=0.000
     309 -> 315       -0.15027
     311 -> 313        0.65082
     312 -> 314       -0.24720
     311 <- 313       -0.10593

 Excited State   3:      Singlet-A      1.8430 eV  672.74 nm  f=0.1763  <S**2>=0.000
     310 -> 316        0.16087
     311 -> 313        0.24666
     312 -> 314        0.64907
     312 <- 314       -0.10649

 Excited State   4:      Singlet-A      1.9707 eV  629.13 nm  f=0.0000  <S**2>=0.000
     311 -> 314        0.70705

 Excited State   5:      Singlet-A      2.1798 eV  568.79 nm  f=0.1200  <S**2>=0.000
     309 -> 313        0.66135
     311 -> 315        0.23351

 The electronic state is 1-A.
 Alpha  occ. eigenvalues --  -46.91478 -46.91139 -19.26489 -19.25784 -19.20388
 Alpha  occ. eigenvalues --  -19.19983 -19.19931 -19.19578 -19.18879 -19.18762
 Alpha  occ. eigenvalues --  -14.42061 -14.41775 -14.41636 -14.41158 -14.39494
 Alpha  occ. eigenvalues --  -14.39077 -14.39046 -14.38650 -10.37069 -10.36775
 Alpha  occ. eigenvalues --  -10.32951 -10.32700 -10.31966 -10.31601 -10.29887
 Alpha  occ. eigenvalues --  -10.29183 -10.29162 -10.29123 -10.29019 -10.28768
 Alpha  occ. eigenvalues --  -10.28630 -10.28553 -10.28542 -10.28421 -10.28121
 Alpha  occ. eigenvalues --  -10.27958 -10.27827 -10.27790 -10.27497 -10.27368
 Alpha  occ. eigenvalues --  -10.27291 -10.27279 -10.26804 -10.26778 -10.26716
 Alpha  occ. eigenvalues --  -10.26534 -10.26532 -10.26441 -10.26383 -10.26303
 Alpha  occ. eigenvalues --  -10.26257 -10.26122 -10.26109 -10.25945 -10.25895
 Alpha  occ. eigenvalues --  -10.25766 -10.25683 -10.25624 -10.25493 -10.25453
 Alpha  occ. eigenvalues --  -10.25164 -10.25112 -10.25065 -10.25048 -10.24830
 Alpha  occ. eigenvalues --  -10.24683 -10.24656 -10.24457 -10.24447 -10.23924
 Alpha  occ. eigenvalues --  -10.23880 -10.23635 -10.23606 -10.23587 -10.23542
 Alpha  occ. eigenvalues --  -10.23317 -10.23258 -10.23252 -10.23237 -10.23235
 Alpha  occ. eigenvalues --  -10.23126 -10.23048 -10.22916 -10.22700 -10.22056
 Alpha  occ. eigenvalues --  -10.21975  -3.13756  -3.13456  -1.86601  -1.86303
 Alpha  occ. eigenvalues --   -1.86107  -1.86008  -1.85843  -1.85681  -1.10847
 Alpha  occ. eigenvalues --   -1.09989  -1.07797  -1.05060  -1.04888  -1.02675
 Alpha  occ. eigenvalues --   -1.02359  -1.00630  -0.99944  -0.99640  -0.98349
 Alpha  occ. eigenvalues --   -0.97717  -0.97680  -0.96939  -0.96702  -0.95127
 Alpha  occ. eigenvalues --   -0.86742  -0.86293  -0.83980  -0.83432  -0.83105
 Alpha  occ. eigenvalues --   -0.83021  -0.82923  -0.82509  -0.81590  -0.81580
 Alpha  occ. eigenvalues --   -0.81377  -0.81052  -0.80734  -0.80316  -0.78990
 Alpha  occ. eigenvalues --   -0.78604  -0.78390  -0.77979  -0.77198  -0.76972
 Alpha  occ. eigenvalues --   -0.76289  -0.76191  -0.75788  -0.75427  -0.74861
 Alpha  occ. eigenvalues --   -0.74383  -0.72709  -0.72630  -0.71677  -0.71601
 Alpha  occ. eigenvalues --   -0.71192  -0.71178  -0.70303  -0.70247  -0.69783
 Alpha  occ. eigenvalues --   -0.69365  -0.67270  -0.66830  -0.66302  -0.66057
 Alpha  occ. eigenvalues --   -0.64571  -0.63793  -0.63706  -0.63081  -0.62268
 Alpha  occ. eigenvalues --   -0.62033  -0.61606  -0.61297  -0.60284  -0.59561
 Alpha  occ. eigenvalues --   -0.59320  -0.59206  -0.58945  -0.58729  -0.58673
 Alpha  occ. eigenvalues --   -0.58359  -0.56560  -0.56509  -0.54883  -0.54647
 Alpha  occ. eigenvalues --   -0.54252  -0.53773  -0.53685  -0.53593  -0.52896
 Alpha  occ. eigenvalues --   -0.52887  -0.52445  -0.52262  -0.51925  -0.51780
 Alpha  occ. eigenvalues --   -0.50788  -0.50570  -0.50426  -0.50211  -0.49968
 Alpha  occ. eigenvalues --   -0.49966  -0.49772  -0.49442  -0.49328  -0.48919
 Alpha  occ. eigenvalues --   -0.48752  -0.48317  -0.48073  -0.47836  -0.47594
 Alpha  occ. eigenvalues --   -0.47473  -0.47323  -0.47194  -0.47067  -0.46874
 Alpha  occ. eigenvalues --   -0.46778  -0.46368  -0.46302  -0.46057  -0.45907
 Alpha  occ. eigenvalues --   -0.45798  -0.45388  -0.45137  -0.45119  -0.44972
 Alpha  occ. eigenvalues --   -0.44889  -0.44792  -0.44769  -0.44470  -0.44314
 Alpha  occ. eigenvalues --   -0.44282  -0.43938  -0.43920  -0.43489  -0.43456
 Alpha  occ. eigenvalues --   -0.43405  -0.43195  -0.43104  -0.42915  -0.42782
 Alpha  occ. eigenvalues --   -0.42719  -0.42591  -0.42397  -0.42133  -0.41780
 Alpha  occ. eigenvalues --   -0.41704  -0.41556  -0.41471  -0.41460  -0.41304
 Alpha  occ. eigenvalues --   -0.41141  -0.40940  -0.40881  -0.40674  -0.40597
 Alpha  occ. eigenvalues --   -0.40470  -0.40368  -0.40180  -0.39963  -0.39853
 Alpha  occ. eigenvalues --   -0.39676  -0.39604  -0.39282  -0.39232  -0.39122
 Alpha  occ. eigenvalues --   -0.39101  -0.39067  -0.38824  -0.38720  -0.38340
 Alpha  occ. eigenvalues --   -0.38338  -0.38218  -0.37885  -0.37824  -0.37640
 Alpha  occ. eigenvalues --   -0.37453  -0.37323  -0.37025  -0.36899  -0.36674
 Alpha  occ. eigenvalues --   -0.36517  -0.36469  -0.36464  -0.36297  -0.36152
 Alpha  occ. eigenvalues --   -0.36063  -0.35716  -0.35527  -0.35341  -0.35307
 Alpha  occ. eigenvalues --   -0.34822  -0.34171  -0.34157  -0.33983  -0.33834
 Alpha  occ. eigenvalues --   -0.33793  -0.33123  -0.32834  -0.32309  -0.32156
 Alpha  occ. eigenvalues --   -0.32085  -0.31791  -0.31773  -0.31600  -0.31560
 Alpha  occ. eigenvalues --   -0.31163  -0.31090  -0.29662  -0.29509  -0.29399
 Alpha  occ. eigenvalues --   -0.29105  -0.28593  -0.28508  -0.27055  -0.26937
 Alpha  occ. eigenvalues --   -0.26335  -0.26193  -0.25834  -0.25806  -0.25769
 Alpha  occ. eigenvalues --   -0.25363  -0.25303  -0.24991  -0.21136  -0.21050
 Alpha  occ. eigenvalues --   -0.19082  -0.18577
 Alpha virt. eigenvalues --   -0.11672  -0.11081  -0.05213  -0.05047  -0.03974
 Alpha virt. eigenvalues --   -0.03849  -0.02183  -0.02077  -0.00322  -0.00300
 Alpha virt. eigenvalues --   -0.00008   0.00116   0.01253   0.01494   0.01920

 Mulliken charges:
               1
     1  Mg  12.000000
     2  C    6.000001
     3  C    6.000000
     4  C    5.999999
     5  C    6.000000
     6  N    7.000000
     7  C    6.000000
     8  C    6.000000
     9  C    6.000000
    10  C    6.000000
    11  C    6.000000
    12  C    6.000000
    13  C    6.000000
    14  H    1.000000
    15  N    7.000000
    16  C    6.000000
    17  C    6.000001
    18  C    6.000000
    19  C    6.000001
    20  C    6.000000
    21  C    6.000000
    22  O    8.000000
    23  C    6.000000
    24  N    7.000000
    25  C    6.000001
    26  C    6.000000
    27  C    6.000000
    28  C    6.000000
    29  C    6.000000
    30  C    6.000000
    31  C    6.000000
    32  N    7.000000
    33  C    6.000001
    34  C    6.000000
    35  C    6.000000
    36  C    6.000000
    37  C    5.999999
    38  C    6.000000
    39  O    8.000000
    40  C    6.000000
    41  C    6.000000
    42  O    8.000000
    43  O    8.000000
    44  C    6.000000
    45  H    1.000000
    46  H    1.000000
    47  H    1.000000
    48  H    1.000000
    49  H    1.000000
    50  H    1.000000
    51  H    1.000000
    52  H    1.000000
    53  H    1.000000
    54  H    1.000000
    55  H    1.000000
    56  H    1.000000
    57  H    1.000000
    58  H    1.000000
    59  H    1.000000
    60  H    1.000000
    61  H    1.000000
    62  H    1.000000
    63  H    1.000000
    64  H    1.000000
    65  H    1.000000
    66  H    1.000000
    67  H    1.000000
    68  H    1.000000
    69  H    1.000000
    70  H    1.000000
    71  H    1.000000
    72  H    1.000000
    73  H    0.999999
    74  H    1.000000
    75  H    1.000000
    76  H    1.000000
    77  H    1.000000
    78  H    1.000000
    79  H    1.000000
    80  Mg  12.000000
    81  C    6.000000
    82  C    5.999999
    83  C    6.000000
    84  C    6.000000
    85  N    7.000000
    86  C    6.000000
    87  C    6.000000
    88  C    6.000000
    89  C    6.000000
    90  C    6.000000
    91  C    6.000000
    92  C    6.000000
    93  H    1.000000
    94  N    7.000000
    95  C    6.000000
    96  C    5.999999
    97  C    6.000000
    98  C    6.000000
    99  C    6.000000
   100  C    6.000001
   101  O    7.999999
   102  C    6.000000
   103  N    7.000000
   104  C    6.000000
   105  C    6.000000
   106  C    6.000000
   107  C    6.000000
   108  C    6.000000
   109  C    6.000000
   110  C    6.000000
   111  N    7.000000
   112  C    6.000000
   113  C    6.000000
   114  C    6.000000
   115  C    6.000000
   116  C    6.000000
   117  C    6.000000
   118  O    8.000000
   119  C    6.000000
   120  C    6.000000
   121  O    8.000000
   122  O    8.000000
   123  C    6.000000
   124  H    1.000000
   125  H    1.000000
   126  H    1.000000
   127  H    1.000000
   128  H    1.000000
   129  H    1.000000
   130  H    1.000000
   131  H    1.000000
   132  H    1.000000
   133  H    1.000000
   134  H    1.000000
   135  H    1.000000
   136  H    1.000000
   137  H    1.000000
   138  H    1.000000
   139  H    1.000001
   140  H    1.000000
   141  H    1.000000
   142  H    1.000000
   143  H    1.000000
   144  H    1.000000
   145  H    1.000000
   146  H    1.000000
   147  H    1.000000
   148  H    1.000000
   149  H    1.000000
   150  H    1.000000
   151  H    1.000000
   152  H    1.000000
   153  H    1.000000
   154  H    1.000000
   155  H    1.000000
   156  H    1.000000
   157  H    1.000000
   158  H    1.000000
 Sum of Mulliken charges = 624.00000

 Dipole moment (field-independent basis, Debye):
    X=             -0.0003    Y=              0.0000    Z=             -0.0001  Tot=              0.0003
 Quadrupole moment (field-independent basis, Debye-Ang):
   XX=              0.0011   YY=             -0.0001   ZZ=              0.0000
   XY=              0.0001   XZ=              0.0008   YZ=              0.0000

 Normal termination of Gaussian 16 at Thu Oct 14 03:07:57 2021.
