 Gaussian 16, Revision A.03,
 Gaussian 16:  ES64L-G16RevA.03 25-Dec-2016

 --------------------------------------------------------
 #p PBE1PBE/Def2SVP td=(nstates=5) density=(transition=1)
 --------------------------------------------------------

 --------------------------------
 TDDFT excited states in gaussian
 --------------------------------
 Symbolic Z-matrix:
 Charge =  0 Multiplicity = 1

                         Standard orientation:
 ---------------------------------------------------------------------
 Center     Atomic      Atomic             Coordinates (Angstroms)
 Number     Number       Type             X           Y           Z
 ---------------------------------------------------------------------
      1         12           0       11.052965    0.071050   -0.050913
      2          6           0        8.053570    0.835412    1.491466
      3          6           0       10.287833   -3.370909    0.349480
      4          6           0       13.695073   -0.773398   -2.062962
      5          6           0       11.554207    3.392036   -0.856406
      6          7           0        9.413846   -1.078324    0.943345
      7          6           0        8.239074   -0.532458    1.416323
      8          6           0        7.136250   -1.599286    1.770297
      9          6           0        8.011499   -2.940200    1.777357
     10          6           0        9.376825   -2.487819    1.013210
     11          6           0        8.315942   -3.654988    3.148777
     12          6           0        5.994914   -1.673399    0.818054
     13          6           0        4.578798   -1.387962    1.279926
     14          1           0        3.460168   -2.108133    0.510006
     15          7           0       11.937343   -1.833156   -0.685714
     16          6           0       11.456503   -3.108873   -0.335396
     17          6           0       12.341256   -4.109869   -0.840826
     18          6           0       13.289328   -3.361699   -1.707499
     19          6           0       13.007453   -1.902629   -1.537676
     20          6           0       12.098722   -5.617112   -0.709976
     21          6           0       14.346377   -4.092736   -2.553496
     22          8           0       14.518097   -5.304969   -2.643651
     23          6           0       15.030156   -3.300531   -3.610928
     24          7           0       12.389623    1.181757   -1.489491
     25          6           0       13.474704    0.596332   -2.014389
     26          6           0       14.064263    1.591181   -3.013109
     27          6           0       13.461388    3.015813   -2.605213
     28          6           0       12.384710    2.531643   -1.534587
     29          6           0       15.624558    1.641857   -2.847939
     30          6           0       12.819234    3.946592   -3.714188
     31          6           0       13.459391    5.280026   -4.070234
     32          7           0       10.050211    1.836270    0.318122
     33          6           0       10.387775    3.144786   -0.041479
     34          6           0        9.363041    4.047579    0.385846
     35          6           0        8.389015    3.204272    1.004454
     36          6           0        8.926204    1.858974    0.956916
     37          6           0        9.294113    5.531677    0.208556
     38          6           0        7.171356    3.141716    1.702018
     39          8           0        6.432505    4.058548    2.000545
     40          6           0        6.856541    1.620028    1.975630
     41          6           0        6.405492    1.477788    3.368822
     42          8           0        5.233763    1.299991    3.681977
     43          8           0        7.481783    1.601304    4.234754
     44          6           0        7.091403    1.512388    5.659786
     45          1           0       10.182397   -4.452672    0.450774
     46          1           0       14.568529   -1.127901   -2.614924
     47          1           0       11.708642    4.430238   -1.157225
     48          1           0        6.757248   -1.407913    2.773606
     49          1           0        7.523132   -3.629469    1.087579
     50          1           0        7.653447   -3.212678    3.892729
     51          1           0        9.352410   -3.582763    3.478619
     52          1           0        8.124681   -4.717139    3.000571
     53          1           0        5.951396   -2.707566    0.473122
     54          1           0        6.151251   -0.975766   -0.004027
     55          1           0        4.382730   -0.330020    1.107976
     56          1           0        4.398832   -1.665850    2.318181
     57          1           0       11.188336   -6.008249   -0.256311
     58          1           0       13.004220   -5.946167   -0.200773
     59          1           0       12.290678   -5.985184   -1.717327
     60          1           0       15.952789   -2.771237   -3.376712
     61          1           0       14.344371   -2.635879   -4.136538
     62          1           0       15.369892   -4.025033   -4.351983
     63          1           0       13.817357    1.350079   -4.047288
     64          1           0       14.186040    3.574322   -2.013753
     65          1           0       16.048736    1.526121   -3.845315
     66          1           0       16.050436    0.897866   -2.173551
     67          1           0       15.981844    2.581106   -2.425106
     68          1           0       11.802916    4.112013   -3.357331
     69          1           0       12.866167    3.361530   -4.633713
     70          1           0       12.649177    5.878739   -4.487169
     71          1           0       14.191442    5.119222   -4.861959
     72          1           0       13.910196    5.894322   -3.291517
     73          1           0        8.360523    5.844142    0.677128
     74          1           0        9.348849    5.730987   -0.861240
     75          1           0       10.090041    6.095495    0.695419
     76          1           0        5.997617    1.419207    1.334412
     77          1           0        6.855323    2.503928    6.045925
     78          1           0        7.908391    0.991857    6.159417
     79          1           0        6.230597    0.860169    5.804406
     80         12           0      -10.917744   -0.094371   -0.614682
     81          6           0       -8.040804   -0.880852    1.212230
     82          6           0      -10.255352    3.225019    0.147474
     83          6           0      -13.803030    0.615225   -1.934859
     84          6           0      -11.475561   -3.565022   -1.047234
     85          7           0       -9.516227    1.032997    0.913601
     86          6           0       -8.375901    0.505822    1.370946
     87          6           0       -7.592992    1.602767    2.011583
     88          6           0       -8.548871    2.820726    2.032577
     89          6           0       -9.504352    2.375262    0.943346
     90          6           0       -9.253709    3.214087    3.331974
     91          6           0       -6.275598    1.911679    1.231899
     92          6           0       -4.930708    2.003772    2.022704
     93          1           0       -4.952354    2.484310    3.507297
     94          7           0      -11.845422    1.732147   -0.998090
     95          6           0      -11.283620    2.978348   -0.754118
     96          6           0      -12.184602    3.942496   -1.296549
     97          6           0      -13.328249    3.212128   -1.814409
     98          6           0      -13.047104    1.797615   -1.619485
     99          6           0      -11.997915    5.472259   -1.196198
    100          6           0      -14.663440    3.743990   -2.410153
    101          8           0      -15.553898    3.052725   -2.791797
    102          6           0      -14.771952    5.249071   -2.556238
    103          7           0      -12.384976   -1.324482   -1.378081
    104          6           0      -13.540143   -0.777215   -1.817932
    105          6           0      -14.567600   -1.814830   -2.348273
    106          6           0      -13.676701   -3.129626   -2.297970
    107          6           0      -12.419811   -2.681426   -1.561639
    108          6           0      -15.913095   -1.822187   -1.417563
    109          6           0      -13.477423   -3.807344   -3.690016
    110          6           0      -12.189646   -3.520780   -4.441321
    111          7           0       -9.971860   -1.927999   -0.094540
    112          6           0      -10.265881   -3.226222   -0.413484
    113          6           0       -9.184805   -4.104431    0.156907
    114          6           0       -8.302190   -3.204667    0.796147
    115          6           0       -8.826548   -1.876191    0.664963
    116          6           0       -9.151275   -5.607675    0.211034
    117          6           0       -7.067487   -3.097899    1.569563
    118          8           0       -6.323595   -4.009775    1.941959
    119          6           0       -6.796471   -1.602747    1.707869
    120          6           0       -6.532088   -1.370990    3.168026
    121          8           0       -7.385402   -1.307001    4.033920
    122          8           0       -5.219578   -1.450062    3.313273
    123          6           0       -4.687487   -1.676461    4.647871
    124          1           0      -10.133855    4.250290    0.501841
    125          1           0      -14.683959    0.838638   -2.539740
    126          1           0      -11.641052   -4.634596   -1.194548
    127          1           0       -7.316487    1.289682    3.017872
    128          1           0       -7.934555    3.687115    1.787105
    129          1           0       -9.005697    2.625109    4.215157
    130          1           0      -10.335413    3.173618    3.200975
    131          1           0       -8.974155    4.249998    3.522628
    132          1           0       -6.351192    2.779014    0.576399
    133          1           0       -6.257055    1.040134    0.577703
    134          1           0       -4.344722    2.715013    1.439222
    135          1           0       -4.446308    1.027990    1.997070
    136          1           0      -12.861740    5.984829   -0.772790
    137          1           0      -11.920972    5.944888   -2.175505
    138          1           0      -11.111980    5.783930   -0.641372
    139          1           0      -13.918525    5.686296   -3.074916
    140          1           0      -14.923500    5.672183   -1.563130
    141          1           0      -15.712508    5.515739   -3.038222
    142          1           0      -14.885442   -1.604446   -3.369309
    143          1           0      -14.137624   -3.935786   -1.727395
    144          1           0      -15.854596   -2.762233   -0.868771
    145          1           0      -16.836034   -1.924299   -1.988833
    146          1           0      -15.933334   -1.039779   -0.658087
    147          1           0      -14.246152   -3.349034   -4.312353
    148          1           0      -13.656666   -4.881925   -3.661186
    149          1           0      -12.048390   -2.446212   -4.319102
    150          1           0      -12.465651   -3.818130   -5.452734
    151          1           0      -11.241222   -3.938731   -4.104793
    152          1           0      -10.023004   -6.163333   -0.134693
    153          1           0       -8.995168   -5.924581    1.242297
    154          1           0       -8.242609   -5.888174   -0.320713
    155          1           0       -5.863610   -1.263649    1.257011
    156          1           0       -5.363298   -1.872751    5.479633
    157          1           0       -4.228664   -0.715910    4.884238
    158          1           0       -3.740501   -2.207238    4.549144
 ---------------------------------------------------------------------

 SCF Done:  E(RPBE1PBE) =  -4067.36119318     A.U. after   16 cycles

 Excitation energies and oscillator strengths:

 Excited State   1:      Singlet-A      1.5676 eV  790.92 nm  f=0.0000  <S**2>=0.000
     312 -> 313        0.70709
 This state for optimization and/or second-order correction.
 Total Energy, E(TD-HF/TD-DFT) =  -4067.30358502
 Copying the excited state density for this state as the 1-particle RhoCI density.

 Excited State   2:      Singlet-A      1.8583 eV  667.17 nm  f=0.3117  <S**2>=0.000
     309 -> 315       -0.16968
     311 -> 313        0.69038
     311 <- 313       -0.10646

 Excited State   3:      Singlet-A      1.8762 eV  660.82 nm  f=0.4316  <S**2>=0.000
     310 -> 316       -0.18164
     312 -> 314        0.68923
     312 <- 314       -0.10310

 Excited State   4:      Singlet-A      2.1150 eV  586.22 nm  f=0.0000  <S**2>=0.000
     310 -> 313        0.70708

 Excited State   5:      Singlet-A      2.1843 eV  567.63 nm  f=0.1619  <S**2>=0.000
     309 -> 313        0.65764
     311 -> 315        0.23304

 The electronic state is 1-A.
 Alpha  occ. eigenvalues --  -46.93912 -46.92041 -19.26603 -19.25904 -19.20228
 Alpha  occ. eigenvalues --  -19.19568 -19.19245 -19.19201 -19.18868 -19.18862
 Alpha  occ. eigenvalues --  -14.43006 -14.41598 -14.41256 -14.40835 -14.39686
 Alpha  occ. eigenvalues --  -14.39678 -14.38740 -14.38397 -10.36284 -10.35845
 Alpha  occ. eigenvalues --  -10.32284 -10.32248 -10.31675 -10.31605 -10.30730
 Alpha  occ. eigenvalues --  -10.29598 -10.29559 -10.29296 -10.28985 -10.28855
 Alpha  occ. eigenvalues --  -10.28818 -10.28684 -10.28550 -10.28539 -10.28259
 Alpha  occ. eigenvalues --  -10.27974 -10.27860 -10.27466 -10.27318 -10.27281
 Alpha  occ. eigenvalues --  -10.27233 -10.27063 -10.26810 -10.26694 -10.26642
 Alpha  occ. eigenvalues --  -10.26614 -10.26562 -10.26537 -10.26346 -10.26335
 Alpha  occ. eigenvalues --  -10.26265 -10.26201 -10.26144 -10.25865 -10.25833
 Alpha  occ. eigenvalues --  -10.25724 -10.25722 -10.25690 -10.25584 -10.25293
 Alpha  occ. eigenvalues --  -10.25187 -10.25168 -10.24791 -10.24685 -10.24658
 Alpha  occ. eigenvalues --  -10.24477 -10.24421 -10.24193 -10.24187 -10.24162
 Alpha  occ. eigenvalues --  -10.24155 -10.24087 -10.23883 -10.23849 -10.23757
 Alpha  occ. eigenvalues --  -10.23710 -10.23643 -10.23641 -10.23440 -10.23432
 Alpha  occ. eigenvalues --  -10.23150 -10.23016 -10.22727 -10.22669 -10.22524
 Alpha  occ. eigenvalues --  -10.22359  -3.15714  -3.14082  -1.88581  -1.88062
 Alpha  occ. eigenvalues --   -1.87937  -1.86930  -1.86491  -1.86264  -1.12825
 Alpha  occ. eigenvalues --   -1.10426  -1.06176  -1.04828  -1.04672  -1.03969
 Alpha  occ. eigenvalues --   -1.03165  -1.02459  -0.99727  -0.99445  -0.98819
 Alpha  occ. eigenvalues --   -0.98266  -0.97104  -0.97042  -0.96552  -0.96309
 Alpha  occ. eigenvalues --   -0.87416  -0.87106  -0.83825  -0.83685  -0.82900
 Alpha  occ. eigenvalues --   -0.82664  -0.82538  -0.82270  -0.82066  -0.81770
 Alpha  occ. eigenvalues --   -0.81290  -0.80300  -0.79995  -0.79719  -0.78771
 Alpha  occ. eigenvalues --   -0.78581  -0.78268  -0.77819  -0.77202  -0.76746
 Alpha  occ. eigenvalues --   -0.76420  -0.75572  -0.75324  -0.75173  -0.74979
 Alpha  occ. eigenvalues --   -0.74165  -0.72310  -0.72100  -0.71542  -0.71454
 Alpha  occ. eigenvalues --   -0.71230  -0.71160  -0.70575  -0.70448  -0.69913
 Alpha  occ. eigenvalues --   -0.69369  -0.68077  -0.66946  -0.66786  -0.66050
 Alpha  occ. eigenvalues --   -0.63826  -0.63754  -0.63610  -0.63161  -0.62469
 Alpha  occ. eigenvalues --   -0.62169  -0.61589  -0.60470  -0.60123  -0.59950
 Alpha  occ. eigenvalues --   -0.59815  -0.59549  -0.59373  -0.59320  -0.59023
 Alpha  occ. eigenvalues --   -0.58721  -0.57677  -0.57130  -0.54867  -0.54444
 Alpha  occ. eigenvalues --   -0.54272  -0.54074  -0.54043  -0.53736  -0.53607
 Alpha  occ. eigenvalues --   -0.52962  -0.52506  -0.52214  -0.51720  -0.51567
 Alpha  occ. eigenvalues --   -0.51237  -0.51195  -0.50564  -0.50436  -0.50085
 Alpha  occ. eigenvalues --   -0.49418  -0.49347  -0.49259  -0.49038  -0.48567
 Alpha  occ. eigenvalues --   -0.48350  -0.47999  -0.47884  -0.47661  -0.47445
 Alpha  occ. eigenvalues --   -0.47390  -0.47246  -0.47084  -0.47050  -0.46756
 Alpha  occ. eigenvalues --   -0.46396  -0.46191  -0.46162  -0.46004  -0.45774
 Alpha  occ. eigenvalues --   -0.45746  -0.45597  -0.45335  -0.45020  -0.44858
 Alpha  occ. eigenvalues --   -0.44500  -0.44373  -0.44230  -0.44158  -0.43835
 Alpha  occ. eigenvalues --   -0.43702  -0.43635  -0.43586  -0.43403  -0.43327
 Alpha  occ. eigenvalues --   -0.43115  -0.43019  -0.42928  -0.42741  -0.42655
 Alpha  occ. eigenvalues --   -0.42520  -0.42389  -0.41984  -0.41815  -0.41809
 Alpha  occ. eigenvalues --   -0.41516  -0.41417  -0.41395  -0.41009  -0.40860
 Alpha  occ. eigenvalues --   -0.40815  -0.40707  -0.40580  -0.40558  -0.40487
 Alpha  occ. eigenvalues --   -0.40415  -0.40228  -0.40197  -0.40117  -0.40041
 Alpha  occ. eigenvalues --   -0.39783  -0.39564  -0.39499  -0.39401  -0.39365
 Alpha  occ. eigenvalues --   -0.39086  -0.39013  -0.38735  -0.38548  -0.38331
 Alpha  occ. eigenvalues --   -0.38008  -0.37895  -0.37846  -0.37782  -0.37589
 Alpha  occ. eigenvalues --   -0.37548  -0.37372  -0.37340  -0.37116  -0.36872
 Alpha  occ. eigenvalues --   -0.36516  -0.36479  -0.36446  -0.36341  -0.36082
 Alpha  occ. eigenvalues --   -0.35944  -0.35879  -0.35420  -0.35367  -0.35006
 Alpha  occ. eigenvalues --   -0.34975  -0.34718  -0.34463  -0.34338  -0.34149
 Alpha  occ. eigenvalues --   -0.33425  -0.33165  -0.32929  -0.32511  -0.32265
 Alpha  occ. eigenvalues --   -0.32017  -0.31960  -0.31865  -0.31540  -0.31145
 Alpha  occ. eigenvalues --   -0.31014  -0.30990  -0.29837  -0.29434  -0.29303
 Alpha  occ. eigenvalues --   -0.28939  -0.28826  -0.28376  -0.27494  -0.26343
 Alpha  occ. eigenvalues --   -0.26170  -0.25868  -0.25859  -0.25634  -0.25281
 Alpha  occ. eigenvalues --   -0.25247  -0.25076  -0.24605  -0.21634  -0.20580
 Alpha  occ. eigenvalues --   -0.19820  -0.18569
 Alpha virt. eigenvalues --   -0.12200  -0.10845  -0.05917  -0.04872  -0.04196
 Alpha virt. eigenvalues --   -0.03799  -0.02289  -0.01484  -0.00451   0.00159
 Alpha virt. eigenvalues --    0.00296   0.00556   0.01360   0.01387   0.01663

 Mulliken charges:
               1
     1  Mg  12.000000
     2  C    6.000000
     3  C    6.000000
     4  C    6.000000
     5  C    6.000000
     6  N    7.000000
     7  C    6.000000
     8  C    6.000000
     9  C    6.000000
    10  C    6.000000
    11  C    6.000000
    12  C    6.000000
    13  C    6.000000
    14  H    1.000000
    15  N    7.000000
    16  C    6.000000
    17  C    6.000000
    18  C    6.000000
    19  C    6.000000
    20  C    6.000000
    21  C    6.000000
    22  O    8.000000
    23  C    6.000000
    24  N    7.000000
    25  C    6.000000
    26  C    6.000000
    27  C    6.000000
    28  C    6.000000
    29  C    6.000000
    30  C    6.000000
    31  C    6.000000
    32  N    7.000000
    33  C    6.000000
    34  C    6.000000
    35  C    6.000000
    36  C    6.000000
    37  C    6.000000
    38  C    6.000000
    39  O    8.000000
    40  C    6.000000
    41  C    6.000000
    42  O    8.000000
    43  O    8.000000
    44  C    6.000000
    45  H    1.000000
    46  H    1.000000
    47  H    1.000000
    48  H    1.000000
    49  H    1.000000
    50  H    1.000000
    51  H    1.000000
    52  H    1.000000
    53  H    1.000000
    54  H    1.000000
    55  H    1.000000
    56  H    1.000000
    57  H    1.000000
    58  H    1.000000
    59  H    1.000000
    60  H    1.000000
    61  H    1.000000
    62  H    1.000000
    63  H    1.000000
    64  H    1.000000
    65  H    1.000000
    66  H    1.000000
    67  H    1.000000
    68  H    1.000000
    69  H    1.000000
    70  H    1.000000
    71  H    1.000000
    72  H    1.000000
    73  H    1.000000
    74  H    1.000000
    75  H    1.000000
    76  H    1.000000
    77  H    1.000000
    78  H    1.000000
    79  H    1.000000
    80  Mg  12.000000
    81  C    6.000000
    82  C    6.000000
    83  C    6.000000
    84  C    6.000000
    85  N    7.000000
    86  C    6.000000
    87  C    6.000000
    88  C    6.000000
    89  C    6.000000
    90  C    6.000000
    91  C    6.000000
    92  C    6.000000
    93  H    1.000000
    94  N    7.000000
    95  C    6.000000
    96  C    6.000000
    97  C    6.000000
    98  C    6.000000
    99  C    6.000000
   100  C    6.000000
   101  O    8.000000
   102  C    6.000000
   103  N    7.000000
   104  C    6.000000
   105  C    6.000000
   106  C    6.000000
   107  C    6.000000
   108  C    6.000000
   109  C    6.000000
   110  C    6.000000
   111  N    7.000000
   112  C    6.000000
   113  C    6.000000
   114  C    6.000000
   115  C    6.000000
   116  C    6.000000
   117  C    6.000000
   118  O    8.000000
   119  C    6.000000
   120  C    6.000000
   121  O    8.000000
   122  O    8.000000
   123  C    6.000000
   124  H    1.000000
   125  H    1.000000
   126  H    1.000000
   127  H    1.000000
   128  H    1.000000
   129  H    1.000000
   130  H    1.000000
   131  H    1.000000
   132  H    1.000000
   133  H    1.000000
   134  H    1.000000
   135  H    1.000000
   136  H    1.000000
   137  H    1.000000
   138  H    1.000000
   139  H    1.000000
   140  H    1.000000
   141  H    1.000000
   142  H    1.000000
   143  H    1.000000
   144  H    1.000000
   145  H    1.000000
   146  H    1.000000
   147  H    1.000000
   148  H    1.000000
   149  H    1.000000
   150  H    1.000000
   151  H    1.000000
   152  H    1.000000
   153  H    1.000000
   154  H    1.000000
   155  H    1.000000
   156  H    1.000000
   157  H    1.000000
   158  H    1.000000
 Sum of Mulliken charges = 624.00000

 Dipole moment (field-independent basis, Debye):
    X=             -0.0000    Y=              0.0000    Z=              0.0000  Tot=              0.0000
 Quadrupole moment (field-independent basis, Debye-Ang):
   XX=             -0.0000   YY=             -0.0000   ZZ=              0.0000
   XY=             -0.0000   XZ=              0.0000   YZ=             -0.0000

 Normal termination of Gaussian 16 at Fri Oct 15 09:09:58 2021.
