 Gaussian 16, Revision A.03,
 Gaussian 16:  ES64L-G16RevA.03 25-Dec-2016

 --------------------------------------------------------
 #p PBE1PBE/Def2SVP td=(nstates=5) density=(transition=1)
 --------------------------------------------------------

 --------------------------------
 TDDFT excited states in gaussian
 --------------------------------
 Symbolic Z-matrix:
 Charge =  0 Multiplicity = 1

                         Standard orientation:
 ---------------------------------------------------------------------
 Center     Atomic      Atomic             Coordinates (Angstroms)
 Number     Number       Type             X           Y           Z
 ---------------------------------------------------------------------
      1         12           0      -13.839200   -0.158742    0.112380
      2          6           0      -10.532780    1.250350   -0.323994
      3          6           0      -14.567208    1.213046   -2.720566
      4          6           0      -16.851896   -1.288073    0.827094
      5          6           0      -13.058672   -0.899353    3.583967
      6          7           0      -12.589661    1.008825   -1.421643
      7          6           0      -11.296255    1.488251   -1.431682
      8          6           0      -11.043951    2.268081   -2.671472
      9          6           0      -12.466937    2.641334   -3.160774
     10          6           0      -13.287789    1.596695   -2.368357
     11          6           0      -12.909195    4.076530   -2.800337
     12          6           0      -10.359313    1.356709   -3.735239
     13          6           0       -9.152304    1.989581   -4.530354
     14          1           0       -8.110357    1.053628   -5.262723
     15          7           0      -15.538670   -0.067083   -0.923668
     16          6           0      -15.647930    0.435240   -2.124677
     17          6           0      -16.991172    0.171276   -2.604994
     18          6           0      -17.563535   -0.653478   -1.608065
     19          6           0      -16.645483   -0.668798   -0.501629
     20          6           0      -17.428802    0.611479   -4.013790
     21          6           0      -18.907307   -1.324653   -1.669783
     22          8           0      -19.297244   -1.975009   -0.746555
     23          6           0      -19.700531   -1.253361   -2.933743
     24          7           0      -14.879411   -0.735732    2.117315
     25          6           0      -16.080027   -1.294500    1.979719
     26          6           0      -16.487856   -2.045941    3.190962
     27          6           0      -15.296093   -1.722590    4.146760
     28          6           0      -14.291002   -1.051116    3.248630
     29          6           0      -17.924169   -1.783558    3.770970
     30          6           0      -14.765159   -3.028556    4.857013
     31          6           0      -15.082880   -3.272191    6.358723
     32          7           0      -12.261424    0.073569    1.378811
     33          6           0      -12.015337   -0.320139    2.713159
     34          6           0      -10.622779    0.015771    3.075100
     35          6           0      -10.060993    0.584135    1.939674
     36          6           0      -11.043736    0.654150    0.966836
     37          6           0      -10.014863   -0.107841    4.493283
     38          6           0       -8.776555    1.166388    1.433542
     39          8           0       -7.672448    1.297883    1.906639
     40          6           0       -9.083347    1.787363   -0.020077
     41          6           0       -8.062394    1.475708   -0.951708
     42          8           0       -8.121600    0.477122   -1.682709
     43          8           0       -6.959731    2.323817   -0.980800
     44          6           0       -5.951102    2.162680   -2.072664
     45          1           0      -14.931002    1.583152   -3.680715
     46          1           0      -17.831081   -1.720502    1.042650
     47          1           0      -12.805483   -1.124295    4.621152
     48          1           0      -10.542593    3.204476   -2.425321
     49          1           0      -12.648218    2.565281   -4.232723
     50          1           0      -13.123418    4.648332   -3.703739
     51          1           0      -12.084146    4.533806   -2.254965
     52          1           0      -13.772824    4.133542   -2.137173
     53          1           0      -11.151576    1.119894   -4.445644
     54          1           0      -10.080950    0.444476   -3.207948
     55          1           0       -8.625532    2.657824   -3.849672
     56          1           0       -9.665678    2.591073   -5.281468
     57          1           0      -17.614312   -0.282445   -4.610674
     58          1           0      -16.753272    1.290090   -4.533473
     59          1           0      -18.421517    1.059003   -3.974795
     60          1           0      -19.191344   -1.726790   -3.772795
     61          1           0      -19.871596   -0.261196   -3.351263
     62          1           0      -20.623328   -1.818157   -2.798917
     63          1           0      -16.444962   -3.107596    2.947719
     64          1           0      -15.599021   -0.944886    4.848174
     65          1           0      -18.424806   -1.129805    3.057534
     66          1           0      -17.991980   -1.430101    4.800444
     67          1           0      -18.450728   -2.736621    3.823808
     68          1           0      -13.676081   -3.039173    4.805639
     69          1           0      -14.992371   -3.831888    4.156215
     70          1           0      -15.416739   -4.299430    6.504159
     71          1           0      -15.841541   -2.562439    6.688992
     72          1           0      -14.186902   -3.142887    6.967037
     73          1           0      -10.485644   -0.960780    4.981313
     74          1           0      -10.310743    0.759274    5.084221
     75          1           0       -8.931685   -0.228838    4.466397
     76          1           0       -9.150744    2.869523    0.087740
     77          1           0       -6.396652    2.354258   -3.049844
     78          1           0       -5.360255    1.256996   -1.941143
     79          1           0       -5.296823    3.032605   -2.017082
     80         12           0       13.385345    0.536279   -0.089134
     81          6           0       12.323686   -2.727030   -0.700073
     82          6           0       10.100429    1.578227   -0.179986
     83          6           0       14.594769    3.509475    0.593287
     84          6           0       16.574492   -0.832521    1.023639
     85          7           0       11.392558   -0.544403   -0.486063
     86          6           0       11.190898   -1.881916   -0.681038
     87          6           0        9.753123   -2.172668   -0.928031
     88          6           0        9.034724   -0.780828   -0.714891
     89          6           0       10.236963    0.203672   -0.437041
     90          6           0        8.038566   -0.387422   -1.834599
     91          6           0        9.184643   -3.262594    0.012885
     92          6           0        8.482607   -4.357461   -0.788532
     93          1           0        7.021154   -4.718942   -0.385428
     94          7           0       12.465645    2.316697    0.140431
     95          6           0       11.102386    2.585282    0.026799
     96          6           0       10.978315    4.029789    0.173218
     97          6           0       12.303977    4.638394    0.369037
     98          6           0       13.241686    3.473055    0.306131
     99          6           0        9.700182    4.696761    0.288841
    100          6           0       12.475440    6.059808    0.713173
    101          8           0       11.564644    6.857019    0.795847
    102          6           0       13.778004    6.669262    1.098863
    103          7           0       15.232031    1.181409    0.709313
    104          6           0       15.563014    2.509765    0.619988
    105          6           0       16.975891    2.729442    1.118127
    106          6           0       17.368182    1.418919    1.690716
    107          6           0       16.335896    0.533249    1.195184
    108          6           0       17.971272    3.360062    0.060132
    109          6           0       17.281334    1.377663    3.255056
    110          6           0       18.206836    0.481312    3.939015
    111          7           0       14.330284   -1.382487    0.110833
    112          6           0       15.616770   -1.778099    0.499867
    113          6           0       15.809928   -3.148935    0.144380
    114          6           0       14.561311   -3.583508   -0.284373
    115          6           0       13.656533   -2.463019   -0.252190
    116          6           0       17.095420   -3.873372    0.304054
    117          6           0       13.830253   -4.711993   -0.704697
    118          8           0       14.186997   -5.858578   -0.859964
    119          6           0       12.406157   -4.214221   -1.038132
    120          6           0       12.092886   -4.555688   -2.434814
    121          8           0       12.380050   -3.869204   -3.429941
    122          8           0       11.573527   -5.828676   -2.491731
    123          6           0       11.088012   -6.367200   -3.751904
    124          1           0        9.047315    1.845470   -0.284314
    125          1           0       15.117663    4.421840    0.890836
    126          1           0       17.554109   -1.194444    1.342797
    127          1           0        9.688223   -2.292518   -2.009844
    128          1           0        8.396602   -0.750851    0.167752
    129          1           0        7.843478   -1.345797   -2.317324
    130          1           0        8.349674    0.412017   -2.507147
    131          1           0        7.105380   -0.038264   -1.393285
    132          1           0        8.392254   -2.910387    0.673061
    133          1           0       10.031869   -3.641642    0.584113
    134          1           0        9.081930   -5.212328   -0.475647
    135          1           0        8.623950   -4.126192   -1.843265
    136          1           0        8.917762    3.946352    0.173681
    137          1           0        9.468587    5.424781   -0.489202
    138          1           0        9.607658    5.128091    1.286203
    139          1           0       14.398575    6.268143    0.297533
    140          1           0       14.076096    6.268978    2.068250
    141          1           0       13.731074    7.757967    1.065886
    142          1           0       16.847378    3.493067    1.884356
    143          1           0       18.290678    0.961468    1.333022
    144          1           0       17.425553    3.709690   -0.816452
    145          1           0       18.842663    2.747489   -0.173859
    146          1           0       18.382417    4.318154    0.376915
    147          1           0       16.258861    1.141282    3.549886
    148          1           0       17.472704    2.364494    3.676239
    149          1           0       19.143518    1.013025    4.109865
    150          1           0       18.361415   -0.449850    3.392906
    151          1           0       17.885686    0.342026    4.971780
    152          1           0       17.941871   -3.233401    0.055307
    153          1           0       17.150094   -4.807039   -0.255977
    154          1           0       17.170645   -4.022772    1.381185
    155          1           0       11.628871   -4.772443   -0.516124
    156          1           0       11.807694   -6.649329   -4.520453
    157          1           0       10.348636   -5.688217   -4.176162
    158          1           0       10.635707   -7.318013   -3.472443
 ---------------------------------------------------------------------

 SCF Done:  E(RPBE1PBE) =  -4067.31908378     A.U. after   16 cycles

 Excitation energies and oscillator strengths:

 Excited State   1:      Singlet-A      1.8373 eV  674.83 nm  f=0.3583  <S**2>=0.000
     309 -> 315       -0.18246
     311 -> 313        0.68963
     311 <- 313       -0.10418
 This state for optimization and/or second-order correction.
 Total Energy, E(TD-HF/TD-DFT) =  -4067.25156579
 Copying the excited state density for this state as the 1-particle RhoCI density.

 Excited State   2:      Singlet-A      1.8807 eV  659.23 nm  f=0.3659  <S**2>=0.000
     310 -> 316        0.15928
     312 -> 314        0.69558
     312 <- 314       -0.10998

 Excited State   3:      Singlet-A      1.9344 eV  640.95 nm  f=0.0000  <S**2>=0.000
     312 -> 313        0.70710

 Excited State   4:      Singlet-A      1.9617 eV  632.03 nm  f=0.0000  <S**2>=0.000
     311 -> 314        0.70710

 Excited State   5:      Singlet-A      2.1966 eV  564.45 nm  f=0.0989  <S**2>=0.000
     309 -> 313        0.64585
     311 -> 315        0.27289

 The electronic state is 1-A.
 Alpha  occ. eigenvalues --  -46.92859 -46.92248 -19.25443 -19.24702 -19.20104
 Alpha  occ. eigenvalues --  -19.19506 -19.19253 -19.18830 -19.18557 -19.17521
 Alpha  occ. eigenvalues --  -14.41756 -14.41380 -14.41213 -14.39848 -14.39762
 Alpha  occ. eigenvalues --  -14.39709 -14.39256 -14.38782 -10.36015 -10.35554
 Alpha  occ. eigenvalues --  -10.33363 -10.32044 -10.31281 -10.30736 -10.29248
 Alpha  occ. eigenvalues --  -10.29244 -10.29111 -10.28934 -10.28811 -10.28646
 Alpha  occ. eigenvalues --  -10.28638 -10.28532 -10.28531 -10.28178 -10.28030
 Alpha  occ. eigenvalues --  -10.27964 -10.27950 -10.27625 -10.27543 -10.27489
 Alpha  occ. eigenvalues --  -10.26761 -10.26680 -10.26668 -10.26504 -10.26390
 Alpha  occ. eigenvalues --  -10.26326 -10.26108 -10.26067 -10.26067 -10.26017
 Alpha  occ. eigenvalues --  -10.25967 -10.25963 -10.25843 -10.25779 -10.25672
 Alpha  occ. eigenvalues --  -10.25610 -10.25436 -10.25374 -10.25358 -10.25073
 Alpha  occ. eigenvalues --  -10.24979 -10.24857 -10.24704 -10.24691 -10.24688
 Alpha  occ. eigenvalues --  -10.24628 -10.24546 -10.24457 -10.24232 -10.24039
 Alpha  occ. eigenvalues --  -10.23954 -10.23849 -10.23737 -10.23732 -10.23680
 Alpha  occ. eigenvalues --  -10.23630 -10.23493 -10.23439 -10.23283 -10.23195
 Alpha  occ. eigenvalues --  -10.23165 -10.23034 -10.22926 -10.22442 -10.22410
 Alpha  occ. eigenvalues --  -10.22176  -3.14963  -3.14320  -1.87788  -1.87342
 Alpha  occ. eigenvalues --   -1.87187  -1.87164  -1.86703  -1.86533  -1.10129
 Alpha  occ. eigenvalues --   -1.08996  -1.06725  -1.05846  -1.04777  -1.04503
 Alpha  occ. eigenvalues --   -1.01422  -1.00926  -1.00533  -0.99640  -0.99524
 Alpha  occ. eigenvalues --   -0.99504  -0.98397  -0.97555  -0.96096  -0.95953
 Alpha  occ. eigenvalues --   -0.86949  -0.85735  -0.85046  -0.83765  -0.83569
 Alpha  occ. eigenvalues --   -0.83311  -0.83270  -0.82320  -0.81996  -0.81980
 Alpha  occ. eigenvalues --   -0.81805  -0.81535  -0.80481  -0.79757  -0.79457
 Alpha  occ. eigenvalues --   -0.78797  -0.78687  -0.77660  -0.77417  -0.76727
 Alpha  occ. eigenvalues --   -0.76353  -0.76078  -0.75666  -0.75348  -0.75085
 Alpha  occ. eigenvalues --   -0.74745  -0.72961  -0.72950  -0.72213  -0.71489
 Alpha  occ. eigenvalues --   -0.71334  -0.71098  -0.70551  -0.70540  -0.69765
 Alpha  occ. eigenvalues --   -0.69669  -0.67799  -0.67394  -0.66418  -0.65561
 Alpha  occ. eigenvalues --   -0.63731  -0.63542  -0.63410  -0.63242  -0.62428
 Alpha  occ. eigenvalues --   -0.62268  -0.61782  -0.61716  -0.60868  -0.60509
 Alpha  occ. eigenvalues --   -0.60334  -0.60098  -0.59737  -0.59631  -0.59203
 Alpha  occ. eigenvalues --   -0.58852  -0.56544  -0.55917  -0.55671  -0.55230
 Alpha  occ. eigenvalues --   -0.54714  -0.54006  -0.53931  -0.53688  -0.53566
 Alpha  occ. eigenvalues --   -0.52594  -0.52470  -0.52230  -0.51826  -0.51780
 Alpha  occ. eigenvalues --   -0.51081  -0.50918  -0.50361  -0.50319  -0.50150
 Alpha  occ. eigenvalues --   -0.49976  -0.49667  -0.48943  -0.48746  -0.48594
 Alpha  occ. eigenvalues --   -0.48468  -0.47970  -0.47832  -0.47399  -0.47396
 Alpha  occ. eigenvalues --   -0.47140  -0.47030  -0.47025  -0.46690  -0.46688
 Alpha  occ. eigenvalues --   -0.46418  -0.46384  -0.46264  -0.46204  -0.45999
 Alpha  occ. eigenvalues --   -0.45902  -0.45746  -0.44983  -0.44950  -0.44935
 Alpha  occ. eigenvalues --   -0.44661  -0.44575  -0.44476  -0.44319  -0.44121
 Alpha  occ. eigenvalues --   -0.44060  -0.44033  -0.43878  -0.43695  -0.43567
 Alpha  occ. eigenvalues --   -0.43414  -0.43410  -0.43161  -0.43034  -0.43027
 Alpha  occ. eigenvalues --   -0.42523  -0.42397  -0.42260  -0.42236  -0.42139
 Alpha  occ. eigenvalues --   -0.41765  -0.41649  -0.41422  -0.41198  -0.41163
 Alpha  occ. eigenvalues --   -0.40975  -0.40957  -0.40812  -0.40626  -0.40427
 Alpha  occ. eigenvalues --   -0.40406  -0.40261  -0.40011  -0.39702  -0.39682
 Alpha  occ. eigenvalues --   -0.39650  -0.39418  -0.39255  -0.39170  -0.39101
 Alpha  occ. eigenvalues --   -0.38833  -0.38808  -0.38449  -0.38292  -0.38206
 Alpha  occ. eigenvalues --   -0.38145  -0.38016  -0.37974  -0.37819  -0.37743
 Alpha  occ. eigenvalues --   -0.37691  -0.37342  -0.37327  -0.37182  -0.36888
 Alpha  occ. eigenvalues --   -0.36760  -0.36543  -0.36289  -0.36257  -0.36080
 Alpha  occ. eigenvalues --   -0.35981  -0.35940  -0.35508  -0.35466  -0.35328
 Alpha  occ. eigenvalues --   -0.35136  -0.35087  -0.34871  -0.34800  -0.34016
 Alpha  occ. eigenvalues --   -0.33430  -0.33320  -0.32683  -0.32601  -0.32238
 Alpha  occ. eigenvalues --   -0.32091  -0.31939  -0.31574  -0.31317  -0.31213
 Alpha  occ. eigenvalues --   -0.31167  -0.30732  -0.29455  -0.28851  -0.28824
 Alpha  occ. eigenvalues --   -0.28379  -0.28153  -0.27746  -0.27272  -0.26957
 Alpha  occ. eigenvalues --   -0.26602  -0.26164  -0.26052  -0.25624  -0.25529
 Alpha  occ. eigenvalues --   -0.25415  -0.24982  -0.24259  -0.21189  -0.20557
 Alpha  occ. eigenvalues --   -0.19150  -0.19150
 Alpha virt. eigenvalues --   -0.11542  -0.11457  -0.05897  -0.04055  -0.03874
 Alpha virt. eigenvalues --   -0.03352  -0.01977  -0.01832  -0.00507  -0.00098
 Alpha virt. eigenvalues --   -0.00092   0.00017   0.00826   0.00998   0.01307

 Mulliken charges:
               1
     1  Mg  11.999993
     2  C    6.000356
     3  C    5.999889
     4  C    6.000016
     5  C    6.000243
     6  N    7.000352
     7  C    5.999330
     8  C    6.000069
     9  C    5.999870
    10  C    6.000664
    11  C    5.999922
    12  C    6.000117
    13  C    6.000024
    14  H    0.999948
    15  N    6.999845
    16  C    6.000896
    17  C    6.000579
    18  C    6.000237
    19  C    6.000667
    20  C    5.999959
    21  C    6.000381
    22  O    8.000720
    23  C    5.999834
    24  N    7.000215
    25  C    6.000704
    26  C    5.999714
    27  C    6.000187
    28  C    5.999407
    29  C    5.999960
    30  C    5.999981
    31  C    5.999976
    32  N    7.000016
    33  C    5.998974
    34  C    5.999289
    35  C    5.999876
    36  C    5.999161
    37  C    5.999946
    38  C    5.999607
    39  O    7.999040
    40  C    5.999767
    41  C    5.999946
    42  O    7.999922
    43  O    7.999850
    44  C    6.000233
    45  H    1.000230
    46  H    1.000292
    47  H    0.999866
    48  H    0.999835
    49  H    1.000012
    50  H    1.000022
    51  H    1.000168
    52  H    0.999972
    53  H    0.999781
    54  H    1.000191
    55  H    0.999854
    56  H    0.999851
    57  H    1.000523
    58  H    1.000407
    59  H    1.000452
    60  H    1.000244
    61  H    1.000145
    62  H    1.000472
    63  H    1.000140
    64  H    0.999964
    65  H    0.999829
    66  H    1.000271
    67  H    1.000179
    68  H    1.000231
    69  H    0.999941
    70  H    1.000047
    71  H    0.999901
    72  H    1.000092
    73  H    0.999717
    74  H    0.999394
    75  H    0.999535
    76  H    0.999611
    77  H    0.999905
    78  H    0.999927
    79  H    0.999315
    80  Mg  12.001393
    81  C    6.012973
    82  C    5.986573
    83  C    5.982809
    84  C    6.015153
    85  N    7.004410
    86  C    5.970381
    87  C    6.012480
    88  C    5.992507
    89  C    6.026538
    90  C    5.997320
    91  C    6.000950
    92  C    6.001186
    93  H    0.992621
    94  N    6.991280
    95  C    6.040887
    96  C    6.021679
    97  C    6.011034
    98  C    6.036285
    99  C    5.990684
   100  C    6.006891
   101  O    8.017457
   102  C    5.999586
   103  N    7.005995
   104  C    6.031871
   105  C    5.992763
   106  C    6.006753
   107  C    5.965139
   108  C    5.999302
   109  C    6.006283
   110  C    6.000996
   111  N    7.002151
   112  C    5.961433
   113  C    5.975287
   114  C    5.996624
   115  C    5.970257
   116  C    6.000357
   117  C    5.981962
   118  O    7.969301
   119  C    6.002825
   120  C    5.995258
   121  O    7.991693
   122  O    8.000272
   123  C    6.003112
   124  H    1.009586
   125  H    1.010536
   126  H    0.991158
   127  H    0.996800
   128  H    1.000598
   129  H    1.011001
   130  H    0.997492
   131  H    0.999754
   132  H    0.992984
   133  H    1.006614
   134  H    1.004029
   135  H    0.999540
   136  H    1.018326
   137  H    1.020764
   138  H    1.018910
   139  H    1.005659
   140  H    1.009821
   141  H    1.011395
   142  H    0.999083
   143  H    1.002423
   144  H    0.997594
   145  H    1.011598
   146  H    1.001574
   147  H    0.995113
   148  H    0.986659
   149  H    0.995043
   150  H    1.005623
   151  H    0.996577
   152  H    0.982604
   153  H    0.987496
   154  H    0.982683
   155  H    0.990787
   156  H    0.997191
   157  H    0.994021
   158  H    0.996252
 Sum of Mulliken charges = 624.00000

 Dipole moment (field-independent basis, Debye):
    X=             -4.2454    Y=              9.2106    Z=              0.0816  Tot=             10.1422
 Quadrupole moment (field-independent basis, Debye-Ang):
   XX=            -98.4297   YY=              6.9600   ZZ=             -2.4445
   XY=            121.5842   XZ=              1.6961   YZ=             -0.7685

 Normal termination of Gaussian 16 at Thu Oct 14 19:19:51 2021.
