 Gaussian 16, Revision A.03,
 Gaussian 16:  ES64L-G16RevA.03 25-Dec-2016

 --------------------------------------------------------
 #p PBE1PBE/Def2SVP td=(nstates=5) density=(transition=1)
 --------------------------------------------------------

 --------------------------------
 TDDFT excited states in gaussian
 --------------------------------
 Symbolic Z-matrix:
 Charge =  0 Multiplicity = 1

                         Standard orientation:
 ---------------------------------------------------------------------
 Center     Atomic      Atomic             Coordinates (Angstroms)
 Number     Number       Type             X           Y           Z
 ---------------------------------------------------------------------
      1         12           0      -27.129408   -0.398382    0.106615
      2          6           0      -23.723957   -0.114090   -0.774557
      3          6           0      -26.160072   -1.272502    3.341424
      4          6           0      -30.296197    0.341136    1.125901
      5          6           0      -27.864645    1.013830   -3.101958
      6          7           0      -25.198053   -0.683886    1.106051
      7          6           0      -23.972208   -0.490643    0.574748
      8          6           0      -22.858340   -0.646060    1.660716
      9          6           0      -23.687589   -1.375321    2.815373
     10          6           0      -25.174881   -1.135934    2.398540
     11          6           0      -23.534251   -2.893058    3.063718
     12          6           0      -22.321337    0.783545    2.048126
     13          6           0      -20.798967    0.826102    2.356759
     14          1           0      -20.374622    1.740897    3.576896
     15          7           0      -28.186254   -0.650782    1.977538
     16          6           0      -27.580041   -1.065969    3.133450
     17          6           0      -28.596619   -1.163004    4.110873
     18          6           0      -29.811594   -0.648006    3.568893
     19          6           0      -29.502524   -0.328263    2.134956
     20          6           0      -28.391788   -1.642642    5.528421
     21          6           0      -31.065437   -0.342564    4.315096
     22          8           0      -31.138932   -0.457272    5.528021
     23          6           0      -32.271920    0.172262    3.721649
     24          7           0      -28.813202    0.666146   -0.872903
     25          6           0      -30.065870    0.665516   -0.241672
     26          6           0      -31.129879    1.136066   -1.183352
     27          6           0      -30.371262    1.424291   -2.531449
     28          6           0      -28.946186    1.028058   -2.185930
     29          6           0      -32.217206    0.058859   -1.286347
     30          6           0      -30.675134    2.845442   -3.138931
     31          6           0      -31.223036    2.883094   -4.533341
     32          7           0      -26.045497    0.297713   -1.664080
     33          6           0      -26.507914    0.775958   -2.865493
     34          6           0      -25.394503    0.910646   -3.830329
     35          6           0      -24.292825    0.622304   -2.981787
     36          6           0      -24.742730    0.186421   -1.749590
     37          6           0      -25.409346    1.428988   -5.259833
     38          6           0      -22.856102    0.679955   -2.930073
     39          8           0      -22.042958    1.056285   -3.788579
     40          6           0      -22.389985    0.203632   -1.554567
     41          6           0      -21.446733   -0.924188   -1.670344
     42          8           0      -20.350626   -0.879537   -1.242395
     43          8           0      -22.020569   -2.072643   -2.133749
     44          6           0      -21.098431   -3.218438   -1.977783
     45          1           0      -25.895377   -1.623375    4.341524
     46          1           0      -31.315514    0.464575    1.495124
     47          1           0      -27.887913    1.469761   -4.094518
     48          1           0      -22.062081   -1.261638    1.241862
     49          1           0      -23.751046   -0.830731    3.757301
     50          1           0      -23.214412   -3.396516    2.150683
     51          1           0      -24.408220   -3.410451    3.459554
     52          1           0      -22.721225   -2.991186    3.782275
     53          1           0      -22.892666    1.199764    2.878339
     54          1           0      -22.534295    1.399553    1.174411
     55          1           0      -20.366786    1.204226    1.430125
     56          1           0      -20.546615   -0.230038    2.454101
     57          1           0      -29.277320   -2.009597    6.047499
     58          1           0      -27.991302   -0.765216    6.035477
     59          1           0      -27.541453   -2.302030    5.702426
     60          1           0      -32.609479   -0.573092    3.000371
     61          1           0      -32.103924    1.151711    3.272893
     62          1           0      -33.017362    0.294073    4.507566
     63          1           0      -31.503877    2.114081   -0.881459
     64          1           0      -30.463500    0.688310   -3.330454
     65          1           0      -32.157638   -0.690476   -0.496639
     66          1           0      -32.147150   -0.497364   -2.221124
     67          1           0      -33.184733    0.495268   -1.040059
     68          1           0      -29.721632    3.371195   -3.088618
     69          1           0      -31.470099    3.385033   -2.625470
     70          1           0      -30.566601    3.527639   -5.117320
     71          1           0      -32.212866    3.338551   -4.568586
     72          1           0      -31.390761    1.892490   -4.956147
     73          1           0      -25.384591    2.517585   -5.313272
     74          1           0      -26.230183    1.026873   -5.854993
     75          1           0      -24.428575    1.101985   -5.604948
     76          1           0      -21.776666    0.974114   -1.089115
     77          1           0      -21.605027   -4.104566   -2.361082
     78          1           0      -20.824015   -3.352775   -0.931572
     79          1           0      -20.213576   -3.172440   -2.611681
     80         12           0       26.241809    0.754854    0.495688
     81          6           0       26.608120   -2.669945   -0.305257
     82          6           0       23.810236    0.957091   -1.907566
     83          6           0       26.361767    4.051617    0.786877
     84          6           0       29.059896    0.474145    2.552638
     85          7           0       25.430498   -0.665804   -1.057262
     86          6           0       25.670942   -2.041895   -1.093365
     87          6           0       24.621088   -2.737079   -1.994901
     88          6           0       23.743428   -1.540271   -2.514324
     89          6           0       24.308392   -0.300736   -1.766758
     90          6           0       23.524400   -1.441044   -4.013886
     91          6           0       23.789372   -3.853329   -1.344145
     92          6           0       23.844121   -5.205853   -2.106226
     93          1           0       22.504601   -5.774714   -2.518606
     94          7           0       25.144319    2.274980   -0.392543
     95          6           0       24.209702    2.193191   -1.382605
     96          6           0       23.626456    3.503728   -1.544157
     97          6           0       24.479079    4.467415   -0.853515
     98          6           0       25.382021    3.574968   -0.142975
     99          6           0       22.431358    3.799061   -2.590603
    100          6           0       24.656068    5.915006   -1.021981
    101          8           0       25.382338    6.637939   -0.401374
    102          6           0       23.825950    6.563385   -2.125851
    103          7           0       27.692649    2.088281    1.383704
    104          6           0       27.460989    3.415221    1.411317
    105          6           0       28.400628    4.108298    2.400782
    106          6           0       28.983939    2.930213    3.197396
    107          6           0       28.539793    1.739990    2.376744
    108          6           0       29.530042    4.946541    1.643549
    109          6           0       28.283987    2.899186    4.650198
    110          6           0       26.803985    2.428877    4.675303
    111          7           0       27.553151   -0.764064    1.168962
    112          6           0       28.612895   -0.717698    1.992367
    113          6           0       29.148007   -2.047480    2.110116
    114          6           0       28.372692   -2.834377    1.279268
    115          6           0       27.432164   -2.010542    0.654854
    116          6           0       30.327931   -2.535736    2.928754
    117          6           0       28.281109   -4.215199    0.797352
    118          8           0       28.894868   -5.240818    0.888841
    119          6           0       27.084690   -4.187772   -0.190183
    120          6           0       27.630453   -4.653969   -1.489094
    121          8           0       28.585459   -4.122215   -1.997183
    122          8           0       26.996191   -5.782908   -1.982178
    123          6           0       27.675057   -6.483960   -3.122973
    124          1           0       22.904639    0.963042   -2.517942
    125          1           0       26.368498    5.120705    1.011020
    126          1           0       29.797827    0.250482    3.325908
    127          1           0       25.125920   -3.128831   -2.878195
    128          1           0       22.717913   -1.711762   -2.186619
    129          1           0       24.243694   -2.051143   -4.558229
    130          1           0       23.551965   -0.420041   -4.395369
    131          1           0       22.554987   -1.901730   -4.202235
    132          1           0       22.714840   -3.699570   -1.244805
    133          1           0       24.116723   -4.030560   -0.319930
    134          1           0       24.461653   -5.935064   -1.581917
    135          1           0       24.353200   -5.026763   -3.052400
    136          1           0       21.669179    4.378185   -2.069378
    137          1           0       21.901347    2.928730   -2.975681
    138          1           0       22.669616    4.294706   -3.531674
    139          1           0       22.799821    6.385469   -1.803278
    140          1           0       24.082155    6.006903   -3.026844
    141          1           0       23.949231    7.643182   -2.214746
    142          1           0       27.883783    4.742560    3.121763
    143          1           0       30.062858    2.821815    3.310434
    144          1           0       29.804400    5.771278    2.301828
    145          1           0       29.286441    5.402625    0.683397
    146          1           0       30.363743    4.249324    1.561745
    147          1           0       28.345832    3.855582    5.169042
    148          1           0       28.734183    2.110591    5.253300
    149          1           0       26.283488    2.570879    5.621822
    150          1           0       26.797761    1.359454    4.463991
    151          1           0       26.281782    2.948051    3.870984
    152          1           0       30.206617   -2.420139    4.005557
    153          1           0       31.146748   -1.895484    2.601592
    154          1           0       30.625272   -3.552906    2.673760
    155          1           0       26.412619   -4.944471    0.214177
    156          1           0       26.800351   -6.665013   -3.747638
    157          1           0       28.123229   -7.434542   -2.834369
    158          1           0       28.460439   -5.982254   -3.687724
 ---------------------------------------------------------------------

 SCF Done:  E(RPBE1PBE) =  -4067.36082133     A.U. after   16 cycles

 Excitation energies and oscillator strengths:

 Excited State   1:      Singlet-A      1.8469 eV  671.32 nm  f=0.3905  <S**2>=0.000
     309 -> 315       -0.16871
     311 -> 313        0.69413
     311 <- 313       -0.11313
 This state for optimization and/or second-order correction.
 Total Energy, E(TD-HF/TD-DFT) =  -4067.29295033
 Copying the excited state density for this state as the 1-particle RhoCI density.

 Excited State   2:      Singlet-A      1.8679 eV  663.75 nm  f=0.3884  <S**2>=0.000
     310 -> 316       -0.16806
     312 -> 314        0.69459
     312 <- 314       -0.11167

 Excited State   3:      Singlet-A      1.9409 eV  638.79 nm  f=0.0000  <S**2>=0.000
     312 -> 313        0.70711

 Excited State   4:      Singlet-A      2.0253 eV  612.16 nm  f=0.0000  <S**2>=0.000
     311 -> 314        0.70711

 Excited State   5:      Singlet-A      2.2122 eV  560.47 nm  f=0.1076  <S**2>=0.000
     309 -> 313        0.65181
     311 -> 315        0.25478

 The electronic state is 1-A.
 Alpha  occ. eigenvalues --  -46.94215 -46.92924 -19.25760 -19.25730 -19.20130
 Alpha  occ. eigenvalues --  -19.19772 -19.19451 -19.19004 -19.18626 -19.17647
 Alpha  occ. eigenvalues --  -14.42440 -14.42318 -14.41684 -14.41376 -14.39609
 Alpha  occ. eigenvalues --  -14.39428 -14.38901 -14.38859 -10.35769 -10.35729
 Alpha  occ. eigenvalues --  -10.32265 -10.31849 -10.31488 -10.30711 -10.29948
 Alpha  occ. eigenvalues --  -10.29693 -10.29673 -10.29223 -10.29048 -10.29013
 Alpha  occ. eigenvalues --  -10.28919 -10.28820 -10.28530 -10.28501 -10.28454
 Alpha  occ. eigenvalues --  -10.27958 -10.27816 -10.27700 -10.27696 -10.27413
 Alpha  occ. eigenvalues --  -10.26992 -10.26886 -10.26870 -10.26864 -10.26794
 Alpha  occ. eigenvalues --  -10.26641 -10.26521 -10.26310 -10.26308 -10.26288
 Alpha  occ. eigenvalues --  -10.26122 -10.26041 -10.25840 -10.25839 -10.25834
 Alpha  occ. eigenvalues --  -10.25815 -10.25732 -10.25586 -10.25541 -10.25375
 Alpha  occ. eigenvalues --  -10.25333 -10.25323 -10.25003 -10.24876 -10.24748
 Alpha  occ. eigenvalues --  -10.24705 -10.24598 -10.24536 -10.24432 -10.24399
 Alpha  occ. eigenvalues --  -10.24208 -10.24195 -10.24101 -10.24053 -10.23932
 Alpha  occ. eigenvalues --  -10.23930 -10.23558 -10.23482 -10.23427 -10.23175
 Alpha  occ. eigenvalues --  -10.23064 -10.23028 -10.22843 -10.22698 -10.22666
 Alpha  occ. eigenvalues --  -10.22354  -3.15954  -3.14911  -1.88806  -1.88307
 Alpha  occ. eigenvalues --   -1.88169  -1.87734  -1.87299  -1.87126  -1.12740
 Alpha  occ. eigenvalues --   -1.10390  -1.06392  -1.05835  -1.04386  -1.03885
 Alpha  occ. eigenvalues --   -1.03612  -1.02412  -0.99809  -0.99753  -0.98958
 Alpha  occ. eigenvalues --   -0.98528  -0.98419  -0.98044  -0.97286  -0.96603
 Alpha  occ. eigenvalues --   -0.86954  -0.86684  -0.83723  -0.83381  -0.83176
 Alpha  occ. eigenvalues --   -0.83065  -0.82575  -0.82571  -0.82368  -0.82074
 Alpha  occ. eigenvalues --   -0.81289  -0.80851  -0.80600  -0.80234  -0.79189
 Alpha  occ. eigenvalues --   -0.78947  -0.78704  -0.77751  -0.77030  -0.76768
 Alpha  occ. eigenvalues --   -0.76753  -0.75478  -0.75241  -0.75177  -0.74939
 Alpha  occ. eigenvalues --   -0.74416  -0.73013  -0.72664  -0.71919  -0.71692
 Alpha  occ. eigenvalues --   -0.71209  -0.71036  -0.70807  -0.70441  -0.69831
 Alpha  occ. eigenvalues --   -0.69580  -0.67618  -0.67543  -0.67003  -0.66222
 Alpha  occ. eigenvalues --   -0.63807  -0.63684  -0.63651  -0.63625  -0.62503
 Alpha  occ. eigenvalues --   -0.62436  -0.61622  -0.61348  -0.60787  -0.60173
 Alpha  occ. eigenvalues --   -0.59901  -0.59830  -0.59639  -0.59609  -0.59240
 Alpha  occ. eigenvalues --   -0.59049  -0.57844  -0.56829  -0.55009  -0.54694
 Alpha  occ. eigenvalues --   -0.54573  -0.54262  -0.53846  -0.53603  -0.53514
 Alpha  occ. eigenvalues --   -0.53347  -0.52878  -0.52606  -0.52149  -0.51683
 Alpha  occ. eigenvalues --   -0.51028  -0.50632  -0.50607  -0.50194  -0.49889
 Alpha  occ. eigenvalues --   -0.49700  -0.49653  -0.49212  -0.49128  -0.48656
 Alpha  occ. eigenvalues --   -0.48228  -0.48008  -0.48007  -0.47794  -0.47552
 Alpha  occ. eigenvalues --   -0.47424  -0.47111  -0.47079  -0.46928  -0.46899
 Alpha  occ. eigenvalues --   -0.46690  -0.46534  -0.46330  -0.46117  -0.46038
 Alpha  occ. eigenvalues --   -0.45898  -0.45711  -0.45588  -0.45319  -0.44735
 Alpha  occ. eigenvalues --   -0.44635  -0.44534  -0.44379  -0.44237  -0.44057
 Alpha  occ. eigenvalues --   -0.44023  -0.43922  -0.43910  -0.43699  -0.43644
 Alpha  occ. eigenvalues --   -0.43268  -0.43105  -0.43057  -0.42927  -0.42806
 Alpha  occ. eigenvalues --   -0.42550  -0.42270  -0.42253  -0.42029  -0.42015
 Alpha  occ. eigenvalues --   -0.41680  -0.41655  -0.41590  -0.41450  -0.41106
 Alpha  occ. eigenvalues --   -0.41091  -0.41038  -0.40888  -0.40770  -0.40588
 Alpha  occ. eigenvalues --   -0.40523  -0.40303  -0.40080  -0.39952  -0.39828
 Alpha  occ. eigenvalues --   -0.39800  -0.39684  -0.39503  -0.39308  -0.39171
 Alpha  occ. eigenvalues --   -0.38905  -0.38859  -0.38493  -0.38487  -0.38252
 Alpha  occ. eigenvalues --   -0.38149  -0.38091  -0.37878  -0.37799  -0.37705
 Alpha  occ. eigenvalues --   -0.37686  -0.37523  -0.37329  -0.37132  -0.37082
 Alpha  occ. eigenvalues --   -0.36971  -0.36859  -0.36653  -0.36308  -0.36289
 Alpha  occ. eigenvalues --   -0.36183  -0.35948  -0.35727  -0.35610  -0.35231
 Alpha  occ. eigenvalues --   -0.35039  -0.34666  -0.34593  -0.34176  -0.33986
 Alpha  occ. eigenvalues --   -0.33662  -0.33291  -0.33043  -0.32911  -0.32812
 Alpha  occ. eigenvalues --   -0.32571  -0.32256  -0.32093  -0.31971  -0.31455
 Alpha  occ. eigenvalues --   -0.31350  -0.31186  -0.29831  -0.29589  -0.29375
 Alpha  occ. eigenvalues --   -0.29109  -0.29073  -0.28737  -0.27232  -0.27161
 Alpha  occ. eigenvalues --   -0.26143  -0.25997  -0.25988  -0.25743  -0.25731
 Alpha  occ. eigenvalues --   -0.25106  -0.25077  -0.24625  -0.21470  -0.21122
 Alpha  occ. eigenvalues --   -0.19269  -0.19184
 Alpha virt. eigenvalues --   -0.11803  -0.11580  -0.05778  -0.04992  -0.03922
 Alpha virt. eigenvalues --   -0.03679  -0.02026  -0.01924  -0.01547  -0.01117
 Alpha virt. eigenvalues --    0.00558   0.00821   0.01164   0.01272   0.01404

 Mulliken charges:
               1
     1  Mg  12.001523
     2  C    6.018688
     3  C    5.987493
     4  C    5.983093
     5  C    6.001681
     6  N    7.003642
     7  C    5.967690
     8  C    6.007785
     9  C    5.997503
    10  C    6.028285
    11  C    5.992366
    12  C    6.001686
    13  C    6.001152
    14  H    0.992723
    15  N    6.990675
    16  C    6.042654
    17  C    6.019327
    18  C    6.007752
    19  C    6.043375
    20  C    5.996889
    21  C    6.011064
    22  O    8.020629
    23  C    5.995574
    24  N    6.998794
    25  C    6.031893
    26  C    5.988478
    27  C    6.006537
    28  C    5.970551
    29  C    5.997606
    30  C    6.000575
    31  C    6.002062
    32  N    7.001318
    33  C    5.967974
    34  C    5.967172
    35  C    5.999976
    36  C    5.972185
    37  C    5.999900
    38  C    5.982528
    39  O    7.969127
    40  C    6.001642
    41  C    5.995709
    42  O    7.991609
    43  O    8.003513
    44  C    6.002514
    45  H    1.009456
    46  H    1.007360
    47  H    0.992104
    48  H    1.002145
    49  H    0.997019
    50  H    1.013280
    51  H    0.994965
    52  H    1.007679
    53  H    0.989005
    54  H    1.007835
    55  H    1.004754
    56  H    0.996963
    57  H    1.013998
    58  H    1.019716
    59  H    1.019477
    60  H    1.009116
    61  H    1.010595
    62  H    1.012154
    63  H    1.002420
    64  H    1.004109
    65  H    0.992711
    66  H    1.010000
    67  H    1.002194
    68  H    1.002670
    69  H    0.989842
    70  H    1.002177
    71  H    0.994385
    72  H    0.998009
    73  H    0.979790
    74  H    0.982748
    75  H    0.988606
    76  H    0.991239
    77  H    0.995888
    78  H    0.992869
    79  H    0.997810
    80  Mg  12.000003
    81  C    6.000213
    82  C    6.000008
    83  C    5.999802
    84  C    5.999947
    85  N    7.000089
    86  C    5.999675
    87  C    6.000146
    88  C    5.999880
    89  C    6.000206
    90  C    5.999956
    91  C    5.999981
    92  C    6.000009
    93  H    0.999964
    94  N    6.999948
    95  C    6.000370
    96  C    6.000331
    97  C    6.000217
    98  C    6.000322
    99  C    5.999927
   100  C    6.000099
   101  O    8.000280
   102  C    5.999951
   103  N    6.999941
   104  C    6.000309
   105  C    5.999895
   106  C    6.000076
   107  C    5.999773
   108  C    5.999943
   109  C    6.000064
   110  C    6.000032
   111  N    7.000065
   112  C    5.999625
   113  C    5.999597
   114  C    6.000040
   115  C    5.999552
   116  C    6.000049
   117  C    5.999824
   118  O    7.999739
   119  C    6.000021
   120  C    5.999920
   121  O    7.999981
   122  O    7.999992
   123  C    6.000041
   124  H    1.000125
   125  H    1.000026
   126  H    0.999886
   127  H    0.999985
   128  H    1.000048
   129  H    1.000117
   130  H    0.999943
   131  H    1.000096
   132  H    0.999936
   133  H    1.000055
   134  H    1.000035
   135  H    0.999985
   136  H    1.000193
   137  H    1.000218
   138  H    1.000218
   139  H    1.000091
   140  H    1.000064
   141  H    1.000172
   142  H    0.999999
   143  H    0.999991
   144  H    1.000022
   145  H    0.999931
   146  H    1.000120
   147  H    0.999868
   148  H    1.000006
   149  H    0.999939
   150  H    1.000116
   151  H    0.999817
   152  H    0.999771
   153  H    0.999803
   154  H    0.999845
   155  H    0.999922
   156  H    0.999944
   157  H    0.999954
   158  H    0.999952
 Sum of Mulliken charges = 624.00000

 Dipole moment (field-independent basis, Debye):
    X=             -5.2948    Y=             -2.2057    Z=              8.8659  Tot=             10.5596
 Quadrupole moment (field-independent basis, Debye-Ang):
   XX=            276.5326   YY=             -0.2269   ZZ=              3.5919
   XY=             63.8063   XZ=           -244.2373   YZ=             -0.8246

 Normal termination of Gaussian 16 at Thu Oct 14 06:09:15 2021.
