 Gaussian 16, Revision A.03,
 Gaussian 16:  ES64L-G16RevA.03 25-Dec-2016

 --------------------------------------------------------
 #p PBE1PBE/Def2SVP td=(nstates=5) density=(transition=1)
 --------------------------------------------------------

 --------------------------------
 TDDFT excited states in gaussian
 --------------------------------
 Symbolic Z-matrix:
 Charge =  0 Multiplicity = 1

                         Standard orientation:
 ---------------------------------------------------------------------
 Center     Atomic      Atomic             Coordinates (Angstroms)
 Number     Number       Type             X           Y           Z
 ---------------------------------------------------------------------
      1         12           0       25.492765    0.377455    0.640608
      2          6           0       24.210184   -1.774093   -1.863356
      3          6           0       25.985611    2.687546   -1.936053
      4          6           0       26.606510    2.539214    2.846487
      5          6           0       25.667634   -2.317985    2.830116
      6          7           0       25.093162    0.414866   -1.608824
      7          6           0       24.438752   -0.499039   -2.378014
      8          6           0       24.276938   -0.136370   -3.864180
      9          6           0       25.004228    1.301634   -3.819876
     10          6           0       25.382737    1.440860   -2.375045
     11          6           0       26.295813    1.405956   -4.723806
     12          6           0       22.781878   -0.049280   -4.313442
     13          6           0       22.113005   -1.016134   -5.282766
     14          1           0       21.053481   -0.541013   -6.268245
     15          7           0       26.136310    2.380117    0.521274
     16          6           0       26.338204    3.140226   -0.639778
     17          6           0       26.948844    4.387654   -0.237774
     18          6           0       26.992199    4.439470    1.153291
     19          6           0       26.514217    3.106942    1.570712
     20          6           0       27.185526    5.429805   -1.276941
     21          6           0       27.514788    5.509975    2.110686
     22          8           0       27.522333    5.408284    3.341242
     23          6           0       27.905015    6.806817    1.518750
     24          7           0       26.164688    0.159274    2.543034
     25          6           0       26.387838    1.230166    3.363488
     26          6           0       26.361854    0.801331    4.869752
     27          6           0       26.168605   -0.707545    4.792248
     28          6           0       26.058772   -1.012448    3.272414
     29          6           0       27.605069    1.292099    5.681389
     30          6           0       24.920397   -1.110191    5.592243
     31          6           0       25.001315   -2.301403    6.476038
     32          7           0       25.145489   -1.664169    0.537439
     33          6           0       25.227449   -2.634521    1.503878
     34          6           0       24.807344   -3.908692    1.002191
     35          6           0       24.268838   -3.653950   -0.353083
     36          6           0       24.511167   -2.238582   -0.557509
     37          6           0       24.858953   -5.240520    1.770249
     38          6           0       23.624877   -4.217978   -1.566099
     39          8           0       23.133914   -5.342255   -1.764397
     40          6           0       23.567059   -2.999261   -2.576507
     41          6           0       24.359328   -3.567946   -3.711967
     42          8           0       25.572793   -3.551156   -3.879275
     43          8           0       23.569683   -4.019680   -4.647521
     44          6           0       24.139314   -4.773913   -5.790434
     45          1           0       25.938412    3.353725   -2.799638
     46          1           0       27.001710    3.137689    3.669559
     47          1           0       25.663022   -3.135672    3.553367
     48          1           0       24.871160   -0.844656   -4.442886
     49          1           0       24.408824    2.188696   -4.038222
     50          1           0       26.732277    0.471855   -5.076377
     51          1           0       27.091047    1.909239   -4.175005
     52          1           0       26.054005    2.012794   -5.596566
     53          1           0       22.660677    0.928302   -4.780355
     54          1           0       22.124474   -0.105795   -3.446776
     55          1           0       21.548405   -1.632534   -4.583057
     56          1           0       22.976739   -1.483234   -5.756034
     57          1           0       26.612909    6.335618   -1.082484
     58          1           0       26.904855    5.068636   -2.266648
     59          1           0       28.225620    5.748571   -1.338392
     60          1           0       27.109858    7.160344    0.862239
     61          1           0       28.730776    6.711426    0.813537
     62          1           0       28.067855    7.602583    2.244920
     63          1           0       25.480613    1.331749    5.230174
     64          1           0       26.987899   -1.234932    5.280558
     65          1           0       28.240151    1.997181    5.145276
     66          1           0       28.270881    0.488822    5.994710
     67          1           0       27.284216    1.669979    6.652031
     68          1           0       24.188993   -1.291195    4.805630
     69          1           0       24.552644   -0.346658    6.277275
     70          1           0       24.184674   -2.942320    6.144567
     71          1           0       24.983165   -1.996750    7.522395
     72          1           0       25.882580   -2.925565    6.326512
     73          1           0       25.815618   -5.724084    1.576083
     74          1           0       24.017326   -5.852802    1.446759
     75          1           0       24.812577   -5.095530    2.849789
     76          1           0       22.520767   -2.875427   -2.855269
     77          1           0       24.848233   -4.203218   -6.389302
     78          1           0       23.392567   -5.195170   -6.463210
     79          1           0       24.683498   -5.687715   -5.553802
     80         12           0      -25.634692   -0.552707   -0.241819
     81          6           0      -24.195417    2.669536   -0.237566
     82          6           0      -22.497816   -1.892096    0.488751
     83          6           0      -27.215778   -3.408116    0.738581
     84          6           0      -28.809140    1.090513   -0.471083
     85          7           0      -23.631891    0.294996    0.042268
     86          6           0      -23.293478    1.601742    0.027703
     87          6           0      -21.795829    1.798769    0.430702
     88          6           0      -21.259061    0.302729    0.268063
     89          6           0      -22.569129   -0.548796    0.226569
     90          6           0      -20.421713   -0.109427   -0.963882
     91          6           0      -21.733395    2.356662    1.902805
     92          6           0      -20.580994    3.369879    2.147835
     93          1           0      -19.829928    3.228090    3.533998
     94          7           0      -24.934588   -2.517019    0.334647
     95          6           0      -23.611255   -2.820402    0.515634
     96          6           0      -23.551156   -4.197888    0.827279
     97          6           0      -24.878592   -4.695579    0.986483
     98          6           0      -25.778286   -3.546265    0.634968
     99          6           0      -22.278648   -4.980065    1.051718
    100          6           0      -25.276674   -6.020746    1.541191
    101          8           0      -24.455991   -6.807393    1.985501
    102          6           0      -26.633649   -6.482178    1.677292
    103          7           0      -27.761697   -1.020951    0.187637
    104          6           0      -28.121745   -2.356999    0.417791
    105          6           0      -29.608791   -2.518183    0.362953
    106          6           0      -30.155168   -1.077874    0.042144
    107          6           0      -28.873594   -0.273481   -0.091072
    108          6           0      -29.957520   -3.577050   -0.690827
    109          6           0      -31.294819   -0.599755    1.018688
    110          6           0      -32.601085   -0.209874    0.396067
    111          7           0      -26.416933    1.488052   -0.376638
    112          6           0      -27.704369    1.945324   -0.515749
    113          6           0      -27.709124    3.400251   -0.783888
    114          6           0      -26.330288    3.690964   -0.607373
    115          6           0      -25.612526    2.519257   -0.456908
    116          6           0      -28.884680    4.346546   -0.970892
    117          6           0      -25.412003    4.789968   -0.469123
    118          8           0      -25.624751    6.012371   -0.487203
    119          6           0      -24.004729    4.235533   -0.249239
    120          6           0      -23.064132    4.745776   -1.264146
    121          8           0      -22.099964    5.360079   -0.982015
    122          8           0      -23.307354    4.275013   -2.522004
    123          6           0      -22.188731    4.607384   -3.430696
    124          1           0      -21.519643   -2.353921    0.641294
    125          1           0      -27.653559   -4.380231    0.970768
    126          1           0      -29.669735    1.762039   -0.516006
    127          1           0      -21.346731    2.500862   -0.271994
    128          1           0      -20.864620   -0.151257    1.176990
    129          1           0      -20.650557    0.537199   -1.811765
    130          1           0      -20.508312   -1.147879   -1.283757
    131          1           0      -19.384658    0.081086   -0.689678
    132          1           0      -21.686309    1.540552    2.624370
    133          1           0      -22.693093    2.853354    2.045879
    134          1           0      -21.080631    4.336653    2.083642
    135          1           0      -19.957834    3.239600    1.262799
    136          1           0      -22.345541   -6.060220    0.921122
    137          1           0      -22.012798   -4.738162    2.080395
    138          1           0      -21.376349   -4.589551    0.581085
    139          1           0      -27.055136   -6.517855    0.671898
    140          1           0      -27.201807   -5.842610    2.353366
    141          1           0      -26.615331   -7.482929    2.108973
    142          1           0      -30.007987   -2.732715    1.353987
    143          1           0      -30.478462   -0.876036   -0.979290
    144          1           0      -29.101226   -4.178240   -0.997454
    145          1           0      -30.338563   -3.125047   -1.606578
    146          1           0      -30.564145   -4.358079   -0.233423
    147          1           0      -30.858285    0.244899    1.551710
    148          1           0      -31.650208   -1.374879    1.696663
    149          1           0      -32.827199    0.801001    0.734270
    150          1           0      -33.420134   -0.840773    0.741857
    151          1           0      -32.620455   -0.348832   -0.684909
    152          1           0      -29.315728    4.674654   -0.024818
    153          1           0      -29.654285    3.950952   -1.634894
    154          1           0      -28.378071    5.222855   -1.375092
    155          1           0      -23.592771    4.639188    0.674775
    156          1           0      -22.434086    4.209515   -4.415725
    157          1           0      -21.254743    4.181780   -3.064040
    158          1           0      -22.079258    5.671332   -3.637918
 ---------------------------------------------------------------------

 SCF Done:  E(RPBE1PBE) =  -4067.34742386     A.U. after   17 cycles

 Excitation energies and oscillator strengths:

 Excited State   1:      Singlet-A      1.8334 eV  676.26 nm  f=0.0000  <S**2>=0.000
     312 -> 313        0.70711
 This state for optimization and/or second-order correction.
 Total Energy, E(TD-HF/TD-DFT) =  -4067.28004877
 Copying the excited state density for this state as the 1-particle RhoCI density.

 Excited State   2:      Singlet-A      1.8469 eV  671.32 nm  f=0.3825  <S**2>=0.000
     309 -> 315       -0.16874
     311 -> 313        0.69409
     311 <- 313       -0.11312

 Excited State   3:      Singlet-A      1.8639 eV  665.20 nm  f=0.3751  <S**2>=0.000
     310 -> 316       -0.18322
     312 -> 314        0.68964

 Excited State   4:      Singlet-A      2.1584 eV  574.42 nm  f=0.0000  <S**2>=0.000
     311 -> 314        0.70711

 Excited State   5:      Singlet-A      2.2119 eV  560.54 nm  f=0.1058  <S**2>=0.000
     310 -> 314        0.65040
     312 -> 316        0.26771

 The electronic state is 1-A.
 Alpha  occ. eigenvalues --  -46.94201 -46.91963 -19.25960 -19.25716 -19.20115
 Alpha  occ. eigenvalues --  -19.19513 -19.19374 -19.18990 -19.18497 -19.17634
 Alpha  occ. eigenvalues --  -14.42427 -14.42303 -14.41955 -14.41559 -14.39595
 Alpha  occ. eigenvalues --  -14.39359 -14.38887 -14.38860 -10.35715 -10.35714
 Alpha  occ. eigenvalues --  -10.32858 -10.32813 -10.31835 -10.30697 -10.29933
 Alpha  occ. eigenvalues --  -10.29679 -10.29660 -10.29213 -10.29152 -10.29033
 Alpha  occ. eigenvalues --  -10.28945 -10.28905 -10.28855 -10.28806 -10.28488
 Alpha  occ. eigenvalues --  -10.28414 -10.28044 -10.27802 -10.27682 -10.26994
 Alpha  occ. eigenvalues --  -10.26899 -10.26871 -10.26856 -10.26850 -10.26841
 Alpha  occ. eigenvalues --  -10.26627 -10.26615 -10.26481 -10.26394 -10.26295
 Alpha  occ. eigenvalues --  -10.26294 -10.26274 -10.26108 -10.26027 -10.25923
 Alpha  occ. eigenvalues --  -10.25918 -10.25882 -10.25826 -10.25733 -10.25572
 Alpha  occ. eigenvalues --  -10.25349 -10.25344 -10.25319 -10.24989 -10.24935
 Alpha  occ. eigenvalues --  -10.24894 -10.24657 -10.24585 -10.24522 -10.24417
 Alpha  occ. eigenvalues --  -10.24385 -10.24130 -10.24040 -10.23936 -10.23915
 Alpha  occ. eigenvalues --  -10.23856 -10.23532 -10.23454 -10.23365 -10.23306
 Alpha  occ. eigenvalues --  -10.23163 -10.23050 -10.22937 -10.22828 -10.22653
 Alpha  occ. eigenvalues --  -10.22359  -3.15940  -3.14138  -1.88791  -1.88293
 Alpha  occ. eigenvalues --   -1.88155  -1.86980  -1.86514  -1.86365  -1.12725
 Alpha  occ. eigenvalues --   -1.12649  -1.04528  -1.04372  -1.03870  -1.03597
 Alpha  occ. eigenvalues --   -1.03359  -1.01354  -1.00041  -0.99739  -0.98449
 Alpha  occ. eigenvalues --   -0.98405  -0.98031  -0.97440  -0.97272  -0.96297
 Alpha  occ. eigenvalues --   -0.86939  -0.86318  -0.83840  -0.83710  -0.83367
 Alpha  occ. eigenvalues --   -0.83221  -0.82950  -0.82561  -0.82354  -0.81870
 Alpha  occ. eigenvalues --   -0.81275  -0.81089  -0.80220  -0.79522  -0.79175
 Alpha  occ. eigenvalues --   -0.78934  -0.78689  -0.77892  -0.77178  -0.77016
 Alpha  occ. eigenvalues --   -0.76754  -0.76678  -0.75227  -0.75200  -0.74924
 Alpha  occ. eigenvalues --   -0.74848  -0.72999  -0.72877  -0.71905  -0.71871
 Alpha  occ. eigenvalues --   -0.71206  -0.71195  -0.70792  -0.70600  -0.69817
 Alpha  occ. eigenvalues --   -0.69493  -0.67604  -0.66990  -0.66797  -0.66232
 Alpha  occ. eigenvalues --   -0.63793  -0.63638  -0.63496  -0.62654  -0.62422
 Alpha  occ. eigenvalues --   -0.62245  -0.61333  -0.61267  -0.60773  -0.60213
 Alpha  occ. eigenvalues --   -0.60158  -0.59724  -0.59595  -0.59397  -0.59226
 Alpha  occ. eigenvalues --   -0.58783  -0.57830  -0.57094  -0.55268  -0.54680
 Alpha  occ. eigenvalues --   -0.54559  -0.54007  -0.53629  -0.53589  -0.53500
 Alpha  occ. eigenvalues --   -0.53118  -0.52864  -0.52430  -0.52287  -0.51669
 Alpha  occ. eigenvalues --   -0.51138  -0.51014  -0.50618  -0.50211  -0.50180
 Alpha  occ. eigenvalues --   -0.49639  -0.49625  -0.49114  -0.48903  -0.48815
 Alpha  occ. eigenvalues --   -0.48433  -0.48214  -0.47994  -0.47914  -0.47781
 Alpha  occ. eigenvalues --   -0.47420  -0.47410  -0.47244  -0.47097  -0.46899
 Alpha  occ. eigenvalues --   -0.46884  -0.46745  -0.46315  -0.46104  -0.46024
 Alpha  occ. eigenvalues --   -0.45884  -0.45574  -0.45336  -0.44985  -0.44721
 Alpha  occ. eigenvalues --   -0.44621  -0.44520  -0.44388  -0.44225  -0.44222
 Alpha  occ. eigenvalues --   -0.43928  -0.43908  -0.43685  -0.43562  -0.43485
 Alpha  occ. eigenvalues --   -0.43254  -0.43144  -0.43090  -0.42872  -0.42791
 Alpha  occ. eigenvalues --   -0.42616  -0.42382  -0.42256  -0.42210  -0.42001
 Alpha  occ. eigenvalues --   -0.41666  -0.41576  -0.41437  -0.41274  -0.41091
 Alpha  occ. eigenvalues --   -0.41024  -0.40988  -0.40813  -0.40653  -0.40510
 Alpha  occ. eigenvalues --   -0.40345  -0.40218  -0.40017  -0.39938  -0.39814
 Alpha  occ. eigenvalues --   -0.39814  -0.39670  -0.39529  -0.39489  -0.39157
 Alpha  occ. eigenvalues --   -0.39157  -0.38873  -0.38845  -0.38806  -0.38473
 Alpha  occ. eigenvalues --   -0.38238  -0.38079  -0.37895  -0.37864  -0.37708
 Alpha  occ. eigenvalues --   -0.37672  -0.37508  -0.37384  -0.37068  -0.36705
 Alpha  occ. eigenvalues --   -0.36639  -0.36420  -0.36318  -0.36169  -0.36109
 Alpha  occ. eigenvalues --   -0.35934  -0.35728  -0.35596  -0.35354  -0.35032
 Alpha  occ. eigenvalues --   -0.35026  -0.34824  -0.34579  -0.34425  -0.34162
 Alpha  occ. eigenvalues --   -0.33648  -0.33426  -0.32914  -0.32897  -0.32557
 Alpha  occ. eigenvalues --   -0.32253  -0.32242  -0.31956  -0.31741  -0.31441
 Alpha  occ. eigenvalues --   -0.31352  -0.30875  -0.29817  -0.29693  -0.29361
 Alpha  occ. eigenvalues --   -0.29059  -0.28864  -0.28088  -0.27267  -0.27147
 Alpha  occ. eigenvalues --   -0.26332  -0.25983  -0.25952  -0.25717  -0.25708
 Alpha  occ. eigenvalues --   -0.25063  -0.24694  -0.24611  -0.21456  -0.20822
 Alpha  occ. eigenvalues --   -0.19256  -0.18785
 Alpha virt. eigenvalues --   -0.11789  -0.11067  -0.05764  -0.05394  -0.04395
 Alpha virt. eigenvalues --   -0.03908  -0.02284  -0.02012  -0.01538  -0.00169
 Alpha virt. eigenvalues --    0.00573   0.01063   0.01287   0.01419   0.01614

 Mulliken charges:
               1
     1  Mg  12.000000
     2  C    6.000000
     3  C    6.000000
     4  C    6.000000
     5  C    6.000000
     6  N    7.000000
     7  C    6.000000
     8  C    6.000000
     9  C    6.000000
    10  C    6.000000
    11  C    6.000000
    12  C    6.000000
    13  C    6.000000
    14  H    1.000000
    15  N    7.000000
    16  C    6.000000
    17  C    6.000000
    18  C    6.000000
    19  C    6.000000
    20  C    6.000000
    21  C    6.000000
    22  O    8.000000
    23  C    6.000000
    24  N    7.000000
    25  C    6.000000
    26  C    6.000000
    27  C    6.000000
    28  C    6.000000
    29  C    6.000000
    30  C    6.000000
    31  C    6.000000
    32  N    7.000000
    33  C    6.000000
    34  C    6.000000
    35  C    6.000000
    36  C    6.000000
    37  C    6.000000
    38  C    6.000000
    39  O    8.000000
    40  C    6.000000
    41  C    6.000000
    42  O    8.000000
    43  O    8.000000
    44  C    6.000000
    45  H    1.000000
    46  H    1.000000
    47  H    1.000000
    48  H    1.000000
    49  H    1.000000
    50  H    1.000000
    51  H    1.000000
    52  H    1.000000
    53  H    1.000000
    54  H    1.000000
    55  H    1.000000
    56  H    1.000000
    57  H    1.000000
    58  H    1.000000
    59  H    1.000000
    60  H    1.000000
    61  H    1.000000
    62  H    1.000000
    63  H    1.000000
    64  H    1.000000
    65  H    1.000000
    66  H    1.000000
    67  H    1.000000
    68  H    1.000000
    69  H    1.000000
    70  H    1.000000
    71  H    1.000000
    72  H    1.000000
    73  H    1.000000
    74  H    1.000000
    75  H    1.000000
    76  H    1.000000
    77  H    1.000000
    78  H    1.000000
    79  H    1.000000
    80  Mg  12.000000
    81  C    6.000000
    82  C    6.000000
    83  C    6.000000
    84  C    6.000000
    85  N    7.000000
    86  C    6.000000
    87  C    6.000000
    88  C    6.000000
    89  C    6.000000
    90  C    6.000000
    91  C    6.000000
    92  C    6.000000
    93  H    1.000000
    94  N    7.000000
    95  C    6.000000
    96  C    6.000000
    97  C    6.000000
    98  C    6.000000
    99  C    6.000000
   100  C    6.000000
   101  O    8.000000
   102  C    6.000000
   103  N    7.000000
   104  C    6.000000
   105  C    6.000000
   106  C    6.000000
   107  C    6.000000
   108  C    6.000000
   109  C    6.000000
   110  C    6.000000
   111  N    7.000000
   112  C    6.000000
   113  C    6.000000
   114  C    6.000000
   115  C    6.000000
   116  C    6.000000
   117  C    6.000000
   118  O    8.000000
   119  C    6.000000
   120  C    6.000000
   121  O    8.000000
   122  O    8.000000
   123  C    6.000000
   124  H    1.000000
   125  H    1.000000
   126  H    1.000000
   127  H    1.000000
   128  H    1.000000
   129  H    1.000000
   130  H    1.000000
   131  H    1.000000
   132  H    1.000000
   133  H    1.000000
   134  H    1.000000
   135  H    1.000000
   136  H    1.000000
   137  H    1.000000
   138  H    1.000000
   139  H    1.000000
   140  H    1.000000
   141  H    1.000000
   142  H    1.000000
   143  H    1.000000
   144  H    1.000000
   145  H    1.000000
   146  H    1.000000
   147  H    1.000000
   148  H    1.000000
   149  H    1.000000
   150  H    1.000000
   151  H    1.000000
   152  H    1.000000
   153  H    1.000000
   154  H    1.000000
   155  H    1.000000
   156  H    1.000000
   157  H    1.000000
   158  H    1.000000
 Sum of Mulliken charges = 624.00000

 Dipole moment (field-independent basis, Debye):
    X=             -0.0000    Y=             -0.0000    Z=              0.0000  Tot=              0.0000
 Quadrupole moment (field-independent basis, Debye-Ang):
   XX=             -0.0000   YY=              0.0000   ZZ=              0.0000
   XY=             -0.0000   XZ=             -0.0000   YZ=             -0.0000

 Normal termination of Gaussian 16 at Fri Oct 15 12:26:28 2021.
