 Gaussian 16, Revision A.03,
 Gaussian 16:  ES64L-G16RevA.03 25-Dec-2016

 ---------------------------------------------------
 #p PBE1PBE/Def2SVP td=(nstates=5) density=(current)
 ---------------------------------------------------

 --------------------------------
 TDDFT excited states in gaussian
 --------------------------------
 Symbolic Z-matrix:
 Charge =  0 Multiplicity = 1

                         Standard orientation:
 ---------------------------------------------------------------------
 Center     Atomic      Atomic             Coordinates (Angstroms)
 Number     Number       Type             X           Y           Z
 ---------------------------------------------------------------------
      1         12           0       -0.784163    0.096537    0.220105
      2          6           0        2.732722    0.132101    0.105098
      3          6           0       -0.625574   -3.360365   -0.119409
      4          6           0       -4.097619    0.145894    0.005297
      5          6           0       -0.780016    3.648000   -0.306753
      6          7           0        0.840022   -1.413441   -0.005351
      7          6           0        2.212110   -1.147474    0.104691
      8          6           0        2.944405   -2.437152    0.426023
      9          6           0        1.935884   -3.569599    0.080831
     10          6           0        0.626448   -2.730148   -0.016842
     11          6           0        2.284619   -4.456718   -1.155349
     12          6           0        3.527458   -2.514013    1.879617
     13          6           0        4.859911   -3.376662    2.002609
     14          1           0        5.384992   -4.064990    0.739872
     15          7           0       -2.121631   -1.365227    0.109519
     16          6           0       -1.874680   -2.726227    0.056212
     17          6           0       -3.100977   -3.467964    0.117430
     18          6           0       -4.136192   -2.483351    0.025472
     19          6           0       -3.468899   -1.195007    0.082919
     20          6           0       -3.171607   -5.025368    0.090848
     21          6           0       -5.611072   -2.684979   -0.098727
     22          8           0       -6.386672   -1.726425   -0.328064
     23          6           0       -6.428106   -4.010086   -0.065773
     24          7           0       -2.237060    1.618981   -0.374258
     25          6           0       -3.561354    1.396635   -0.275801
     26          6           0       -4.339473    2.736247   -0.301017
     27          6           0       -3.296556    3.853024   -0.423085
     28          6           0       -1.980445    2.963914   -0.311574
     29          6           0       -5.461428    2.711988   -1.293785
     30          6           0       -3.362007    4.994354    0.614420
     31          6           0       -3.219131    4.554661    2.092405
     32          7           0        0.651440    1.644702   -0.117182
     33          6           0        0.491755    2.988403   -0.144568
     34          6           0        1.827194    3.571493   -0.024951
     35          6           0        2.780519    2.523152    0.105812
     36          6           0        2.015349    1.336847   -0.006456
     37          6           0        2.141384    5.060692    0.091115
     38          6           0        4.164317    2.208427    0.265470
     39          8           0        5.171269    2.877278    0.482387
     40          6           0        4.204544    0.545213    0.206054
     41          6           0        5.184343    0.108620   -0.866802
     42          8           0        4.917193    0.085479   -2.052257
     43          8           0        6.356183   -0.344959   -0.305083
     44          6           0        7.547397   -0.446356   -1.141910
     45          1           0       -0.455300   -4.438645   -0.099343
     46          1           0       -5.188031    0.100287    0.033754
     47          1           0       -0.865018    4.736087   -0.333267
     48          1           0        3.809731   -2.532385   -0.229744
     49          1           0        1.868610   -4.211353    0.958838
     50          1           0        1.395882   -4.348709   -1.776199
     51          1           0        2.330695   -5.509169   -0.872906
     52          1           0        3.154425   -4.215591   -1.766366
     53          1           0        2.842164   -3.022582    2.557016
     54          1           0        3.665362   -1.499620    2.251695
     55          1           0        4.636094   -4.226567    2.647519
     56          1           0        5.627056   -2.726323    2.422198
     57          1           0       -4.032424   -5.303776   -0.518310
     58          1           0       -3.331923   -5.454495    1.079339
     59          1           0       -2.333151   -5.625175   -0.262844
     60          1           0       -6.224994   -4.564098    0.851133
     61          1           0       -6.258469   -4.627274   -0.948004
     62          1           0       -7.488241   -3.878109    0.147287
     63          1           0       -4.909044    2.756059    0.627233
     64          1           0       -3.320160    4.137587   -1.475612
     65          1           0       -6.435561    2.561669   -0.828040
     66          1           0       -5.266248    1.957562   -2.056089
     67          1           0       -5.551011    3.621210   -1.889293
     68          1           0       -4.366813    5.394464    0.477332
     69          1           0       -2.624654    5.761563    0.376342
     70          1           0       -2.338897    5.080461    2.461746
     71          1           0       -3.077458    3.473891    2.085754
     72          1           0       -4.113665    4.709226    2.695945
     73          1           0        2.892284    5.272645    0.851719
     74          1           0        1.281103    5.622897    0.453221
     75          1           0        2.384003    5.432965   -0.904577
     76          1           0        4.626757    0.255825    1.168729
     77          1           0        7.215073   -0.829240   -2.107184
     78          1           0        8.313902   -1.124799   -0.767200
     79          1           0        7.978335    0.554784   -1.155021
 ---------------------------------------------------------------------

 SCF Done:  E(RPBE1PBE) =  -2033.69510917     A.U. after   15 cycles

 Excitation energies and oscillator strengths:

 Excited State   1:      Singlet-A      1.8182 eV  681.90 nm  f=0.3850  <S**2>=0.000
     155 ->158        -0.16256
     156 ->157         0.69668
     156 <-157        -0.11885
 This state for optimization and/or second-order correction.
 Total Energy, E(TD-HF/TD-DFT) =  -2033.62829091
 Copying the excited state density for this state as the 1-particle RhoCI density.

 Excited State   2:      Singlet-A      2.1901 eV  566.11 nm  f=0.1406  <S**2>=0.000
     155 ->157         0.66497
     156 ->158         0.22016

 Excited State   3:      Singlet-A      2.7489 eV  451.03 nm  f=0.0017  <S**2>=0.000
     154 ->157         0.66867
     154 ->159        -0.16222

 Excited State   4:      Singlet-A      2.9526 eV  419.91 nm  f=0.0040  <S**2>=0.000
     152 ->157         0.24789
     153 ->157         0.63827

 Excited State   5:      Singlet-A      3.0211 eV  410.39 nm  f=0.0010  <S**2>=0.000
     152 ->157         0.63279
     152 ->159         0.12606
     153 ->157        -0.25566

 The electronic state is 1-A.
 Alpha  occ. eigenvalues --  -46.92324 -19.24921 -19.19685 -19.19458 -19.18524
 Alpha  occ. eigenvalues --  -14.41928 -14.41080 -14.39884 -14.39136 -10.36111
 Alpha  occ. eigenvalues --  -10.32811 -10.32551 -10.29092 -10.28633 -10.28622
 Alpha  occ. eigenvalues --  -10.28538 -10.28388 -10.28221 -10.28012 -10.27730
 Alpha  occ. eigenvalues --  -10.26978 -10.26926 -10.26807 -10.25933 -10.25914
 Alpha  occ. eigenvalues --  -10.25897 -10.25880 -10.25563 -10.25341 -10.25333
 Alpha  occ. eigenvalues --  -10.25128 -10.25101 -10.24961 -10.24691 -10.24411
 Alpha  occ. eigenvalues --  -10.24406 -10.23859 -10.23679 -10.23510 -10.23156
 Alpha  occ. eigenvalues --  -10.23150 -10.23072 -10.22383  -3.14473  -1.87283
 Alpha  occ. eigenvalues --   -1.86847  -1.86710  -1.10211  -1.04276  -1.03038
 Alpha  occ. eigenvalues --   -1.02275  -0.98887  -0.98065  -0.97886  -0.96880
 Alpha  occ. eigenvalues --   -0.86590  -0.83522  -0.82787  -0.82409  -0.81724
 Alpha  occ. eigenvalues --   -0.80999  -0.79733  -0.78062  -0.77667  -0.76455
 Alpha  occ. eigenvalues --   -0.75340  -0.74974  -0.74129  -0.72864  -0.71286
 Alpha  occ. eigenvalues --   -0.71060  -0.70152  -0.69341  -0.67035  -0.65505
 Alpha  occ. eigenvalues --   -0.64254  -0.63542  -0.62847  -0.61913  -0.59762
 Alpha  occ. eigenvalues --   -0.59300  -0.58750  -0.58617  -0.56241  -0.55407
 Alpha  occ. eigenvalues --   -0.54065  -0.53379  -0.52748  -0.52036  -0.51460
 Alpha  occ. eigenvalues --   -0.50490  -0.50292  -0.49368  -0.49330  -0.48489
 Alpha  occ. eigenvalues --   -0.48013  -0.47704  -0.47310  -0.47152  -0.46702
 Alpha  occ. eigenvalues --   -0.46507  -0.45913  -0.45653  -0.45330  -0.44468
 Alpha  occ. eigenvalues --   -0.44145  -0.43872  -0.43849  -0.43714  -0.43438
 Alpha  occ. eigenvalues --   -0.43209  -0.42831  -0.42476  -0.42336  -0.42089
 Alpha  occ. eigenvalues --   -0.41413  -0.41074  -0.40964  -0.40589  -0.40179
 Alpha  occ. eigenvalues --   -0.39966  -0.39437  -0.39281  -0.38993  -0.38863
 Alpha  occ. eigenvalues --   -0.38805  -0.38212  -0.37989  -0.37674  -0.37463
 Alpha  occ. eigenvalues --   -0.37285  -0.36801  -0.36750  -0.36502  -0.36297
 Alpha  occ. eigenvalues --   -0.35574  -0.35432  -0.35011  -0.34599  -0.34128
 Alpha  occ. eigenvalues --   -0.33659  -0.32813  -0.32635  -0.31915  -0.31370
 Alpha  occ. eigenvalues --   -0.30877  -0.29207  -0.28912  -0.28426  -0.27074
 Alpha  occ. eigenvalues --   -0.26293  -0.25817  -0.25266  -0.24962  -0.21065
 Alpha  occ. eigenvalues --   -0.18992
 Alpha virt. eigenvalues --   -0.11635  -0.05027  -0.04280  -0.02321  -0.01277
 Alpha virt. eigenvalues --    0.00591   0.01065   0.01829   0.03382   0.04526
 Alpha virt. eigenvalues --    0.04665   0.05390   0.05777   0.06151   0.07203

 Mulliken charges:
               1
     1  Mg   0.967237
     2  C   -0.010774
     3  C   -0.049466
     4  C   -0.051753
     5  C   -0.048311
     6  N   -0.386315
     7  C    0.046243
     8  C   -0.067048
     9  C   -0.125239
    10  C    0.038556
    11  C    0.017659
    12  C   -0.019661
    13  C   -0.147386
    14  H    0.043897
    15  N   -0.526612
    16  C    0.196817
    17  C   -0.145592
    18  C   -0.065095
    19  C    0.151554
    20  C    0.046166
    21  C    0.036042
    22  O   -0.280125
    23  C   -0.015628
    24  N   -0.381388
    25  C    0.093850
    26  C   -0.151782
    27  C   -0.054705
    28  C    0.034893
    29  C    0.014251
    30  C   -0.033992
    31  C   -0.064411
    32  N   -0.465171
    33  C    0.162902
    34  C   -0.205081
    35  C    0.001253
    36  C    0.151326
    37  C    0.061851
    38  C    0.125060
    39  O   -0.220395
    40  C   -0.162767
    41  C    0.297223
    42  O   -0.244046
    43  O   -0.381527
    44  C    0.118561
    45  H    0.001943
    46  H    0.027835
    47  H    0.003285
    48  H    0.053905
    49  H    0.047673
    50  H    0.040463
    51  H    0.041391
    52  H    0.062831
    53  H    0.039757
    54  H    0.050153
    55  H    0.061060
    56  H    0.075001
    57  H    0.043959
    58  H    0.053182
    59  H    0.046599
    60  H    0.034563
    61  H    0.075235
    62  H    0.047837
    63  H    0.052322
    64  H    0.052404
    65  H    0.048999
    66  H    0.049771
    67  H    0.028548
    68  H    0.043363
    69  H    0.047758
    70  H    0.052300
    71  H    0.051165
    72  H    0.048112
    73  H    0.063031
    74  H    0.025601
    75  H    0.065813
    76  H    0.074081
    77  H    0.063649
    78  H    0.056861
    79  H    0.068473
 Sum of Mulliken charges =  -0.00000

 Dipole moment (field-independent basis, Debye):
    X=             -0.9654    Y=             -3.2250    Z=              3.1200  Tot=              4.5899
 Quadrupole moment (field-independent basis, Debye-Ang):
   XX=           -269.2710   YY=           -220.0302   ZZ=           -258.9341
   XY=            -24.4416   XZ=             -1.7762   YZ=             -2.6170

 Normal termination of Gaussian 16 at Wed Oct 13 16:35:08 2021.
