 Gaussian 16, Revision A.03,
 Gaussian 16:  ES64L-G16RevA.03 25-Dec-2016

 --------------------------------------------------------
 #p PBE1PBE/Def2SVP td=(nstates=5) density=(transition=1)
 --------------------------------------------------------

 --------------------------------
 TDDFT excited states in gaussian
 --------------------------------
 Symbolic Z-matrix:
 Charge =  0 Multiplicity = 1

                         Standard orientation:
 ---------------------------------------------------------------------
 Center     Atomic      Atomic             Coordinates (Angstroms)
 Number     Number       Type             X           Y           Z
 ---------------------------------------------------------------------
      1         12           0        9.244489   -0.347422   -0.287977
      2          6           0        7.146945    2.307342   -0.384170
      3          6           0       11.788285    1.704929    0.887481
      4          6           0       11.343970   -3.001762   -0.197789
      5          6           0        6.875660   -2.279816   -1.912031
      6          7           0        9.341733    1.682109    0.264380
      7          6           0        8.387437    2.636786    0.125454
      8          6           0        8.774011    3.936668    0.781402
      9          6           0       10.338014    3.812464    0.929648
     10          6           0       10.499942    2.273422    0.704068
     11          6           0       11.300541    4.725099    0.060511
     12          6           0        8.100110    4.097874    2.217934
     13          6           0        7.969659    5.587740    2.651661
     14          1           0        8.932231    6.670947    2.136625
     15          7           0       11.335202   -0.642452    0.191872
     16          6           0       12.190433    0.381609    0.676716
     17          6           0       13.484521   -0.167678    0.948594
     18          6           0       13.393230   -1.567177    0.619928
     19          6           0       11.960820   -1.766334    0.197503
     20          6           0       14.619224    0.589250    1.544615
     21          6           0       14.462922   -2.650486    0.701043
     22          8           0       14.342053   -3.840099    0.285118
     23          6           0       15.815775   -2.317215    1.306784
     24          7           0        9.164731   -2.324373   -1.012134
     25          6           0       10.094624   -3.313082   -0.686673
     26          6           0        9.606796   -4.769472   -0.936114
     27          6           0        8.097335   -4.441316   -1.457282
     28          6           0        7.999992   -2.959733   -1.445723
     29          6           0       10.512149   -5.428147   -1.984887
     30          6           0        7.012938   -5.141585   -0.692669
     31          6           0        6.106838   -5.968589   -1.559275
     32          7           0        7.482868   -0.131510   -1.112875
     33          6           0        6.573401   -0.982017   -1.729137
     34          6           0        5.399880   -0.271229   -2.079245
     35          6           0        5.556566    1.064627   -1.621435
     36          6           0        6.792916    1.089703   -0.942210
     37          6           0        4.175269   -0.763340   -2.750118
     38          6           0        4.985327    2.393479   -1.637978
     39          8           0        3.992793    2.897447   -2.126189
     40          6           0        6.019832    3.223814   -0.739717
     41          6           0        6.263331    4.589588   -1.273160
     42          8           0        6.443958    4.890246   -2.425459
     43          8           0        6.231775    5.542284   -0.328393
     44          6           0        6.488014    6.920760   -0.834516
     45          1           0       12.552739    2.459997    1.082901
     46          1           0       12.068154   -3.814002   -0.287832
     47          1           0        6.035708   -2.843820   -2.322744
     48          1           0        8.636320    4.793132    0.121606
     49          1           0       10.593777    3.964978    1.977692
     50          1           0       10.671671    5.428156   -0.485814
     51          1           0       11.970187    4.229751   -0.640769
     52          1           0       11.968258    5.224962    0.762474
     53          1           0        8.736551    3.508609    2.878326
     54          1           0        7.109180    3.647346    2.160193
     55          1           0        8.040637    5.517020    3.737202
     56          1           0        6.931613    5.865024    2.470071
     57          1           0       14.600610    0.696680    2.629195
     58          1           0       14.612826    1.556249    1.043217
     59          1           0       15.593866    0.235424    1.209803
     60          1           0       16.395396   -1.859241    0.505429
     61          1           0       16.251856   -3.282747    1.561886
     62          1           0       15.767970   -1.626883    2.149143
     63          1           0        9.740753   -5.295974    0.008924
     64          1           0        8.008496   -4.782702   -2.489176
     65          1           0       11.225880   -4.769114   -2.479661
     66          1           0        9.893410   -6.006122   -2.670924
     67          1           0       11.148581   -6.119653   -1.431975
     68          1           0        6.329075   -4.456776   -0.191030
     69          1           0        7.366904   -5.790035    0.108880
     70          1           0        5.951395   -6.976895   -1.176600
     71          1           0        6.508162   -6.073687   -2.566891
     72          1           0        5.209968   -5.357234   -1.663360
     73          1           0        4.313086   -1.578267   -3.461375
     74          1           0        3.939344    0.038089   -3.450818
     75          1           0        3.416127   -1.008374   -2.007233
     76          1           0        5.373270    3.326012    0.132326
     77          1           0        5.614324    7.344114   -1.332069
     78          1           0        7.413388    6.979294   -1.407785
     79          1           0        6.674979    7.566560    0.023789
     80         12           0       -8.774337   -0.993498    0.557687
     81          6           0      -10.080826    2.061757   -0.561809
     82          6           0       -7.173364    0.727191    3.073700
     83          6           0       -7.532061   -3.877390    1.573363
     84          6           0      -10.353604   -2.554472   -2.164807
     85          7           0       -8.750334    1.132289    1.180489
     86          6           0       -9.332678    2.250998    0.584351
     87          6           0       -9.305005    3.534161    1.504346
     88          6           0       -8.270705    3.072936    2.512910
     89          6           0       -8.038437    1.526246    2.258852
     90          6           0       -6.872100    3.802571    2.262317
     91          6           0      -10.755374    3.567934    2.162609
     92          6           0      -11.462326    4.988855    2.286317
     93          1           0      -10.421956    6.054600    2.518449
     94          7           0       -7.445098   -1.456506    1.980605
     95          6           0       -6.897037   -0.659385    2.893475
     96          6           0       -6.049594   -1.370899    3.813403
     97          6           0       -6.265543   -2.733663    3.528059
     98          6           0       -7.081986   -2.745658    2.256200
     99          6           0       -5.214513   -0.766055    4.881817
    100          6           0       -5.890147   -3.973920    4.312604
    101          8           0       -6.363868   -5.090027    4.071157
    102          6           0       -4.802623   -3.896938    5.387759
    103          7           0       -8.899116   -2.952312   -0.248307
    104          6           0       -8.314629   -3.969849    0.468245
    105          6           0       -8.730111   -5.300182   -0.156222
    106          6           0       -9.760480   -4.894031   -1.319274
    107          6           0       -9.742891   -3.390461   -1.233793
    108          6           0       -7.454307   -6.118352   -0.564323
    109          6           0      -11.148330   -5.512366   -1.256478
    110          6           0      -11.586373   -6.209712   -2.582374
    111          7           0       -9.948409   -0.377755   -1.046149
    112          6           0      -10.517893   -1.140443   -2.113683
    113          6           0      -11.217194   -0.290331   -3.009658
    114          6           0      -11.062354    0.975075   -2.418895
    115          6           0      -10.248456    0.853695   -1.273522
    116          6           0      -11.990855   -0.603490   -4.249746
    117          6           0      -11.396012    2.359089   -2.529083
    118          8           0      -12.014493    2.991781   -3.352446
    119          6           0      -10.855238    3.078463   -1.261077
    120          6           0      -10.134155    4.309122   -1.676377
    121          8           0       -9.052325    4.386117   -2.251832
    122          8           0      -10.863289    5.345785   -1.252011
    123          6           0      -10.313787    6.667411   -1.470437
    124          1           0       -6.726152    1.120740    3.988749
    125          1           0       -7.080151   -4.796777    1.954059
    126          1           0      -10.911477   -3.005133   -2.988377
    127          1           0       -9.168576    4.368035    0.816460
    128          1           0       -8.640924    3.221950    3.526672
    129          1           0       -6.901314    4.474482    1.404313
    130          1           0       -6.114598    3.038408    2.089181
    131          1           0       -6.680252    4.330602    3.196448
    132          1           0      -10.776307    3.176178    3.179129
    133          1           0      -11.368775    2.884341    1.575051
    134          1           0      -12.030287    5.054381    3.214414
    135          1           0      -12.233459    5.119806    1.526728
    136          1           0       -5.661753   -1.065398    5.830673
    137          1           0       -5.234678    0.321881    4.835448
    138          1           0       -4.175702   -1.093881    4.856934
    139          1           0       -4.543037   -4.953039    5.457313
    140          1           0       -5.140818   -3.464850    6.330319
    141          1           0       -3.861496   -3.420464    5.113909
    142          1           0       -9.258811   -5.987188    0.504473
    143          1           0       -9.318606   -5.167703   -2.277459
    144          1           0       -7.632722   -7.134206   -0.211570
    145          1           0       -6.520829   -5.702308   -0.185208
    146          1           0       -7.438552   -6.316876   -1.636626
    147          1           0      -11.936352   -4.816958   -0.969174
    148          1           0      -11.028308   -6.353575   -0.572328
    149          1           0      -10.762463   -6.233822   -3.295786
    150          1           0      -12.315689   -5.612491   -3.129290
    151          1           0      -11.928433   -7.228694   -2.400172
    152          1           0      -12.895551   -1.042542   -3.828291
    153          1           0      -11.356452   -1.249847   -4.855861
    154          1           0      -12.293752    0.292213   -4.790203
    155          1           0      -11.764851    3.423534   -0.767710
    156          1           0      -10.066087    6.797953   -2.524233
    157          1           0       -9.372814    6.897424   -0.969534
    158          1           0      -11.094750    7.370245   -1.179664
 ---------------------------------------------------------------------

 SCF Done:  E(RPBE1PBE) =  -4067.40355489     A.U. after   16 cycles

 Excitation energies and oscillator strengths:

 Excited State   1:      Singlet-A      1.7594 eV  704.70 nm  f=0.0000  <S**2>=0.000
     312 -> 313        0.70706
 This state for optimization and/or second-order correction.
 Total Energy, E(TD-HF/TD-DFT) =  -4067.33889843
 Copying the excited state density for this state as the 1-particle RhoCI density.

 Excited State   2:      Singlet-A      1.8022 eV  687.95 nm  f=0.4058  <S**2>=0.000
     309 -> 316       -0.16338
     311 -> 313        0.69672
     311 <- 313       -0.11943

 Excited State   3:      Singlet-A      1.8611 eV  666.19 nm  f=0.3397  <S**2>=0.000
     310 -> 315        0.15446
     312 -> 314        0.69323
     312 <- 314       -0.10798

 Excited State   4:      Singlet-A      1.9006 eV  652.33 nm  f=0.0000  <S**2>=0.000
     311 -> 314        0.70708

 Excited State   5:      Singlet-A      2.2179 eV  559.01 nm  f=0.1094  <S**2>=0.000
     309 -> 313        0.65119
     311 -> 316        0.25949

 The electronic state is 1-A.
 Alpha  occ. eigenvalues --  -46.91083 -46.90581 -19.25864 -19.25786 -19.19859
 Alpha  occ. eigenvalues --  -19.19434 -19.19011 -19.18980 -19.18738 -19.17804
 Alpha  occ. eigenvalues --  -14.42306 -14.41689 -14.41316 -14.41057 -14.39628
 Alpha  occ. eigenvalues --  -14.39149 -14.38509 -14.38174 -10.35583 -10.35302
 Alpha  occ. eigenvalues --  -10.33092 -10.32353 -10.32267 -10.30427 -10.29352
 Alpha  occ. eigenvalues --  -10.29283 -10.29132 -10.28688 -10.28525 -10.28472
 Alpha  occ. eigenvalues --  -10.28365 -10.28308 -10.28259 -10.28144 -10.28009
 Alpha  occ. eigenvalues --  -10.27867 -10.27745 -10.27573 -10.26944 -10.26914
 Alpha  occ. eigenvalues --  -10.26692 -10.26529 -10.26482 -10.26340 -10.26290
 Alpha  occ. eigenvalues --  -10.26198 -10.26105 -10.26021 -10.25986 -10.25891
 Alpha  occ. eigenvalues --  -10.25527 -10.25492 -10.25475 -10.25379 -10.25372
 Alpha  occ. eigenvalues --  -10.25332 -10.25308 -10.25305 -10.25232 -10.25088
 Alpha  occ. eigenvalues --  -10.25050 -10.24980 -10.24971 -10.24922 -10.24748
 Alpha  occ. eigenvalues --  -10.24585 -10.24343 -10.24333 -10.24323 -10.23879
 Alpha  occ. eigenvalues --  -10.23819 -10.23704 -10.23663 -10.23345 -10.23338
 Alpha  occ. eigenvalues --  -10.23337 -10.23257 -10.23248 -10.23132 -10.23113
 Alpha  occ. eigenvalues --  -10.23021 -10.23006 -10.23001 -10.22886 -10.22578
 Alpha  occ. eigenvalues --  -10.21553  -3.13369  -3.13010  -1.86221  -1.85845
 Alpha  occ. eigenvalues --   -1.85724  -1.85624  -1.85365  -1.85281  -1.12085
 Alpha  occ. eigenvalues --   -1.11866  -1.04873  -1.04800  -1.04264  -1.02102
 Alpha  occ. eigenvalues --   -1.02082  -1.01869  -0.99375  -0.99115  -0.98663
 Alpha  occ. eigenvalues --   -0.98250  -0.97436  -0.97363  -0.96930  -0.96060
 Alpha  occ. eigenvalues --   -0.87743  -0.87079  -0.84035  -0.83768  -0.83115
 Alpha  occ. eigenvalues --   -0.82859  -0.82622  -0.82599  -0.82169  -0.82037
 Alpha  occ. eigenvalues --   -0.81540  -0.81464  -0.80865  -0.80722  -0.78671
 Alpha  occ. eigenvalues --   -0.78198  -0.78098  -0.77773  -0.76773  -0.76487
 Alpha  occ. eigenvalues --   -0.75919  -0.75902  -0.75472  -0.75402  -0.74768
 Alpha  occ. eigenvalues --   -0.74611  -0.72977  -0.72618  -0.72122  -0.71756
 Alpha  occ. eigenvalues --   -0.71661  -0.71038  -0.70851  -0.69854  -0.69603
 Alpha  occ. eigenvalues --   -0.69234  -0.67529  -0.67348  -0.66307  -0.65739
 Alpha  occ. eigenvalues --   -0.63518  -0.63409  -0.63175  -0.63068  -0.62603
 Alpha  occ. eigenvalues --   -0.61994  -0.61712  -0.61127  -0.60291  -0.59808
 Alpha  occ. eigenvalues --   -0.59728  -0.59639  -0.59490  -0.59334  -0.59013
 Alpha  occ. eigenvalues --   -0.58690  -0.57010  -0.56908  -0.55144  -0.54892
 Alpha  occ. eigenvalues --   -0.54457  -0.54112  -0.53634  -0.53558  -0.53144
 Alpha  occ. eigenvalues --   -0.53013  -0.52548  -0.52323  -0.52270  -0.51812
 Alpha  occ. eigenvalues --   -0.51106  -0.50692  -0.50123  -0.49876  -0.49797
 Alpha  occ. eigenvalues --   -0.49754  -0.49592  -0.48936  -0.48530  -0.48379
 Alpha  occ. eigenvalues --   -0.47981  -0.47973  -0.47619  -0.47490  -0.47379
 Alpha  occ. eigenvalues --   -0.47129  -0.47117  -0.47023  -0.46911  -0.46684
 Alpha  occ. eigenvalues --   -0.46682  -0.46615  -0.46329  -0.45892  -0.45885
 Alpha  occ. eigenvalues --   -0.45758  -0.45442  -0.45203  -0.45047  -0.44993
 Alpha  occ. eigenvalues --   -0.44830  -0.44655  -0.44498  -0.44438  -0.44241
 Alpha  occ. eigenvalues --   -0.44164  -0.43748  -0.43600  -0.43480  -0.43227
 Alpha  occ. eigenvalues --   -0.43091  -0.42988  -0.42865  -0.42800  -0.42703
 Alpha  occ. eigenvalues --   -0.42495  -0.42390  -0.42272  -0.42131  -0.42013
 Alpha  occ. eigenvalues --   -0.41845  -0.41822  -0.41448  -0.41408  -0.41348
 Alpha  occ. eigenvalues --   -0.41260  -0.41057  -0.40974  -0.40727  -0.40693
 Alpha  occ. eigenvalues --   -0.39995  -0.39986  -0.39812  -0.39751  -0.39573
 Alpha  occ. eigenvalues --   -0.39452  -0.39377  -0.39223  -0.39217  -0.38987
 Alpha  occ. eigenvalues --   -0.38873  -0.38712  -0.38494  -0.38413  -0.38153
 Alpha  occ. eigenvalues --   -0.38129  -0.37999  -0.37812  -0.37475  -0.37387
 Alpha  occ. eigenvalues --   -0.37247  -0.37178  -0.37161  -0.36812  -0.36790
 Alpha  occ. eigenvalues --   -0.36696  -0.36406  -0.36298  -0.35932  -0.35929
 Alpha  occ. eigenvalues --   -0.35761  -0.35588  -0.35355  -0.35315  -0.35307
 Alpha  occ. eigenvalues --   -0.35284  -0.34979  -0.34943  -0.34585  -0.33637
 Alpha  occ. eigenvalues --   -0.33264  -0.33232  -0.33005  -0.32665  -0.32576
 Alpha  occ. eigenvalues --   -0.32336  -0.32254  -0.32062  -0.31872  -0.31605
 Alpha  occ. eigenvalues --   -0.31412  -0.31239  -0.29841  -0.29411  -0.29398
 Alpha  occ. eigenvalues --   -0.28935  -0.28428  -0.28070  -0.27137  -0.27012
 Alpha  occ. eigenvalues --   -0.26410  -0.26320  -0.25948  -0.25530  -0.25449
 Alpha  occ. eigenvalues --   -0.25220  -0.25208  -0.24529  -0.21212  -0.20938
 Alpha  occ. eigenvalues --   -0.18717  -0.18606
 Alpha virt. eigenvalues --   -0.11416  -0.10990  -0.05256  -0.05149  -0.04099
 Alpha virt. eigenvalues --   -0.03468  -0.02147  -0.01544   0.00085   0.00620
 Alpha virt. eigenvalues --    0.00807   0.01184   0.01235   0.01540   0.01839

 Mulliken charges:
               1
     1  Mg  12.000000
     2  C    6.000000
     3  C    6.000000
     4  C    6.000000
     5  C    6.000000
     6  N    7.000000
     7  C    6.000000
     8  C    6.000000
     9  C    6.000000
    10  C    6.000000
    11  C    6.000000
    12  C    6.000000
    13  C    6.000000
    14  H    1.000000
    15  N    7.000000
    16  C    6.000000
    17  C    6.000000
    18  C    6.000000
    19  C    6.000000
    20  C    6.000000
    21  C    6.000000
    22  O    8.000000
    23  C    6.000000
    24  N    7.000000
    25  C    6.000000
    26  C    6.000000
    27  C    6.000000
    28  C    6.000000
    29  C    6.000000
    30  C    6.000000
    31  C    6.000000
    32  N    7.000000
    33  C    6.000000
    34  C    6.000000
    35  C    6.000000
    36  C    6.000000
    37  C    6.000000
    38  C    6.000000
    39  O    8.000000
    40  C    6.000000
    41  C    6.000000
    42  O    8.000000
    43  O    8.000000
    44  C    6.000000
    45  H    1.000000
    46  H    1.000000
    47  H    1.000000
    48  H    1.000000
    49  H    1.000000
    50  H    1.000000
    51  H    1.000000
    52  H    1.000000
    53  H    1.000000
    54  H    1.000000
    55  H    1.000000
    56  H    1.000000
    57  H    1.000000
    58  H    1.000000
    59  H    1.000000
    60  H    1.000000
    61  H    1.000000
    62  H    1.000000
    63  H    1.000000
    64  H    1.000000
    65  H    1.000000
    66  H    1.000000
    67  H    1.000000
    68  H    1.000000
    69  H    1.000000
    70  H    1.000000
    71  H    1.000000
    72  H    1.000000
    73  H    1.000000
    74  H    1.000000
    75  H    1.000000
    76  H    1.000000
    77  H    1.000000
    78  H    1.000000
    79  H    1.000000
    80  Mg  12.000000
    81  C    6.000000
    82  C    6.000000
    83  C    6.000000
    84  C    6.000000
    85  N    7.000000
    86  C    6.000000
    87  C    6.000000
    88  C    6.000000
    89  C    6.000000
    90  C    6.000000
    91  C    6.000000
    92  C    6.000000
    93  H    1.000000
    94  N    7.000000
    95  C    6.000000
    96  C    6.000000
    97  C    6.000000
    98  C    6.000000
    99  C    6.000000
   100  C    6.000000
   101  O    8.000000
   102  C    6.000000
   103  N    7.000000
   104  C    6.000000
   105  C    6.000000
   106  C    6.000000
   107  C    6.000000
   108  C    6.000000
   109  C    6.000000
   110  C    6.000000
   111  N    7.000000
   112  C    6.000000
   113  C    6.000000
   114  C    6.000000
   115  C    6.000000
   116  C    6.000000
   117  C    6.000000
   118  O    8.000000
   119  C    6.000000
   120  C    6.000000
   121  O    8.000000
   122  O    8.000000
   123  C    6.000000
   124  H    1.000000
   125  H    1.000000
   126  H    1.000000
   127  H    1.000000
   128  H    1.000000
   129  H    1.000000
   130  H    1.000000
   131  H    1.000000
   132  H    1.000000
   133  H    1.000000
   134  H    1.000000
   135  H    1.000000
   136  H    1.000000
   137  H    1.000000
   138  H    1.000000
   139  H    1.000000
   140  H    1.000000
   141  H    1.000000
   142  H    1.000000
   143  H    1.000000
   144  H    1.000000
   145  H    1.000000
   146  H    1.000000
   147  H    1.000000
   148  H    1.000000
   149  H    1.000000
   150  H    1.000000
   151  H    1.000000
   152  H    1.000000
   153  H    1.000000
   154  H    1.000000
   155  H    1.000000
   156  H    1.000000
   157  H    1.000000
   158  H    1.000000
 Sum of Mulliken charges = 624.00000

 Dipole moment (field-independent basis, Debye):
    X=             -0.0000    Y=             -0.0000    Z=             -0.0000  Tot=              0.0000
 Quadrupole moment (field-independent basis, Debye-Ang):
   XX=             -0.0000   YY=             -0.0000   ZZ=              0.0000
   XY=              0.0000   XZ=             -0.0000   YZ=             -0.0000

 Normal termination of Gaussian 16 at Fri Oct 15 02:55:02 2021.
