 Gaussian 16, Revision A.03,
 Gaussian 16:  ES64L-G16RevA.03 25-Dec-2016

 --------------------------------------------------------
 #p PBE1PBE/Def2SVP td=(nstates=5) density=(transition=1)
 --------------------------------------------------------

 --------------------------------
 TDDFT excited states in gaussian
 --------------------------------
 Symbolic Z-matrix:
 Charge =  0 Multiplicity = 1

                         Standard orientation:
 ---------------------------------------------------------------------
 Center     Atomic      Atomic             Coordinates (Angstroms)
 Number     Number       Type             X           Y           Z
 ---------------------------------------------------------------------
      1         12           0       19.492900    0.248253    0.496817
      2          6           0       17.493224   -1.346894   -2.065443
      3          6           0       20.576450    2.184328   -1.851568
      4          6           0       21.431444    1.378314    2.910850
      5          6           0       18.777372   -2.504103    2.760046
      6          7           0       18.954289    0.454396   -1.726961
      7          6           0       18.148094   -0.265760   -2.583860
      8          6           0       18.249112    0.274597   -3.964687
      9          6           0       19.585087    1.061082   -3.949291
     10          6           0       19.764335    1.223093   -2.421345
     11          6           0       20.779829    0.300735   -4.565536
     12          6           0       17.074570    1.265484   -4.228360
     13          6           0       16.347858    1.138410   -5.623117
     14          1           0       14.896495    1.733809   -5.815662
     15          7           0       20.848453    1.708550    0.495976
     16          6           0       21.099029    2.486134   -0.523467
     17          6           0       22.017588    3.521160   -0.087978
     18          6           0       22.132805    3.322052    1.308005
     19          6           0       21.472963    2.080372    1.608159
     20          6           0       22.485201    4.622976   -1.056144
     21          6           0       22.867638    4.206004    2.276847
     22          8           0       22.921107    3.915009    3.434356
     23          6           0       23.439713    5.499052    1.794519
     24          7           0       20.230911   -0.683759    2.502164
     25          6           0       20.902004    0.153543    3.290321
     26          6           0       20.942584   -0.315206    4.696282
     27          6           0       20.228749   -1.697426    4.560958
     28          6           0       19.680379   -1.679557    3.158570
     29          6           0       22.332958   -0.328908    5.427663
     30          6           0       19.136884   -1.887003    5.685142
     31          6           0       19.412089   -2.852749    6.871327
     32          7           0       18.439716   -1.494242    0.455471
     33          6           0       18.149022   -2.481634    1.423253
     34          6           0       17.217844   -3.473921    0.847639
     35          6           0       16.956069   -3.044231   -0.446453
     36          6           0       17.712760   -1.908480   -0.680091
     37          6           0       16.785279   -4.793398    1.531709
     38          6           0       16.165585   -3.410321   -1.665503
     39          8           0       15.370961   -4.285178   -1.917221
     40          6           0       16.620489   -2.405946   -2.838973
     41          6           0       15.512159   -1.924299   -3.578587
     42          8           0       14.937494   -0.865832   -3.287983
     43          8           0       15.065776   -2.719926   -4.629168
     44          6           0       14.035178   -2.173076   -5.564201
     45          1           0       20.988125    2.929600   -2.534431
     46          1           0       22.023726    1.788472    3.731358
     47          1           0       18.545022   -3.332667    3.430830
     48          1           0       18.376057   -0.542987   -4.674776
     49          1           0       19.588117    2.024698   -4.458365
     50          1           0       21.184805    0.850461   -5.415701
     51          1           0       20.403315   -0.668351   -4.891645
     52          1           0       21.590908    0.086390   -3.869045
     53          1           0       17.529688    2.254219   -4.167485
     54          1           0       16.391484    1.144744   -3.387821
     55          1           0       16.348050    0.084039   -5.898195
     56          1           0       17.031701    1.671345   -6.284824
     57          1           0       22.086045    5.576961   -0.709198
     58          1           0       22.250530    4.465335   -2.108286
     59          1           0       23.557907    4.783002   -0.951386
     60          1           0       22.674484    6.182171    1.426842
     61          1           0       24.088950    5.453459    0.920225
     62          1           0       23.904248    6.011151    2.637542
     63          1           0       20.296306    0.341069    5.279160
     64          1           0       20.978057   -2.489274    4.551814
     65          1           0       23.038843    0.145280    4.746566
     66          1           0       22.685264   -1.285005    5.816386
     67          1           0       22.246919    0.266977    6.336456
     68          1           0       18.224785   -2.272259    5.228528
     69          1           0       18.812151   -0.874222    5.923699
     70          1           0       19.134646   -2.373786    7.810185
     71          1           0       20.464612   -3.136629    6.871558
     72          1           0       18.801714   -3.752397    6.784058
     73          1           0       16.751041   -4.612893    2.605747
     74          1           0       17.567375   -5.539968    1.391707
     75          1           0       15.819432   -5.146143    1.169287
     76          1           0       17.285123   -2.953425   -3.506630
     77          1           0       14.414133   -1.301322   -6.099491
     78          1           0       13.058395   -2.103857   -5.086954
     79          1           0       13.980177   -2.868773   -6.401411
     80         12           0      -19.474415   -0.384541   -0.171340
     81          6           0      -18.134734    2.812771    0.104091
     82          6           0      -16.339753   -1.494068   -1.154461
     83          6           0      -20.458483   -3.531998    0.053010
     84          6           0      -22.401210    0.744378    1.290831
     85          7           0      -17.443540    0.504175   -0.332684
     86          6           0      -17.165081    1.855367   -0.307502
     87          6           0      -15.766925    2.170200   -0.750611
     88          6           0      -15.358735    0.826126   -1.500372
     89          6           0      -16.398860   -0.141989   -0.952514
     90          6           0      -15.074731    0.784158   -3.076657
     91          6           0      -14.775517    2.658077    0.404853
     92          6           0      -14.991135    2.081707    1.835848
     93          1           0      -13.715359    1.725261    2.560378
     94          7           0      -18.502724   -2.276529   -0.389791
     95          6           0      -17.191739   -2.514383   -0.821024
     96          6           0      -16.884555   -3.918397   -0.825747
     97          6           0      -18.088160   -4.559416   -0.446917
     98          6           0      -19.092777   -3.480497   -0.208935
     99          6           0      -15.579094   -4.419947   -1.445146
    100          6           0      -18.202316   -6.099159   -0.374192
    101          8           0      -17.227624   -6.837737   -0.548097
    102          6           0      -19.552392   -6.634174   -0.141412
    103          7           0      -21.157350   -1.217513    0.693135
    104          6           0      -21.437058   -2.540021    0.392776
    105          6           0      -22.874574   -2.954195    0.777114
    106          6           0      -23.354041   -1.573475    1.386954
    107          6           0      -22.248547   -0.639353    1.167155
    108          6           0      -23.795440   -3.480209   -0.278232
    109          6           0      -23.671205   -1.660270    2.965024
    110          6           0      -24.979063   -0.988525    3.293272
    111          7           0      -20.267553    1.456596    0.397353
    112          6           0      -21.483490    1.758643    0.981959
    113          6           0      -21.564326    3.211861    1.254791
    114          6           0      -20.245762    3.674876    0.914488
    115          6           0      -19.534883    2.575670    0.418810
    116          6           0      -22.579188    3.993697    1.985296
    117          6           0      -19.291874    4.804415    0.911874
    118          8           0      -19.432582    5.927301    1.338155
    119          6           0      -17.920005    4.303935    0.355702
    120          6           0      -17.513629    5.110887   -0.795471
    121          8           0      -16.527446    5.832009   -0.948574
    122          8           0      -18.629854    5.166972   -1.670749
    123          6           0      -18.406760    5.896172   -2.937558
    124          1           0      -15.426941   -1.753310   -1.695803
    125          1           0      -20.954707   -4.501893   -0.019669
    126          1           0      -23.387751    1.008504    1.675850
    127          1           0      -15.771986    3.007915   -1.447881
    128          1           0      -14.414669    0.605150   -1.001729
    129          1           0      -15.085733    1.747259   -3.586659
    130          1           0      -15.813005    0.214662   -3.641066
    131          1           0      -14.041589    0.479596   -3.246113
    132          1           0      -14.734797    3.746250    0.440113
    133          1           0      -13.772671    2.392474    0.070490
    134          1           0      -15.650822    1.213970    1.806207
    135          1           0      -15.487677    2.823562    2.460698
    136          1           0      -15.197187   -5.333262   -0.987870
    137          1           0      -14.790523   -3.692987   -1.252530
    138          1           0      -15.804965   -4.610516   -2.494586
    139          1           0      -20.151087   -6.462124   -1.035379
    140          1           0      -19.983960   -6.170916    0.746410
    141          1           0      -19.407807   -7.704087    0.008257
    142          1           0      -22.802162   -3.606802    1.647463
    143          1           0      -24.131579   -1.268234    0.686723
    144          1           0      -24.786109   -3.498499    0.176314
    145          1           0      -23.534154   -4.526731   -0.435266
    146          1           0      -23.718518   -2.880855   -1.186178
    147          1           0      -22.818270   -1.210978    3.473523
    148          1           0      -23.654634   -2.650900    3.421182
    149          1           0      -24.756037   -0.084976    3.860177
    150          1           0      -25.548294   -1.533798    4.046836
    151          1           0      -25.465434   -0.659020    2.375364
    152          1           0      -23.438533    3.431289    2.353450
    153          1           0      -22.977520    4.708347    1.265921
    154          1           0      -22.009454    4.268663    2.872705
    155          1           0      -17.228959    4.424625    1.189634
    156          1           0      -18.853962    5.219712   -3.666822
    157          1           0      -17.400082    6.142095   -3.275644
    158          1           0      -19.119379    6.720401   -2.901987
 ---------------------------------------------------------------------

 SCF Done:  E(RPBE1PBE) =  -4067.34643470     A.U. after   16 cycles

 Excitation energies and oscillator strengths:

 Excited State   1:      Singlet-A      1.8711 eV  662.64 nm  f=0.3373  <S**2>=0.000
     309 -> 315        0.17662
     312 -> 314        0.68835
     312 <- 314       -0.10374
 This state for optimization and/or second-order correction.
 Total Energy, E(TD-HF/TD-DFT) =  -4067.27767400
 Copying the excited state density for this state as the 1-particle RhoCI density.

 Excited State   2:      Singlet-A      1.8807 eV  659.24 nm  f=0.3870  <S**2>=0.000
     310 -> 316        0.15900
     311 -> 313        0.69420
     311 <- 313       -0.10979

 Excited State   3:      Singlet-A      1.9275 eV  643.25 nm  f=0.0000  <S**2>=0.000
     312 -> 313        0.70710

 Excited State   4:      Singlet-A      2.0774 eV  596.83 nm  f=0.0000  <S**2>=0.000
     311 -> 314        0.70711

 Excited State   5:      Singlet-A      2.2140 eV  560.00 nm  f=0.0898  <S**2>=0.000
     309 -> 314        0.64338
     312 -> 315       -0.27396

 The electronic state is 1-A.
 Alpha  occ. eigenvalues --  -46.92820 -46.92465 -19.24986 -19.24650 -19.20729
 Alpha  occ. eigenvalues --  -19.20058 -19.19217 -19.19142 -19.19078 -19.18780
 Alpha  occ. eigenvalues --  -14.41720 -14.41652 -14.41174 -14.39722 -14.39671
 Alpha  occ. eigenvalues --  -14.39218 -14.39213 -14.38856 -10.36708 -10.35504
 Alpha  occ. eigenvalues --  -10.33317 -10.32321 -10.32140 -10.32008 -10.29299
 Alpha  occ. eigenvalues --  -10.28930 -10.28875 -10.28498 -10.28493 -10.28492
 Alpha  occ. eigenvalues --  -10.28234 -10.28221 -10.27990 -10.27925 -10.27923
 Alpha  occ. eigenvalues --  -10.27911 -10.27870 -10.27504 -10.27449 -10.26893
 Alpha  occ. eigenvalues --  -10.26686 -10.26642 -10.26628 -10.26462 -10.26437
 Alpha  occ. eigenvalues --  -10.26310 -10.26262 -10.26001 -10.25973 -10.25952
 Alpha  occ. eigenvalues --  -10.25931 -10.25885 -10.25848 -10.25804 -10.25741
 Alpha  occ. eigenvalues --  -10.25703 -10.25540 -10.25395 -10.25324 -10.24918
 Alpha  occ. eigenvalues --  -10.24824 -10.24731 -10.24666 -10.24591 -10.24566
 Alpha  occ. eigenvalues --  -10.24509 -10.24508 -10.24419 -10.24396 -10.24331
 Alpha  occ. eigenvalues --  -10.23916 -10.23699 -10.23696 -10.23667 -10.23641
 Alpha  occ. eigenvalues --  -10.23590 -10.23460 -10.23395 -10.23308 -10.23244
 Alpha  occ. eigenvalues --  -10.23242 -10.23188 -10.23184 -10.23160 -10.23124
 Alpha  occ. eigenvalues --  -10.22996  -3.14924  -3.14571  -1.87749  -1.87395
 Alpha  occ. eigenvalues --   -1.87303  -1.87148  -1.86960  -1.86786  -1.09511
 Alpha  occ. eigenvalues --   -1.08944  -1.06689  -1.05800  -1.05156  -1.03994
 Alpha  occ. eigenvalues --   -1.01695  -1.00888  -1.00481  -0.99658  -0.99601
 Alpha  occ. eigenvalues --   -0.99465  -0.98327  -0.97813  -0.96933  -0.95913
 Alpha  occ. eigenvalues --   -0.86793  -0.85693  -0.83928  -0.83531  -0.83488
 Alpha  occ. eigenvalues --   -0.83231  -0.82282  -0.82249  -0.81958  -0.81919
 Alpha  occ. eigenvalues --   -0.81768  -0.81219  -0.80402  -0.79716  -0.79008
 Alpha  occ. eigenvalues --   -0.78736  -0.78646  -0.77377  -0.76922  -0.76545
 Alpha  occ. eigenvalues --   -0.76313  -0.76043  -0.75306  -0.75162  -0.74705
 Alpha  occ. eigenvalues --   -0.74468  -0.72923  -0.72661  -0.71750  -0.71442
 Alpha  occ. eigenvalues --   -0.71062  -0.71059  -0.70500  -0.70481  -0.70064
 Alpha  occ. eigenvalues --   -0.69727  -0.67353  -0.67084  -0.66550  -0.65522
 Alpha  occ. eigenvalues --   -0.63717  -0.63636  -0.63505  -0.63203  -0.62554
 Alpha  occ. eigenvalues --   -0.62389  -0.61676  -0.61216  -0.60836  -0.60471
 Alpha  occ. eigenvalues --   -0.60059  -0.59590  -0.59338  -0.59046  -0.58812
 Alpha  occ. eigenvalues --   -0.58517  -0.57045  -0.55873  -0.55629  -0.54765
 Alpha  occ. eigenvalues --   -0.54675  -0.53950  -0.53647  -0.53512  -0.52863
 Alpha  occ. eigenvalues --   -0.52552  -0.52188  -0.52084  -0.51784  -0.51744
 Alpha  occ. eigenvalues --   -0.51044  -0.50861  -0.50333  -0.50317  -0.50110
 Alpha  occ. eigenvalues --   -0.49874  -0.49610  -0.49081  -0.48551  -0.48429
 Alpha  occ. eigenvalues --   -0.48351  -0.47928  -0.47578  -0.47353  -0.47230
 Alpha  occ. eigenvalues --   -0.47094  -0.46995  -0.46993  -0.46692  -0.46645
 Alpha  occ. eigenvalues --   -0.46461  -0.46344  -0.46229  -0.45959  -0.45690
 Alpha  occ. eigenvalues --   -0.45360  -0.45028  -0.44947  -0.44910  -0.44754
 Alpha  occ. eigenvalues --   -0.44617  -0.44438  -0.44278  -0.44270  -0.44178
 Alpha  occ. eigenvalues --   -0.44022  -0.43850  -0.43842  -0.43528  -0.43455
 Alpha  occ. eigenvalues --   -0.43373  -0.43156  -0.42988  -0.42914  -0.42759
 Alpha  occ. eigenvalues --   -0.42479  -0.42372  -0.42360  -0.42218  -0.42102
 Alpha  occ. eigenvalues --   -0.41867  -0.41616  -0.41214  -0.41124  -0.40946
 Alpha  occ. eigenvalues --   -0.40937  -0.40894  -0.40586  -0.40431  -0.40366
 Alpha  occ. eigenvalues --   -0.40219  -0.40118  -0.39859  -0.39776  -0.39675
 Alpha  occ. eigenvalues --   -0.39662  -0.39608  -0.39484  -0.39380  -0.39379
 Alpha  occ. eigenvalues --   -0.39065  -0.38785  -0.38704  -0.38251  -0.38247
 Alpha  occ. eigenvalues --   -0.38167  -0.37934  -0.37922  -0.37804  -0.37657
 Alpha  occ. eigenvalues --   -0.37652  -0.37306  -0.37298  -0.37144  -0.36969
 Alpha  occ. eigenvalues --   -0.36747  -0.36722  -0.36569  -0.36490  -0.36219
 Alpha  occ. eigenvalues --   -0.36063  -0.35901  -0.35416  -0.35298  -0.35288
 Alpha  occ. eigenvalues --   -0.35095  -0.34839  -0.34832  -0.34760  -0.34024
 Alpha  occ. eigenvalues --   -0.33486  -0.33281  -0.32931  -0.32645  -0.32411
 Alpha  occ. eigenvalues --   -0.32049  -0.31924  -0.31568  -0.31535  -0.31172
 Alpha  occ. eigenvalues --   -0.30681  -0.30535  -0.30275  -0.29680  -0.28859
 Alpha  occ. eigenvalues --   -0.28786  -0.28339  -0.27696  -0.27233  -0.26884
 Alpha  occ. eigenvalues --   -0.26564  -0.26128  -0.26008  -0.25855  -0.25720
 Alpha  occ. eigenvalues --   -0.25501  -0.25487  -0.25313  -0.20972  -0.20518
 Alpha  occ. eigenvalues --   -0.19111  -0.18839
 Alpha virt. eigenvalues --   -0.11418  -0.11133  -0.05684  -0.04017  -0.03502
 Alpha virt. eigenvalues --   -0.03312  -0.01927  -0.01792  -0.01087  -0.00475
 Alpha virt. eigenvalues --   -0.00466  -0.00043   0.00828   0.01042   0.02053

 Mulliken charges:
               1
     1  Mg  12.000195
     2  C    5.998639
     3  C    5.999891
     4  C    6.000916
     5  C    5.999503
     6  N    6.998893
     7  C    6.001913
     8  C    5.999610
     9  C    6.000432
    10  C    5.998449
    11  C    6.000317
    12  C    5.999793
    13  C    5.999869
    14  H    1.000124
    15  N    7.000665
    16  C    5.997828
    17  C    5.998450
    18  C    5.999309
    19  C    5.997815
    20  C    6.000213
    21  C    5.999130
    22  O    7.998343
    23  C    6.000415
    24  N    6.999968
    25  C    5.998036
    26  C    6.000816
    27  C    5.999346
    28  C    6.001418
    29  C    5.999987
    30  C    5.999882
    31  C    6.000027
    32  N    7.000194
    33  C    6.002555
    34  C    6.002270
    35  C    5.999856
    36  C    6.002327
    37  C    6.000046
    38  C    6.001097
    39  O    8.001685
    40  C    6.000332
    41  C    6.000225
    42  O    8.000570
    43  O    8.000020
    44  C    5.999816
    45  H    0.999170
    46  H    0.999543
    47  H    1.000696
    48  H    0.999909
    49  H    0.999909
    50  H    0.999788
    51  H    0.999072
    52  H    1.000125
    53  H    1.000873
    54  H    0.999738
    55  H    0.999804
    56  H    1.000348
    57  H    0.998740
    58  H    0.998873
    59  H    0.998785
    60  H    0.999479
    61  H    0.999592
    62  H    0.999003
    63  H    0.999896
    64  H    1.000179
    65  H    1.000409
    66  H    0.999443
    67  H    0.999862
    68  H    0.999528
    69  H    1.000471
    70  H    1.000270
    71  H    1.000250
    72  H    0.999839
    73  H    1.001170
    74  H    1.001474
    75  H    1.001169
    76  H    1.000536
    77  H    1.000344
    78  H    1.000210
    79  H    1.000318
    80  Mg  12.001832
    81  C    5.979499
    82  C    6.009962
    83  C    6.028170
    84  C    5.992123
    85  N    6.993794
    86  C    6.031535
    87  C    5.989236
    88  C    6.011394
    89  C    5.968752
    90  C    6.003837
    91  C    5.997620
    92  C    5.995910
    93  H    1.007414
    94  N    7.005158
    95  C    5.961798
    96  C    5.981247
    97  C    5.987758
    98  C    5.962937
    99  C    6.002114
   100  C    5.986966
   101  O    7.980784
   102  C    6.004194
   103  N    7.002082
   104  C    5.960055
   105  C    6.015754
   106  C    5.988473
   107  C    6.033346
   108  C    6.002668
   109  C    5.995796
   110  C    5.999979
   111  N    6.999225
   112  C    6.032667
   113  C    6.030875
   114  C    6.003335
   115  C    6.027308
   116  C    5.998174
   117  C    6.016102
   118  O    8.026368
   119  C    6.001479
   120  C    6.007419
   121  O    8.009046
   122  O    7.994104
   123  C    5.997855
   124  H    0.987894
   125  H    0.994346
   126  H    1.011202
   127  H    0.999585
   128  H    0.995057
   129  H    0.986694
   130  H    1.000225
   131  H    0.997075
   132  H    0.995964
   133  H    1.008094
   134  H    1.007058
   135  H    0.993287
   136  H    0.985515
   137  H    0.985636
   138  H    0.982933
   139  H    0.991031
   140  H    0.990206
   141  H    0.987718
   142  H    0.998631
   143  H    1.001011
   144  H    0.991452
   145  H    1.005159
   146  H    0.995567
   147  H    0.999852
   148  H    1.012113
   149  H    0.996318
   150  H    1.005362
   151  H    1.000477
   152  H    1.017502
   153  H    1.017002
   154  H    1.015371
   155  H    1.006554
   156  H    1.004823
   157  H    1.006300
   158  H    1.000846
 Sum of Mulliken charges = 624.00000

 Dipole moment (field-independent basis, Debye):
    X=             -4.7847    Y=              8.1115    Z=              2.5246  Tot=              9.7500
 Quadrupole moment (field-independent basis, Debye-Ang):
   XX=            151.2124   YY=             -6.0143   ZZ=              1.5499
   XY=           -174.8559   XZ=            -50.1666   YZ=             -0.2296

 Normal termination of Gaussian 16 at Thu Oct 14 19:47:03 2021.
