 Gaussian 16, Revision A.03,
 Gaussian 16:  ES64L-G16RevA.03 25-Dec-2016

 --------------------------------------------------------
 #p PBE1PBE/Def2SVP td=(nstates=5) density=(transition=1)
 --------------------------------------------------------

 --------------------------------
 TDDFT excited states in gaussian
 --------------------------------
 Symbolic Z-matrix:
 Charge =  0 Multiplicity = 1

                         Standard orientation:
 ---------------------------------------------------------------------
 Center     Atomic      Atomic             Coordinates (Angstroms)
 Number     Number       Type             X           Y           Z
 ---------------------------------------------------------------------
      1         12           0      -20.844347   -0.519413   -0.034613
      2          6           0      -20.289555    2.621547   -1.311480
      3          6           0      -20.789441    0.911258    3.222654
      4          6           0      -20.847685   -3.581829    1.397611
      5          6           0      -20.562235   -1.903024   -3.077091
      6          7           0      -20.563954    1.544879    0.846424
      7          6           0      -20.337731    2.660304    0.085496
      8          6           0      -20.302677    3.920300    0.953320
      9          6           0      -20.269402    3.273595    2.414494
     10          6           0      -20.554613    1.822265    2.160613
     11          6           0      -18.951396    3.569251    3.220191
     12          6           0      -21.560965    4.880242    0.741184
     13          6           0      -21.431560    6.380627    0.633994
     14          1           0      -20.584282    7.090817    1.629138
     15          7           0      -20.874641   -1.274783    2.040110
     16          6           0      -21.027870   -0.553027    3.172048
     17          6           0      -21.264052   -1.393261    4.297960
     18          6           0      -21.320183   -2.729414    3.789838
     19          6           0      -20.934480   -2.556095    2.357521
     20          6           0      -21.353335   -0.767329    5.652307
     21          6           0      -21.477264   -4.032422    4.554969
     22          8           0      -21.231919   -5.131212    4.047478
     23          6           0      -21.931192   -4.018713    6.004103
     24          7           0      -20.566808   -2.512821   -0.731235
     25          6           0      -20.742679   -3.610631    0.050368
     26          6           0      -20.785498   -4.878416   -0.801053
     27          6           0      -20.870322   -4.293773   -2.262140
     28          6           0      -20.662596   -2.811423   -2.022040
     29          6           0      -19.734134   -6.012161   -0.615449
     30          6           0      -22.163241   -4.660507   -3.103732
     31          6           0      -23.366479   -3.741511   -3.100754
     32          7           0      -20.404322    0.152212   -1.811646
     33          6           0      -20.449684   -0.460445   -3.038215
     34          6           0      -20.139610    0.408764   -4.114113
     35          6           0      -20.114838    1.654318   -3.494554
     36          6           0      -20.303263    1.446017   -2.103980
     37          6           0      -19.984010    0.197254   -5.614444
     38          6           0      -19.933188    3.027658   -3.676411
     39          8           0      -19.668585    3.622143   -4.705159
     40          6           0      -20.010427    3.791378   -2.237835
     41          6           0      -18.732756    4.457349   -2.016731
     42          8           0      -17.630815    3.894001   -1.863928
     43          8           0      -18.818873    5.813803   -2.038347
     44          6           0      -17.585200    6.600517   -2.147379
     45          1           0      -20.839717    1.471481    4.158248
     46          1           0      -21.131825   -4.556193    1.800004
     47          1           0      -20.828676   -2.250736   -4.076639
     48          1           0      -19.433765    4.512474    0.663396
     49          1           0      -21.044635    3.696184    3.053882
     50          1           0      -19.233135    4.094196    4.132320
     51          1           0      -18.318604    4.112828    2.518408
     52          1           0      -18.441628    2.691509    3.618598
     53          1           0      -22.157764    4.639588    1.621142
     54          1           0      -22.217948    4.495826   -0.038292
     55          1           0      -22.419376    6.834998    0.557725
     56          1           0      -20.890406    6.556995   -0.294900
     57          1           0      -22.217177   -1.239172    6.119118
     58          1           0      -21.588890    0.294281    5.573475
     59          1           0      -20.476395   -0.872530    6.291973
     60          1           0      -22.743000   -3.320034    6.208527
     61          1           0      -21.060720   -3.974033    6.660049
     62          1           0      -22.367577   -5.006802    6.153314
     63          1           0      -21.695283   -5.371307   -0.457673
     64          1           0      -20.124458   -4.721173   -2.931249
     65          1           0      -19.060617   -6.046193   -1.471667
     66          1           0      -20.297493   -6.944175   -0.573056
     67          1           0      -19.219376   -5.785702    0.317629
     68          1           0      -22.494918   -5.634815   -2.747407
     69          1           0      -21.899097   -4.766133   -4.156197
     70          1           0      -24.284088   -4.275296   -2.852307
     71          1           0      -23.522449   -3.223092   -4.047741
     72          1           0      -23.145335   -2.998729   -2.334265
     73          1           0      -20.190442   -0.847538   -5.849743
     74          1           0      -18.973324    0.477820   -5.911990
     75          1           0      -20.694983    0.842870   -6.129232
     76          1           0      -20.770913    4.540142   -2.461345
     77          1           0      -17.730044    7.599143   -2.559757
     78          1           0      -16.744037    6.093221   -2.618860
     79          1           0      -17.321950    6.847668   -1.118809
     80         12           0       20.216908   -0.939978   -0.118594
     81          6           0       22.225310    2.124436   -0.004194
     82          6           0       17.666968    0.927207    1.393810
     83          6           0       18.495804   -3.696288    0.142434
     84          6           0       22.782281   -2.517914   -1.758991
     85          7           0       20.049583    1.180330    0.786892
     86          6           0       20.940304    2.321079    0.613083
     87          6           0       20.413258    3.625411    1.248816
     88          6           0       19.001315    3.067456    1.861680
     89          6           0       18.859314    1.620867    1.349060
     90          6           0       18.904817    3.174815    3.371141
     91          6           0       20.335400    4.762264    0.185318
     92          6           0       19.566377    5.979872    0.601873
     93          1           0       20.120546    7.355778    0.306155
     94          7           0       18.320984   -1.373859    0.686705
     95          6           0       17.410378   -0.478430    1.259058
     96          6           0       16.186971   -1.188700    1.627129
     97          6           0       16.401897   -2.579423    1.257492
     98          6           0       17.785803   -2.637280    0.657025
     99          6           0       14.891851   -0.512179    2.208912
    100          6           0       15.552050   -3.786234    1.431720
    101          8           0       15.841079   -4.910088    1.042924
    102          6           0       14.202783   -3.660778    2.008009
    103          7           0       20.530566   -2.763122   -0.782511
    104          6           0       19.741292   -3.788201   -0.456078
    105          6           0       20.243412   -5.134678   -1.028089
    106          6           0       21.328342   -4.661099   -1.972911
    107          6           0       21.636409   -3.209089   -1.437758
    108          6           0       20.758904   -6.089115    0.042821
    109          6           0       21.158894   -4.641001   -3.470011
    110          6           0       20.071973   -3.708949   -3.961341
    111          7           0       22.148741   -0.398733   -0.677905
    112          6           0       23.050325   -1.155496   -1.447911
    113          6           0       24.237972   -0.370942   -1.679918
    114          6           0       23.865589    0.904473   -1.182718
    115          6           0       22.599684    0.849916   -0.568917
    116          6           0       25.468988   -0.740419   -2.454924
    117          6           0       24.382491    2.306315   -1.113711
    118          8           0       25.397524    2.830231   -1.620426
    119          6           0       23.338984    3.092350   -0.323035
    120          6           0       23.993776    3.761630    0.887182
    121          8           0       24.547262    3.249908    1.904862
    122          8           0       23.755301    5.099572    0.775820
    123          6           0       24.237230    5.933871    1.899896
    124          1           0       16.816650    1.551502    1.672591
    125          1           0       17.965259   -4.641268    0.276200
    126          1           0       23.648497   -2.961845   -2.254249
    127          1           0       21.184729    3.925302    1.957978
    128          1           0       18.176829    3.579046    1.365050
    129          1           0       18.037018    3.786647    3.619148
    130          1           0       19.809562    3.685220    3.699416
    131          1           0       19.036649    2.261720    3.951237
    132          1           0       19.997697    4.278795   -0.732025
    133          1           0       21.349956    5.083609   -0.050616
    134          1           0       19.371238    6.101692    1.667073
    135          1           0       18.622692    6.009099    0.057926
    136          1           0       14.123182   -0.699731    1.458638
    137          1           0       14.989095    0.564487    2.347490
    138          1           0       14.684373   -1.018368    3.151773
    139          1           0       14.154913   -3.010104    2.881426
    140          1           0       13.955364   -4.681203    2.298496
    141          1           0       13.643672   -3.126521    1.240454
    142          1           0       19.394786   -5.604229   -1.525668
    143          1           0       22.233352   -5.263903   -1.892431
    144          1           0       20.426889   -7.096614   -0.205135
    145          1           0       20.367927   -5.828305    1.025715
    146          1           0       21.845662   -6.163360   -0.010480
    147          1           0       21.032813   -5.670802   -3.805376
    148          1           0       22.032336   -4.206146   -3.955630
    149          1           0       19.435878   -4.181342   -4.708993
    150          1           0       20.468621   -2.830666   -4.471136
    151          1           0       19.394999   -3.357694   -3.182505
    152          1           0       25.674414    0.026424   -3.201417
    153          1           0       25.527005   -1.688099   -2.990253
    154          1           0       26.294279   -0.761242   -1.742886
    155          1           0       22.989194    3.913852   -0.948892
    156          1           0       23.405886    6.174390    2.562231
    157          1           0       24.668074    6.752754    1.323766
    158          1           0       25.083188    5.483416    2.420658
 ---------------------------------------------------------------------

 SCF Done:  E(RPBE1PBE) =  -4067.41074740     A.U. after   17 cycles

 Excitation energies and oscillator strengths:

 Excited State   1:      Singlet-A      1.8175 eV  682.17 nm  f=0.3860  <S**2>=0.000
     309 -> 315        0.16209
     312 -> 313        0.69598
     312 <- 313       -0.11404
 This state for optimization and/or second-order correction.
 Total Energy, E(TD-HF/TD-DFT) =  -4067.34395558
 Copying the excited state density for this state as the 1-particle RhoCI density.

 Excited State   2:      Singlet-A      1.9305 eV  642.25 nm  f=0.0000  <S**2>=0.000
     311 -> 313        0.70711

 Excited State   3:      Singlet-A      1.9800 eV  626.20 nm  f=0.0000  <S**2>=0.000
     312 -> 314        0.70711

 Excited State   4:      Singlet-A      2.1799 eV  568.76 nm  f=0.1277  <S**2>=0.000
     309 -> 313        0.66144
     312 -> 315       -0.23369

 Excited State   5:      Singlet-A      2.4077 eV  514.95 nm  f=0.0000  <S**2>=0.000
     310 -> 313        0.70711

 The electronic state is 1-A.
 Alpha  occ. eigenvalues --  -46.92538 -46.91154 -19.26506 -19.25731 -19.20002
 Alpha  occ. eigenvalues --  -19.19080 -19.18956 -19.18893 -19.18784 -19.18761
 Alpha  occ. eigenvalues --  -14.42077 -14.41658 -14.41649 -14.41077 -14.39510
 Alpha  occ. eigenvalues --  -14.39213 -14.39185 -14.38664 -10.37087 -10.35953
 Alpha  occ. eigenvalues --  -10.32476 -10.31979 -10.31767 -10.31600 -10.29904
 Alpha  occ. eigenvalues --  -10.29201 -10.29038 -10.28890 -10.28857 -10.28785
 Alpha  occ. eigenvalues --  -10.28640 -10.28564 -10.28562 -10.28232 -10.28134
 Alpha  occ. eigenvalues --  -10.27844 -10.27821 -10.27725 -10.27724 -10.27713
 Alpha  occ. eigenvalues --  -10.27305 -10.26825 -10.26793 -10.26775 -10.26561
 Alpha  occ. eigenvalues --  -10.26547 -10.26451 -10.26329 -10.26317 -10.26095
 Alpha  occ. eigenvalues --  -10.25963 -10.25946 -10.25854 -10.25828 -10.25805
 Alpha  occ. eigenvalues --  -10.25783 -10.25697 -10.25467 -10.25400 -10.25389
 Alpha  occ. eigenvalues --  -10.25175 -10.25172 -10.25116 -10.25084 -10.24834
 Alpha  occ. eigenvalues --  -10.24696 -10.24518 -10.24460 -10.24326 -10.24307
 Alpha  occ. eigenvalues --  -10.23923 -10.23916 -10.23683 -10.23587 -10.23538
 Alpha  occ. eigenvalues --  -10.23435 -10.23326 -10.23249 -10.23234 -10.23052
 Alpha  occ. eigenvalues --  -10.22907 -10.22862 -10.22714 -10.22483 -10.22450
 Alpha  occ. eigenvalues --  -10.21966  -3.14727  -3.13470  -1.87550  -1.87061
 Alpha  occ. eigenvalues --   -1.86999  -1.86318  -1.85857  -1.85695  -1.10865
 Alpha  occ. eigenvalues --   -1.10651  -1.04885  -1.04749  -1.04165  -1.02689
 Alpha  occ. eigenvalues --   -1.00657  -1.00648  -1.00128  -0.99651  -0.99359
 Alpha  occ. eigenvalues --   -0.98814  -0.98165  -0.97695  -0.96717  -0.95145
 Alpha  occ. eigenvalues --   -0.87028  -0.86757  -0.83983  -0.83354  -0.83118
 Alpha  occ. eigenvalues --   -0.82942  -0.82568  -0.82492  -0.82207  -0.81727
 Alpha  occ. eigenvalues --   -0.81609  -0.81069  -0.80772  -0.80329  -0.79007
 Alpha  occ. eigenvalues --   -0.78617  -0.78397  -0.78074  -0.77213  -0.76970
 Alpha  occ. eigenvalues --   -0.76294  -0.76042  -0.75803  -0.75531  -0.74642
 Alpha  occ. eigenvalues --   -0.74394  -0.72703  -0.72650  -0.71836  -0.71611
 Alpha  occ. eigenvalues --   -0.71442  -0.71195  -0.70585  -0.70318  -0.69885
 Alpha  occ. eigenvalues --   -0.69798  -0.68049  -0.67285  -0.66321  -0.66027
 Alpha  occ. eigenvalues --   -0.64577  -0.64054  -0.63807  -0.63686  -0.62598
 Alpha  occ. eigenvalues --   -0.62046  -0.61617  -0.61571  -0.60075  -0.59718
 Alpha  occ. eigenvalues --   -0.59574  -0.59271  -0.59221  -0.58803  -0.58745
 Alpha  occ. eigenvalues --   -0.58370  -0.56882  -0.56574  -0.54759  -0.54658
 Alpha  occ. eigenvalues --   -0.54445  -0.53785  -0.53700  -0.53689  -0.52907
 Alpha  occ. eigenvalues --   -0.52905  -0.52477  -0.52277  -0.51939  -0.51922
 Alpha  occ. eigenvalues --   -0.50886  -0.50806  -0.50443  -0.49978  -0.49903
 Alpha  occ. eigenvalues --   -0.49776  -0.49623  -0.49367  -0.49344  -0.48936
 Alpha  occ. eigenvalues --   -0.48644  -0.47896  -0.47848  -0.47804  -0.47483
 Alpha  occ. eigenvalues --   -0.47334  -0.47269  -0.47156  -0.47069  -0.46797
 Alpha  occ. eigenvalues --   -0.46795  -0.46654  -0.46025  -0.45814  -0.45424
 Alpha  occ. eigenvalues --   -0.45408  -0.45156  -0.45098  -0.44991  -0.44856
 Alpha  occ. eigenvalues --   -0.44799  -0.44501  -0.44485  -0.44186  -0.43929
 Alpha  occ. eigenvalues --   -0.43911  -0.43707  -0.43503  -0.43466  -0.43452
 Alpha  occ. eigenvalues --   -0.43409  -0.43209  -0.43206  -0.42928  -0.42848
 Alpha  occ. eigenvalues --   -0.42742  -0.42565  -0.42412  -0.42170  -0.42148
 Alpha  occ. eigenvalues --   -0.41855  -0.41724  -0.41634  -0.41473  -0.41318
 Alpha  occ. eigenvalues --   -0.41244  -0.40969  -0.40893  -0.40757  -0.40695
 Alpha  occ. eigenvalues --   -0.40648  -0.40487  -0.40190  -0.40134  -0.39796
 Alpha  occ. eigenvalues --   -0.39684  -0.39269  -0.39242  -0.39137  -0.39078
 Alpha  occ. eigenvalues --   -0.38873  -0.38833  -0.38811  -0.38429  -0.38350
 Alpha  occ. eigenvalues --   -0.38239  -0.38006  -0.37898  -0.37775  -0.37470
 Alpha  occ. eigenvalues --   -0.37343  -0.37159  -0.37038  -0.36814  -0.36680
 Alpha  occ. eigenvalues --   -0.36608  -0.36472  -0.36401  -0.36222  -0.36072
 Alpha  occ. eigenvalues --   -0.36040  -0.35725  -0.35503  -0.35345  -0.34995
 Alpha  occ. eigenvalues --   -0.34837  -0.34785  -0.34512  -0.34191  -0.33991
 Alpha  occ. eigenvalues --   -0.33837  -0.33469  -0.33244  -0.32360  -0.32324
 Alpha  occ. eigenvalues --   -0.32167  -0.31808  -0.31706  -0.31575  -0.31177
 Alpha  occ. eigenvalues --   -0.31150  -0.30617  -0.29780  -0.29524  -0.29123
 Alpha  occ. eigenvalues --   -0.28677  -0.28608  -0.28039  -0.27070  -0.27019
 Alpha  occ. eigenvalues --   -0.26573  -0.26157  -0.25843  -0.25773  -0.25588
 Alpha  occ. eigenvalues --   -0.25431  -0.25376  -0.25005  -0.21152  -0.20862
 Alpha  occ. eigenvalues --   -0.19107  -0.19097
 Alpha virt. eigenvalues --   -0.11687  -0.11500  -0.05225  -0.04816  -0.03974
 Alpha virt. eigenvalues --   -0.03863  -0.02194  -0.01964  -0.01005  -0.00318
 Alpha virt. eigenvalues --    0.00103   0.00121   0.01482   0.01782   0.01953

 Mulliken charges:
               1
     1  Mg  11.999991
     2  C    5.999991
     3  C    6.000037
     4  C    5.999998
     5  C    5.999988
     6  N    7.000008
     7  C    5.999988
     8  C    6.000022
     9  C    5.999955
    10  C    6.000060
    11  C    5.999987
    12  C    6.000030
    13  C    6.000001
    14  H    1.000003
    15  N    7.000015
    16  C    6.000052
    17  C    6.000053
    18  C    6.000017
    19  C    6.000095
    20  C    6.000001
    21  C    6.000060
    22  O    8.000097
    23  C    5.999991
    24  N    6.999979
    25  C    6.000065
    26  C    5.999965
    27  C    6.000048
    28  C    5.999982
    29  C    6.000004
    30  C    6.000007
    31  C    6.000020
    32  N    7.000003
    33  C    5.999925
    34  C    5.999957
    35  C    6.000022
    36  C    5.999957
    37  C    6.000001
    38  C    5.999917
    39  O    7.999894
    40  C    5.999986
    41  C    5.999991
    42  O    8.000060
    43  O    7.999970
    44  C    5.999993
    45  H    1.000031
    46  H    0.999998
    47  H    0.999940
    48  H    1.000037
    49  H    0.999964
    50  H    0.999992
    51  H    1.000083
    52  H    1.000067
    53  H    0.999933
    54  H    0.999974
    55  H    0.999925
    56  H    1.000020
    57  H    1.000002
    58  H    1.000013
    59  H    1.000120
    60  H    0.999968
    61  H    1.000083
    62  H    1.000014
    63  H    0.999948
    64  H    1.000025
    65  H    1.000079
    66  H    0.999978
    67  H    1.000045
    68  H    0.999949
    69  H    0.999991
    70  H    0.999918
    71  H    0.999973
    72  H    1.000008
    73  H    0.999939
    74  H    0.999991
    75  H    0.999892
    76  H    0.999919
    77  H    0.999937
    78  H    1.000054
    79  H    1.000006
    80  Mg  12.002150
    81  C    5.983909
    82  C    6.006322
    83  C    6.014362
    84  C    5.990308
    85  N    6.994333
    86  C    6.031435
    87  C    5.989517
    88  C    6.007628
    89  C    5.975494
    90  C    6.006739
    91  C    5.997020
    92  C    6.000401
    93  H    1.000464
    94  N    7.004404
    95  C    5.964550
    96  C    5.977860
    97  C    5.984888
    98  C    5.970928
    99  C    5.998512
   100  C    5.987894
   101  O    7.969936
   102  C    6.003189
   103  N    6.998511
   104  C    5.966748
   105  C    6.007426
   106  C    5.998348
   107  C    6.032577
   108  C    6.001636
   109  C    5.992998
   110  C    5.994975
   111  N    6.998742
   112  C    6.039367
   113  C    6.021594
   114  C    6.005981
   115  C    6.032704
   116  C    5.997201
   117  C    6.019134
   118  O    8.030699
   119  C    5.997911
   120  C    6.002579
   121  O    8.005834
   122  O    8.001686
   123  C    5.998932
   124  H    0.989201
   125  H    0.993739
   126  H    1.009310
   127  H    0.999927
   128  H    1.000073
   129  H    0.998702
   130  H    0.987206
   131  H    1.002048
   132  H    1.002413
   133  H    0.994216
   134  H    1.004645
   135  H    1.005117
   136  H    0.984751
   137  H    0.983138
   138  H    0.985177
   139  H    0.993165
   140  H    0.986190
   141  H    0.992156
   142  H    1.001531
   143  H    1.000305
   144  H    0.997600
   145  H    1.005302
   146  H    0.987496
   147  H    1.010052
   148  H    0.995567
   149  H    1.005736
   150  H    0.994509
   151  H    1.014748
   152  H    1.014323
   153  H    1.017444
   154  H    1.016735
   155  H    1.008121
   156  H    1.006520
   157  H    1.002890
   158  H    1.002118
 Sum of Mulliken charges = 624.00000

 Dipole moment (field-independent basis, Debye):
    X=              9.4597    Y=              3.0010    Z=             -3.6747  Tot=             10.5827
 Quadrupole moment (field-independent basis, Debye-Ang):
   XX=            379.9547   YY=             -2.3625   ZZ=              0.7276
   XY=             54.0975   XZ=            -74.2650   YZ=              4.7680

 Normal termination of Gaussian 16 at Fri Oct 15 18:06:31 2021.
