 Gaussian 16, Revision A.03,
 Gaussian 16:  ES64L-G16RevA.03 25-Dec-2016

 ---------------------------------------------------------
 #p PBE1PBE/Def2SVP td=(nstates=5, root=1) density=current
 ---------------------------------------------------------

 --------------------------------
 TDDFT excited states in gaussian
 --------------------------------
 Symbolic Z-matrix:
 Charge =  0 Multiplicity = 1

                         Standard orientation:
 ---------------------------------------------------------------------
 Center     Atomic      Atomic             Coordinates (Angstroms)
 Number     Number       Type             X           Y           Z
 ---------------------------------------------------------------------
      1         12           0        0.738410    0.151152   -0.454371
      2          6           0       -2.734669    0.165063   -0.129328
      3          6           0        0.725689   -3.176835   -0.489201
      4          6           0        3.997527    0.252944    0.571735
      5          6           0        0.704041    3.633483   -0.362385
      6          7           0       -0.866512   -1.350644   -0.489840
      7          6           0       -2.165287   -1.105198   -0.366832
      8          6           0       -2.959136   -2.446640   -0.567043
      9          6           0       -1.824742   -3.499195   -0.566082
     10          6           0       -0.560149   -2.649198   -0.487325
     11          6           0       -1.818321   -4.453735    0.729042
     12          6           0       -3.838570   -2.524991   -1.896625
     13          6           0       -5.167194   -3.157139   -1.659867
     14          1           0       -5.623480   -4.299643   -2.554143
     15          7           0        2.156183   -1.277452   -0.046693
     16          6           0        1.963147   -2.630242   -0.140991
     17          6           0        3.273555   -3.294236   -0.102506
     18          6           0        4.221203   -2.279610    0.208966
     19          6           0        3.438860   -1.035957    0.304183
     20          6           0        3.452936   -4.839101   -0.248289
     21          6           0        5.748926   -2.424212    0.480909
     22          8           0        6.493967   -1.485556    0.739157
     23          6           0        6.344269   -3.778710    0.396321
     24          7           0        2.106375    1.654811    0.052491
     25          6           0        3.412477    1.488584    0.522803
     26          6           0        3.970811    2.855646    0.997487
     27          6           0        3.162658    3.896763    0.105416
     28          6           0        1.922602    2.977222   -0.081186
     29          6           0        3.881448    3.052569    2.526075
     30          6           0        3.762557    4.279284   -1.217758
     31          6           0        3.663961    3.368501   -2.405347
     32          7           0       -0.670179    1.661271   -0.486821
     33          6           0       -0.560254    3.030286   -0.407059
     34          6           0       -1.869582    3.686799   -0.406340
     35          6           0       -2.801951    2.574636   -0.190305
     36          6           0       -1.986826    1.377461   -0.241588
     37          6           0       -2.120317    5.105962   -0.350205
     38          6           0       -4.191256    2.204302    0.050518
     39          8           0       -5.160624    2.839076    0.237656
     40          6           0       -4.201908    0.587820    0.018795
     41          6           0       -4.944882   -0.051399    1.164634
     42          8           0       -4.440350   -0.406055    2.225926
     43          8           0       -6.268211   -0.256604    0.775609
     44          6           0       -7.171152   -0.905232    1.743639
     45          1           0        0.910485   -4.233817   -0.693695
     46          1           0        5.034329    0.207774    0.912633
     47          1           0        0.763137    4.721211   -0.433648
     48          1           0       -3.599266   -2.676530    0.285077
     49          1           0       -1.811771   -4.196732   -1.403544
     50          1           0       -2.404106   -5.336152    0.470762
     51          1           0       -2.306216   -4.043924    1.613039
     52          1           0       -0.785950   -4.748894    0.920267
     53          1           0       -3.341870   -3.104183   -2.675215
     54          1           0       -4.022845   -1.573227   -2.395112
     55          1           0       -5.864619   -2.351068   -1.886148
     56          1           0       -5.400260   -3.494372   -0.650279
     57          1           0        3.394206   -5.237982    0.764015
     58          1           0        4.374554   -5.089042   -0.774438
     59          1           0        2.584002   -5.350088   -0.664318
     60          1           0        5.832054   -4.654877    0.793589
     61          1           0        7.321364   -3.779476    0.878783
     62          1           0        6.716696   -3.942200   -0.615355
     63          1           0        5.007917    2.832242    0.664109
     64          1           0        2.947401    4.821359    0.640738
     65          1           0        3.378284    3.954825    2.873779
     66          1           0        4.822756    2.872362    3.045757
     67          1           0        3.278941    2.258177    2.966206
     68          1           0        4.828834    4.498815   -1.179018
     69          1           0        3.305585    5.219621   -1.526385
     70          1           0        2.787846    3.759855   -2.922112
     71          1           0        3.457917    2.320477   -2.186778
     72          1           0        4.565639    3.468497   -3.010427
     73          1           0       -3.013246    5.271634   -0.953248
     74          1           0       -1.272400    5.599584   -0.824399
     75          1           0       -2.301892    5.415923    0.678427
     76          1           0       -4.714308    0.293412   -0.897115
     77          1           0       -7.095561   -0.341231    2.673703
     78          1           0       -6.847088   -1.924124    1.954003
     79          1           0       -8.230132   -1.008978    1.506632
 ---------------------------------------------------------------------

 SCF Done:  E(RPBE1PBE) =  -2033.69686594     A.U. after   15 cycles

 Excitation energies and oscillator strengths:

 Excited State   1:      Singlet-A      1.8399 eV  673.85 nm  f=0.3646  <S**2>=0.000
     155 ->158        -0.17105
     156 ->157         0.69452
     156 <-157        -0.11328
 This state for optimization and/or second-order correction.
 Total Energy, E(TD-HF/TD-DFT) =  -2033.62924924
 Copying the excited state density for this state as the 1-particle RhoCI density.

 Excited State   2:      Singlet-A      2.2623 eV  548.04 nm  f=0.1054  <S**2>=0.000
     155 ->157         0.64514
     156 ->158         0.27996

 Excited State   3:      Singlet-A      3.0816 eV  402.34 nm  f=0.0019  <S**2>=0.000
     154 ->157         0.68780

 Excited State   4:      Singlet-A      3.1749 eV  390.52 nm  f=0.0003  <S**2>=0.000
     152 ->157         0.67331
     152 ->159        -0.13136

 Excited State   5:      Singlet-A      3.2462 eV  381.94 nm  f=0.0016  <S**2>=0.000
     153 ->157         0.66433
     156 ->158        -0.18856

 The electronic state is 1-A.
 Alpha  occ. eigenvalues --  -46.91343 -19.25624 -19.20236 -19.19768 -19.19468
 Alpha  occ. eigenvalues --  -14.41634 -14.41030 -14.38934 -14.38916 -10.36620
 Alpha  occ. eigenvalues --  -10.32840 -10.32538 -10.29019 -10.28970 -10.28399
 Alpha  occ. eigenvalues --  -10.28300 -10.27833 -10.27659 -10.27362 -10.27231
 Alpha  occ. eigenvalues --  -10.27135 -10.26587 -10.26242 -10.26097 -10.25973
 Alpha  occ. eigenvalues --  -10.25949 -10.25751 -10.25745 -10.25524 -10.25394
 Alpha  occ. eigenvalues --  -10.25046 -10.24921 -10.24467 -10.24321 -10.23798
 Alpha  occ. eigenvalues --  -10.23733 -10.23468 -10.23442 -10.23174 -10.23153
 Alpha  occ. eigenvalues --  -10.23110 -10.23037 -10.21961  -3.13620  -1.86465
 Alpha  occ. eigenvalues --   -1.85971  -1.85872  -1.09833  -1.07631  -1.04951
 Alpha  occ. eigenvalues --   -1.02204  -0.99800  -0.98222  -0.97582  -0.96805
 Alpha  occ. eigenvalues --   -0.86144  -0.83326  -0.82859  -0.82375  -0.81440
 Alpha  occ. eigenvalues --   -0.81248  -0.80612  -0.78462  -0.77862  -0.76825
 Alpha  occ. eigenvalues --   -0.76076  -0.75288  -0.74724  -0.72581  -0.71564
 Alpha  occ. eigenvalues --   -0.71046  -0.70106  -0.69234  -0.66693  -0.65927
 Alpha  occ. eigenvalues --   -0.63601  -0.62943  -0.62107  -0.61154  -0.60133
 Alpha  occ. eigenvalues --   -0.59183  -0.58806  -0.58560  -0.56368  -0.54759
 Alpha  occ. eigenvalues --   -0.54104  -0.53453  -0.52764  -0.52313  -0.51629
 Alpha  occ. eigenvalues --   -0.50447  -0.50076  -0.49828  -0.49332  -0.48605
 Alpha  occ. eigenvalues --   -0.48184  -0.47928  -0.47481  -0.47064  -0.46733
 Alpha  occ. eigenvalues --   -0.46240  -0.46168  -0.45889  -0.45757  -0.44993
 Alpha  occ. eigenvalues --   -0.44755  -0.44631  -0.44170  -0.44144  -0.43835
 Alpha  occ. eigenvalues --   -0.43281  -0.42987  -0.42661  -0.42451  -0.41660
 Alpha  occ. eigenvalues --   -0.41409  -0.41332  -0.41008  -0.40801  -0.40445
 Alpha  occ. eigenvalues --   -0.40231  -0.39810  -0.39699  -0.39476  -0.39160
 Alpha  occ. eigenvalues --   -0.38960  -0.38584  -0.38188  -0.38097  -0.37703
 Alpha  occ. eigenvalues --   -0.37518  -0.36755  -0.36417  -0.36323  -0.36189
 Alpha  occ. eigenvalues --   -0.36022  -0.35406  -0.35176  -0.34048  -0.33626
 Alpha  occ. eigenvalues --   -0.33003  -0.32697  -0.31938  -0.31630  -0.31446
 Alpha  occ. eigenvalues --   -0.30945  -0.29530  -0.29250  -0.28369  -0.26805
 Alpha  occ. eigenvalues --   -0.26223  -0.26031  -0.25676  -0.25156  -0.20914
 Alpha  occ. eigenvalues --   -0.18443
 Alpha virt. eigenvalues --   -0.10944  -0.04913  -0.03842  -0.01938  -0.00167
 Alpha virt. eigenvalues --    0.00148   0.01404   0.02093   0.03334   0.04589
 Alpha virt. eigenvalues --    0.04721   0.05422   0.06043   0.06408   0.06910

 Mulliken charges:
               1
     1  Mg   0.986384
     2  C    0.013452
     3  C   -0.087436
     4  C   -0.073977
     5  C   -0.085250
     6  N   -0.365425
     7  C    0.054023
     8  C   -0.068293
     9  C   -0.154814
    10  C    0.129113
    11  C   -0.017101
    12  C    0.018025
    13  C   -0.164156
    14  H    0.034198
    15  N   -0.486144
    16  C    0.129433
    17  C   -0.163783
    18  C   -0.106167
    19  C    0.138236
    20  C    0.033204
    21  C    0.081155
    22  O   -0.242289
    23  C   -0.029328
    24  N   -0.403177
    25  C    0.075277
    26  C   -0.083739
    27  C   -0.089825
    28  C    0.065927
    29  C    0.041052
    30  C   -0.030114
    31  C   -0.058139
    32  N   -0.482442
    33  C    0.166708
    34  C   -0.171177
    35  C   -0.083291
    36  C    0.131857
    37  C    0.065084
    38  C    0.142487
    39  O   -0.157075
    40  C   -0.176973
    41  C    0.304838
    42  O   -0.256407
    43  O   -0.384248
    44  C    0.131996
    45  H   -0.002962
    46  H    0.026049
    47  H   -0.003162
    48  H    0.062303
    49  H    0.056123
    50  H    0.039096
    51  H    0.057913
    52  H    0.048679
    53  H    0.045586
    54  H    0.047136
    55  H    0.060869
    56  H    0.057723
    57  H    0.062911
    58  H    0.069424
    59  H    0.035539
    60  H    0.061833
    61  H    0.039405
    62  H    0.064585
    63  H    0.036216
    64  H    0.033114
    65  H    0.044378
    66  H    0.050464
    67  H    0.040160
    68  H    0.034771
    69  H    0.032485
    70  H    0.034870
    71  H    0.065717
    72  H    0.045339
    73  H    0.061985
    74  H    0.041095
    75  H    0.076795
    76  H    0.085535
    77  H    0.058534
    78  H    0.043731
    79  H    0.064085
 Sum of Mulliken charges =  -0.00000

 Dipole moment (field-independent basis, Debye):
    X=              0.9462    Y=             -2.7463    Z=             -2.2551  Tot=              3.6774
 Quadrupole moment (field-independent basis, Debye-Ang):
   XX=           -269.3448   YY=           -221.9699   ZZ=           -257.4920
   XY=             17.8247   XZ=             -3.2086   YZ=              0.4966

 Normal termination of Gaussian 16 at Wed Oct 13 12:32:36 2021.
