 Gaussian 16, Revision A.03,
 Gaussian 16:  ES64L-G16RevA.03 25-Dec-2016

 --------------------------------------------------------
 #p PBE1PBE/Def2SVP td=(nstates=5) density=(transition=1)
 --------------------------------------------------------

 --------------------------------
 TDDFT excited states in gaussian
 --------------------------------
 Symbolic Z-matrix:
 Charge =  0 Multiplicity = 1

                         Standard orientation:
 ---------------------------------------------------------------------
 Center     Atomic      Atomic             Coordinates (Angstroms)
 Number     Number       Type             X           Y           Z
 ---------------------------------------------------------------------
      1         12           0       25.685862   -0.331883   -0.249549
      2          6           0       22.074390   -0.412016    0.395795
      3          6           0       24.823977    1.247713   -3.206188
      4          6           0       28.701145    0.699803   -0.365997
      5          6           0       26.035823   -1.588174    3.098739
      6          7           0       23.568800    0.472539   -1.211698
      7          6           0       22.267005    0.316893   -0.788182
      8          6           0       21.305702    1.084656   -1.767573
      9          6           0       22.160764    1.349052   -3.019041
     10          6           0       23.594638    1.008888   -2.460322
     11          6           0       21.882724    0.490709   -4.322432
     12          6           0       20.654256    2.363303   -1.137840
     13          6           0       19.206046    2.624332   -1.491907
     14          1           0       18.933671    3.718559   -2.571277
     15          7           0       26.666174    0.693445   -1.629766
     16          6           0       26.205272    1.174632   -2.824987
     17          6           0       27.313212    1.842952   -3.560928
     18          6           0       28.438847    1.698789   -2.708623
     19          6           0       27.949125    1.048236   -1.495819
     20          6           0       27.219193    2.592555   -4.899946
     21          6           0       29.831836    2.317614   -2.856170
     22          8           0       30.063248    2.939297   -3.889643
     23          6           0       30.872230    2.199023   -1.912398
     24          7           0       27.102247   -0.209737    1.324568
     25          6           0       28.374986    0.044841    0.853574
     26          6           0       29.397463   -0.276961    2.011285
     27          6           0       28.476079   -0.710497    3.207333
     28          6           0       27.138261   -0.942908    2.464950
     29          6           0       30.496198   -1.320319    1.668928
     30          6           0       28.342179    0.250575    4.456628
     31          6           0       29.469601    0.237493    5.503531
     32          7           0       24.404994   -0.954573    1.447966
     33          6           0       24.712848   -1.549210    2.655281
     34          6           0       23.532968   -2.019542    3.339737
     35          6           0       22.458500   -1.602365    2.468036
     36          6           0       22.984421   -0.896608    1.330079
     37          6           0       23.546718   -2.680579    4.683545
     38          6           0       21.068803   -1.557068    2.363158
     39          8           0       20.192040   -1.828651    3.172288
     40          6           0       20.738260   -0.689800    1.114038
     41          6           0       19.858517   -1.573931    0.261314
     42          8           0       18.787536   -1.201151   -0.224097
     43          8           0       20.429148   -2.860158   -0.100649
     44          6           0       19.706788   -3.501933   -1.197847
     45          1           0       24.579877    1.681542   -4.177617
     46          1           0       29.785674    0.825170   -0.343049
     47          1           0       26.308160   -2.031450    4.058749
     48          1           0       20.562952    0.379624   -2.143593
     49          1           0       22.195839    2.409330   -3.269381
     50          1           0       21.382374    1.180100   -5.002171
     51          1           0       21.182036   -0.318577   -4.119076
     52          1           0       22.755293    0.011034   -4.765746
     53          1           0       21.091058    3.306068   -1.468226
     54          1           0       20.676721    2.302709   -0.049544
     55          1           0       18.679654    2.807519   -0.555163
     56          1           0       18.798823    1.701030   -1.905185
     57          1           0       28.097671    2.373655   -5.507538
     58          1           0       27.122163    3.637632   -4.606067
     59          1           0       26.366021    2.247341   -5.482335
     60          1           0       31.179770    1.153314   -1.880300
     61          1           0       30.646121    2.606401   -0.926947
     62          1           0       31.600409    2.898132   -2.325046
     63          1           0       29.956705    0.592108    2.356167
     64          1           0       28.745108   -1.699682    3.576996
     65          1           0       30.383188   -2.106642    2.415398
     66          1           0       31.468089   -0.839684    1.776384
     67          1           0       30.258326   -1.611379    0.645062
     68          1           0       27.414900   -0.078527    4.926746
     69          1           0       28.319557    1.294894    4.144503
     70          1           0       30.096592   -0.563950    5.111745
     71          1           0       29.111213   -0.131444    6.465604
     72          1           0       30.043740    1.155404    5.627303
     73          1           0       24.040102   -1.970890    5.346334
     74          1           0       24.182524   -3.564688    4.726917
     75          1           0       22.551919   -2.780668    5.117827
     76          1           0       20.141390    0.152015    1.464498
     77          1           0       20.551244   -4.097893   -1.546073
     78          1           0       19.223167   -2.776968   -1.852514
     79          1           0       19.006483   -4.197611   -0.735397
     80         12           0      -25.360719    0.507655    0.065563
     81          6           0      -22.240897   -0.823607   -0.551213
     82          6           0      -26.694660   -2.512978   -1.321620
     83          6           0      -28.361836    1.773318    0.276661
     84          6           0      -23.939331    3.497993    1.066929
     85          7           0      -24.491345   -1.385481   -1.041099
     86          6           0      -23.223997   -1.748156   -0.935292
     87          6           0      -23.059234   -3.274912   -1.179140
     88          6           0      -24.395021   -3.567061   -1.948081
     89          6           0      -25.302553   -2.437566   -1.435011
     90          6           0      -24.210279   -3.524412   -3.506698
     91          6           0      -22.977630   -3.925475    0.219759
     92          6           0      -22.664544   -5.427410    0.259723
     93          1           0      -22.700216   -6.247763   -1.014072
     94          7           0      -27.274706   -0.210082   -0.313158
     95          6           0      -27.596063   -1.502980   -0.852682
     96          6           0      -29.043228   -1.630675   -0.748466
     97          6           0      -29.527296   -0.413643   -0.174654
     98          6           0      -28.378649    0.485189   -0.071028
     99          6           0      -29.862971   -2.913331   -1.149706
    100          6           0      -30.990689   -0.103747    0.283601
    101          8           0      -31.246623    1.015307    0.634936
    102          6           0      -32.040940   -1.165893    0.243940
    103          7           0      -26.060850    2.366283    0.691784
    104          6           0      -27.376175    2.679448    0.701838
    105          6           0      -27.648848    4.126613    1.110316
    106          6           0      -26.234539    4.621081    1.492772
    107          6           0      -25.334790    3.397284    1.048022
    108          6           0      -28.340354    5.023586    0.018890
    109          6           0      -26.036732    5.139978    2.894191
    110          6           0      -26.566826    4.361647    4.122512
    111          7           0      -23.503620    1.277766    0.239252
    112          6           0      -23.052796    2.494287    0.665314
    113          6           0      -21.608168    2.417952    0.720743
    114          6           0      -21.192546    1.114154    0.281094
    115          6           0      -22.424531    0.468648   -0.013933
    116          6           0      -20.726297    3.544921    1.159922
    117          6           0      -20.098201    0.256555   -0.028152
    118          8           0      -18.857990    0.408455    0.018037
    119          6           0      -20.801976   -0.955541   -0.850107
    120          6           0      -20.063437   -2.234505   -0.452109
    121          8           0      -19.888738   -2.608190    0.644297
    122          8           0      -19.610522   -2.830633   -1.594528
    123          6           0      -19.202010   -4.218376   -1.521568
    124          1           0      -27.092060   -3.406856   -1.805974
    125          1           0      -29.336848    2.263257    0.319076
    126          1           0      -23.428943    4.418484    1.355294
    127          1           0      -22.225213   -3.499191   -1.843966
    128          1           0      -24.698419   -4.541283   -1.563993
    129          1           0      -24.204816   -4.541219   -3.897413
    130          1           0      -23.273594   -3.007568   -3.716374
    131          1           0      -25.031534   -3.033448   -4.028881
    132          1           0      -23.963324   -3.835233    0.675491
    133          1           0      -22.343455   -3.357373    0.899645
    134          1           0      -23.113873   -5.936679    1.112572
    135          1           0      -21.635046   -5.473748    0.615306
    136          1           0      -30.700881   -2.681258   -1.807756
    137          1           0      -30.166543   -3.370916   -0.208270
    138          1           0      -29.193786   -3.643916   -1.605771
    139          1           0      -32.710019   -0.845640    1.042919
    140          1           0      -31.668081   -2.138342    0.563493
    141          1           0      -32.467569   -1.489182   -0.705532
    142          1           0      -28.299714    4.053435    1.981304
    143          1           0      -25.859641    5.396152    0.824366
    144          1           0      -27.914336    6.018201    0.147893
    145          1           0      -29.386370    4.991721    0.324454
    146          1           0      -28.252148    4.563009   -0.965027
    147          1           0      -26.729597    5.980648    2.880526
    148          1           0      -25.034470    5.463869    3.176664
    149          1           0      -27.315301    4.840263    4.752637
    150          1           0      -25.783743    4.211842    4.865738
    151          1           0      -27.006072    3.421866    3.787566
    152          1           0      -19.706355    3.185183    1.027269
    153          1           0      -20.860082    3.729192    2.226717
    154          1           0      -20.939049    4.509995    0.701009
    155          1           0      -20.696423   -0.676604   -1.898717
    156          1           0      -18.234990   -3.982700   -1.966129
    157          1           0      -19.884810   -4.905113   -2.022296
    158          1           0      -19.033963   -4.586393   -0.509094
 ---------------------------------------------------------------------

 SCF Done:  E(RPBE1PBE) =  -4067.32185153     A.U. after   16 cycles

 Excitation energies and oscillator strengths:

 Excited State   1:      Singlet-A      1.8703 eV  662.91 nm  f=0.3471  <S**2>=0.000
     309 -> 315        0.19147
     311 -> 313        0.68638
 This state for optimization and/or second-order correction.
 Total Energy, E(TD-HF/TD-DFT) =  -4067.25311941
 Copying the excited state density for this state as the 1-particle RhoCI density.

 Excited State   2:      Singlet-A      1.8859 eV  657.44 nm  f=0.3607  <S**2>=0.000
     310 -> 316        0.19012
     312 -> 314        0.68796
     312 <- 314       -0.10012

 Excited State   3:      Singlet-A      1.9393 eV  639.33 nm  f=0.0000  <S**2>=0.000
     312 -> 313        0.70711

 Excited State   4:      Singlet-A      2.1532 eV  575.81 nm  f=0.0000  <S**2>=0.000
     311 -> 314        0.70711

 Excited State   5:      Singlet-A      2.2138 eV  560.06 nm  f=0.0902  <S**2>=0.000
     310 -> 314        0.64981
     312 -> 316       -0.26393

 The electronic state is 1-A.
 Alpha  occ. eigenvalues --  -46.94119 -46.91634 -19.24991 -19.24356 -19.20365
 Alpha  occ. eigenvalues --  -19.20310 -19.19324 -19.19166 -19.18915 -19.18161
 Alpha  occ. eigenvalues --  -14.42061 -14.41619 -14.41222 -14.41145 -14.40307
 Alpha  occ. eigenvalues --  -14.38985 -14.38893 -14.38892 -10.36438 -10.35835
 Alpha  occ. eigenvalues --  -10.32435 -10.32124 -10.31956 -10.30683 -10.29909
 Alpha  occ. eigenvalues --  -10.29539 -10.29446 -10.29057 -10.28850 -10.28768
 Alpha  occ. eigenvalues --  -10.28631 -10.28349 -10.28343 -10.28260 -10.28220
 Alpha  occ. eigenvalues --  -10.28128 -10.27980 -10.27227 -10.27194 -10.27130
 Alpha  occ. eigenvalues --  -10.27113 -10.26905 -10.26668 -10.26658 -10.26642
 Alpha  occ. eigenvalues --  -10.26628 -10.26249 -10.26232 -10.26179 -10.26138
 Alpha  occ. eigenvalues --  -10.26103 -10.25985 -10.25948 -10.25946 -10.25844
 Alpha  occ. eigenvalues --  -10.25794 -10.25604 -10.25595 -10.25377 -10.25291
 Alpha  occ. eigenvalues --  -10.25251 -10.25221 -10.25086 -10.25052 -10.25031
 Alpha  occ. eigenvalues --  -10.24636 -10.24509 -10.24413 -10.24388 -10.24300
 Alpha  occ. eigenvalues --  -10.24290 -10.24159 -10.24084 -10.24053 -10.23938
 Alpha  occ. eigenvalues --  -10.23789 -10.23732 -10.23728 -10.23517 -10.23495
 Alpha  occ. eigenvalues --  -10.23353 -10.23287 -10.23124 -10.23063 -10.22660
 Alpha  occ. eigenvalues --  -10.22610  -3.16112  -3.13849  -1.88893  -1.88537
 Alpha  occ. eigenvalues --   -1.88298  -1.86690  -1.86239  -1.86063  -1.12312
 Alpha  occ. eigenvalues --   -1.08647  -1.06302  -1.05090  -1.04579  -1.03777
 Alpha  occ. eigenvalues --   -1.02642  -1.01160  -0.99847  -0.99548  -0.98628
 Alpha  occ. eigenvalues --   -0.97988  -0.97878  -0.97655  -0.96789  -0.95822
 Alpha  occ. eigenvalues --   -0.87307  -0.87296  -0.83632  -0.83235  -0.83180
 Alpha  occ. eigenvalues --   -0.83023  -0.82757  -0.82738  -0.81622  -0.81253
 Alpha  occ. eigenvalues --   -0.81106  -0.80676  -0.80331  -0.79920  -0.79218
 Alpha  occ. eigenvalues --   -0.78328  -0.78105  -0.77973  -0.77910  -0.76817
 Alpha  occ. eigenvalues --   -0.76688  -0.75934  -0.75701  -0.75513  -0.74577
 Alpha  occ. eigenvalues --   -0.74217  -0.72499  -0.72304  -0.71652  -0.71640
 Alpha  occ. eigenvalues --   -0.71299  -0.71045  -0.70150  -0.70118  -0.69868
 Alpha  occ. eigenvalues --   -0.69594  -0.67323  -0.67068  -0.66423  -0.66366
 Alpha  occ. eigenvalues --   -0.64606  -0.63487  -0.63265  -0.63027  -0.62472
 Alpha  occ. eigenvalues --   -0.62138  -0.61364  -0.60656  -0.59995  -0.59819
 Alpha  occ. eigenvalues --   -0.59631  -0.59457  -0.59391  -0.58791  -0.58601
 Alpha  occ. eigenvalues --   -0.58589  -0.56856  -0.56383  -0.55052  -0.54867
 Alpha  occ. eigenvalues --   -0.54411  -0.54167  -0.53759  -0.53689  -0.53498
 Alpha  occ. eigenvalues --   -0.53346  -0.52698  -0.52346  -0.51834  -0.51531
 Alpha  occ. eigenvalues --   -0.51198  -0.50732  -0.50554  -0.50257  -0.50215
 Alpha  occ. eigenvalues --   -0.49824  -0.49337  -0.48758  -0.48719  -0.48409
 Alpha  occ. eigenvalues --   -0.48282  -0.48248  -0.48100  -0.48041  -0.47833
 Alpha  occ. eigenvalues --   -0.47637  -0.47453  -0.47101  -0.46967  -0.46711
 Alpha  occ. eigenvalues --   -0.46580  -0.46571  -0.46391  -0.46229  -0.45894
 Alpha  occ. eigenvalues --   -0.45578  -0.45334  -0.45230  -0.45226  -0.44741
 Alpha  occ. eigenvalues --   -0.44600  -0.44496  -0.44478  -0.44240  -0.44088
 Alpha  occ. eigenvalues --   -0.44044  -0.43908  -0.43874  -0.43854  -0.43605
 Alpha  occ. eigenvalues --   -0.43320  -0.43287  -0.43020  -0.42886  -0.42830
 Alpha  occ. eigenvalues --   -0.42763  -0.42616  -0.42602  -0.42388  -0.42277
 Alpha  occ. eigenvalues --   -0.41853  -0.41510  -0.41446  -0.41392  -0.41223
 Alpha  occ. eigenvalues --   -0.41121  -0.40893  -0.40653  -0.40616  -0.40588
 Alpha  occ. eigenvalues --   -0.40206  -0.40142  -0.39905  -0.39732  -0.39663
 Alpha  occ. eigenvalues --   -0.39494  -0.39478  -0.39255  -0.39130  -0.38921
 Alpha  occ. eigenvalues --   -0.38711  -0.38668  -0.38465  -0.38163  -0.38136
 Alpha  occ. eigenvalues --   -0.38032  -0.37756  -0.37687  -0.37563  -0.37395
 Alpha  occ. eigenvalues --   -0.37344  -0.37192  -0.37128  -0.36916  -0.36829
 Alpha  occ. eigenvalues --   -0.36793  -0.36719  -0.36645  -0.36370  -0.36348
 Alpha  occ. eigenvalues --   -0.36277  -0.36150  -0.35804  -0.35168  -0.35069
 Alpha  occ. eigenvalues --   -0.35042  -0.34826  -0.34419  -0.34388  -0.34242
 Alpha  occ. eigenvalues --   -0.33787  -0.33301  -0.32866  -0.32774  -0.32542
 Alpha  occ. eigenvalues --   -0.32507  -0.32145  -0.32140  -0.31330  -0.31259
 Alpha  occ. eigenvalues --   -0.30852  -0.30237  -0.30102  -0.29652  -0.29209
 Alpha  occ. eigenvalues --   -0.29100  -0.28800  -0.28393  -0.27093  -0.26930
 Alpha  occ. eigenvalues --   -0.26639  -0.26061  -0.26008  -0.25595  -0.25211
 Alpha  occ. eigenvalues --   -0.25148  -0.24961  -0.24418  -0.21366  -0.20724
 Alpha  occ. eigenvalues --   -0.19093  -0.18704
 Alpha virt. eigenvalues --   -0.11315  -0.10914  -0.06094  -0.05319  -0.04359
 Alpha virt. eigenvalues --   -0.03981  -0.02402  -0.02136  -0.01780   0.00111
 Alpha virt. eigenvalues --    0.00159   0.00307   0.01320   0.01400   0.01508

 Mulliken charges:
               1
     1  Mg  12.003209
     2  C    5.985012
     3  C    5.999337
     4  C    6.028454
     5  C    5.988876
     6  N    6.990154
     7  C    6.027216
     8  C    5.994728
     9  C    6.004066
    10  C    5.973862
    11  C    6.006901
    12  C    5.998461
    13  C    5.998695
    14  H    1.008077
    15  N    7.007513
    16  C    5.966561
    17  C    5.974988
    18  C    5.996978
    19  C    5.962977
    20  C    6.000888
    21  C    5.987070
    22  O    7.983364
    23  C    6.003854
    24  N    7.000965
    25  C    5.962323
    26  C    6.010441
    27  C    5.994641
    28  C    6.032628
    29  C    6.000642
    30  C    5.996905
    31  C    6.001231
    32  N    6.996640
    33  C    6.027495
    34  C    6.036553
    35  C    5.993181
    36  C    6.037733
    37  C    5.999379
    38  C    6.016773
    39  O    8.027725
    40  C    5.998193
    41  C    6.003659
    42  O    8.009164
    43  O    7.996495
    44  C    5.998629
    45  H    0.988422
    46  H    0.993765
    47  H    1.008301
    48  H    0.998921
    49  H    0.999852
    50  H    0.994196
    51  H    0.986875
    52  H    1.002821
    53  H    1.008162
    54  H    0.993116
    55  H    0.997394
    56  H    0.999147
    57  H    0.986236
    58  H    0.983614
    59  H    0.985341
    60  H    0.991918
    61  H    0.989962
    62  H    0.989458
    63  H    0.996478
    64  H    0.997435
    65  H    0.989931
    66  H    0.999584
    67  H    1.003015
    68  H    0.993366
    69  H    1.008902
    70  H    1.004372
    71  H    0.998953
    72  H    1.005315
    73  H    1.019432
    74  H    1.019782
    75  H    1.013403
    76  H    1.007354
    77  H    1.004177
    78  H    1.006364
    79  H    1.002003
    80  Mg  11.999950
    81  C    6.000115
    82  C    5.999604
    83  C    5.999810
    84  C    6.000225
    85  N    6.999897
    86  C    5.999624
    87  C    6.000040
    88  C    5.999848
    89  C    6.000547
    90  C    5.999965
    91  C    6.000106
    92  C    5.999986
    93  H    0.999927
    94  N    6.999895
    95  C    6.000793
    96  C    6.000170
    97  C    6.000291
    98  C    6.000385
    99  C    5.999993
   100  C    6.000217
   101  O    8.000410
   102  C    5.999922
   103  N    6.999985
   104  C    6.000546
   105  C    5.999862
   106  C    6.000092
   107  C    5.999529
   108  C    5.999999
   109  C    6.000093
   110  C    6.000029
   111  N    7.000037
   112  C    5.999554
   113  C    5.999484
   114  C    5.999963
   115  C    5.999740
   116  C    6.000023
   117  C    5.999656
   118  O    7.999454
   119  C    6.000048
   120  C    5.999909
   121  O    7.999880
   122  O    7.999983
   123  C    6.000031
   124  H    1.000144
   125  H    1.000134
   126  H    0.999919
   127  H    1.000025
   128  H    1.000028
   129  H    1.000071
   130  H    1.000218
   131  H    0.999965
   132  H    0.999814
   133  H    1.000106
   134  H    0.999933
   135  H    1.000026
   136  H    1.000233
   137  H    1.000212
   138  H    1.000244
   139  H    1.000225
   140  H    1.000098
   141  H    1.000180
   142  H    1.000001
   143  H    1.000053
   144  H    1.000173
   145  H    0.999980
   146  H    1.000010
   147  H    0.999902
   148  H    1.000068
   149  H    0.999954
   150  H    1.000033
   151  H    0.999854
   152  H    0.999795
   153  H    0.999627
   154  H    0.999695
   155  H    0.999894
   156  H    0.999948
   157  H    0.999904
   158  H    0.999916
 Sum of Mulliken charges = 624.00000

 Dipole moment (field-independent basis, Debye):
    X=             -5.4321    Y=             -4.0658    Z=              7.1989  Tot=              9.8926
 Quadrupole moment (field-independent basis, Debye-Ang):
   XX=           -258.1406   YY=              0.8949   ZZ=             -0.7001
   XY=           -101.3064   XZ=            184.4691   YZ=              0.2782

 Normal termination of Gaussian 16 at Fri Oct 15 07:10:13 2021.
