 Gaussian 16, Revision A.03,
 Gaussian 16:  ES64L-G16RevA.03 25-Dec-2016

 --------------------------------------------------------
 #p PBE1PBE/Def2SVP td=(nstates=5) density=(transition=1)
 --------------------------------------------------------

 --------------------------------
 TDDFT excited states in gaussian
 --------------------------------
 Symbolic Z-matrix:
 Charge =  0 Multiplicity = 1

                         Standard orientation:
 ---------------------------------------------------------------------
 Center     Atomic      Atomic             Coordinates (Angstroms)
 Number     Number       Type             X           Y           Z
 ---------------------------------------------------------------------
      1         12           0       16.409589    0.673533   -0.309470
      2          6           0       15.804376   -2.067968    1.832518
      3          6           0       14.128723    2.527608    1.433578
      4          6           0       16.539773    2.904787   -2.733237
      5          6           0       18.373482   -1.493848   -2.317313
      6          7           0       15.206020    0.276274    1.515504
      7          6           0       15.147863   -0.862600    2.177133
      8          6           0       14.490482   -0.599585    3.519919
      9          6           0       13.590879    0.665043    3.238490
     10          6           0       14.333588    1.219279    1.965939
     11          6           0       12.073800    0.268131    3.081385
     12          6           0       15.518992   -0.256460    4.628024
     13          6           0       15.016589   -0.463378    6.124246
     14          1           0       13.595716   -0.935873    6.443664
     15          7           0       15.640835    2.518556   -0.503348
     16          6           0       14.745007    3.197942    0.361558
     17          6           0       14.538098    4.566028   -0.168196
     18          6           0       15.191440    4.641262   -1.450502
     19          6           0       15.852797    3.334349   -1.655880
     20          6           0       13.776946    5.625411    0.547674
     21          6           0       15.321647    5.792271   -2.522485
     22          8           0       16.011811    5.711511   -3.547754
     23          6           0       14.454072    7.007795   -2.369021
     24          7           0       17.245301    0.663948   -2.331884
     25          6           0       17.210044    1.719054   -3.101730
     26          6           0       17.945902    1.587002   -4.405643
     27          6           0       18.550784    0.143332   -4.295011
     28          6           0       18.115303   -0.247155   -2.846898
     29          6           0       17.049937    1.922098   -5.601664
     30          6           0       20.064447    0.072379   -4.452912
     31          6           0       20.631752   -1.140449   -5.274146
     32          7           0       17.090691   -1.386577   -0.282826
     33          6           0       17.927204   -2.102169   -1.161761
     34          6           0       18.220133   -3.368100   -0.582827
     35          6           0       17.290822   -3.500002    0.497812
     36          6           0       16.681838   -2.282101    0.664942
     37          6           0       19.311022   -4.301776   -1.022889
     38          6           0       16.789408   -4.291316    1.647093
     39          8           0       17.058152   -5.423480    1.991246
     40          6           0       15.630663   -3.442066    2.356929
     41          6           0       15.572677   -3.745965    3.818223
     42          8           0       16.440266   -3.564850    4.620815
     43          8           0       14.368117   -4.388835    4.159694
     44          6           0       14.423573   -5.339998    5.290030
     45          1           0       13.283938    3.106597    1.813603
     46          1           0       16.764593    3.622944   -3.523774
     47          1           0       19.044432   -2.109265   -2.920381
     48          1           0       14.052737   -1.566517    3.767733
     49          1           0       13.662763    1.395857    4.044701
     50          1           0       11.953419   -0.809924    3.182802
     51          1           0       11.870540    0.463248    2.028407
     52          1           0       11.403836    0.727109    3.808533
     53          1           0       15.730765    0.802647    4.475653
     54          1           0       16.415015   -0.842643    4.424298
     55          1           0       15.191408    0.500929    6.603797
     56          1           0       15.737676   -1.153364    6.563158
     57          1           0       13.487616    5.462859    1.585301
     58          1           0       12.818616    5.837774    0.074575
     59          1           0       14.453970    6.479939    0.535802
     60          1           0       14.886928    7.786504   -1.741229
     61          1           0       13.566153    6.534780   -1.947748
     62          1           0       14.246692    7.355788   -3.380575
     63          1           0       18.726290    2.339903   -4.295790
     64          1           0       18.132847   -0.567285   -5.007010
     65          1           0       15.986449    1.772554   -5.412777
     66          1           0       17.333935    1.211075   -6.376476
     67          1           0       17.181511    2.945861   -5.952642
     68          1           0       20.559152    0.034164   -3.482540
     69          1           0       20.336755    1.068248   -4.802152
     70          1           0       19.850406   -1.862214   -5.511555
     71          1           0       21.346861   -1.610843   -4.599599
     72          1           0       21.165210   -0.942601   -6.204447
     73          1           0       19.191261   -4.379207   -2.103627
     74          1           0       19.250580   -5.303663   -0.597442
     75          1           0       20.284990   -3.846474   -0.840679
     76          1           0       14.667703   -3.834896    2.032167
     77          1           0       13.796112   -4.943982    6.088644
     78          1           0       15.442704   -5.510762    5.638635
     79          1           0       14.004573   -6.268017    4.901112
     80         12           0      -16.225391    0.428832    0.610321
     81          6           0      -16.492685   -2.676878   -1.158725
     82          6           0      -12.714559    0.014091    0.464998
     83          6           0      -15.897234    3.632510    1.553215
     84          6           0      -19.592227    0.936889    0.044926
     85          7           0      -14.737931   -1.159730   -0.240369
     86          6           0      -15.154393   -2.269308   -0.921232
     87          6           0      -13.964463   -2.925469   -1.603408
     88          6           0      -12.803572   -2.190004   -0.811696
     89          6           0      -13.394562   -1.014570   -0.131181
     90          6           0      -11.991645   -3.039134    0.223193
     91          6           0      -14.069926   -2.751147   -3.152482
     92          6           0      -13.778469   -3.981527   -4.106420
     93          1           0      -12.615057   -3.908464   -5.111658
     94          7           0      -14.634634    1.578260    1.130546
     95          6           0      -13.257507    1.248974    1.025331
     96          6           0      -12.435818    2.334286    1.528400
     97          6           0      -13.385942    3.391319    1.835822
     98          6           0      -14.697954    2.864236    1.510334
     99          6           0      -10.965639    2.271777    1.499552
    100          6           0      -12.960206    4.750908    2.416873
    101          8           0      -11.714624    4.949718    2.521123
    102          6           0      -13.919531    5.869766    2.875285
    103          7           0      -17.491511    2.217959    0.552791
    104          6           0      -17.180772    3.351103    1.152584
    105          6           0      -18.357603    4.268952    1.072206
    106          6           0      -19.529047    3.346562    0.640884
    107          6           0      -18.820692    2.072092    0.298337
    108          6           0      -18.744386    5.174409    2.318733
    109          6           0      -20.430272    3.900530   -0.579708
    110          6           0      -21.916649    4.237743   -0.306908
    111          7           0      -17.767207   -0.667929   -0.150105
    112          6           0      -19.061964   -0.349605   -0.317022
    113          6           0      -19.787839   -1.413229   -0.908370
    114          6           0      -18.811264   -2.365176   -1.210292
    115          6           0      -17.565935   -1.852495   -0.766923
    116          6           0      -21.229762   -1.568431   -1.182271
    117          6           0      -18.671385   -3.640686   -1.842411
    118          8           0      -19.520215   -4.306736   -2.391420
    119          6           0      -17.033137   -3.890049   -1.871790
    120          6           0      -16.703681   -5.124913   -1.150110
    121          8           0      -17.187314   -5.475600   -0.066304
    122          8           0      -15.746649   -5.776203   -1.898729
    123          6           0      -15.263794   -7.050361   -1.368943
    124          1           0      -11.625865   -0.057226    0.455147
    125          1           0      -15.841642    4.704226    1.753419
    126          1           0      -20.684276    0.951353    0.051532
    127          1           0      -13.946285   -3.958765   -1.255945
    128          1           0      -12.254675   -1.811374   -1.674734
    129          1           0      -12.071185   -2.536601    1.188224
    130          1           0      -10.927007   -3.113631    0.002715
    131          1           0      -12.372751   -4.043299    0.411461
    132          1           0      -13.306961   -1.985972   -3.293892
    133          1           0      -14.998059   -2.314799   -3.520945
    134          1           0      -14.718809   -4.151020   -4.630629
    135          1           0      -13.725833   -4.879286   -3.491247
    136          1           0      -10.691153    2.017045    0.475627
    137          1           0      -10.616674    1.443401    2.115739
    138          1           0      -10.410484    3.119747    1.901470
    139          1           0      -14.365314    6.314636    1.985487
    140          1           0      -13.347246    6.418558    3.622505
    141          1           0      -14.681433    5.318156    3.427074
    142          1           0      -18.128475    4.998317    0.296257
    143          1           0      -20.017334    3.149507    1.595350
    144          1           0      -19.222923    6.048780    1.876909
    145          1           0      -17.834301    5.408419    2.870858
    146          1           0      -19.466233    4.602656    2.902205
    147          1           0      -20.338913    3.121796   -1.336714
    148          1           0      -19.895588    4.740264   -1.023430
    149          1           0      -22.591235    3.794242   -1.038047
    150          1           0      -22.031414    5.322009   -0.306985
    151          1           0      -22.252794    3.959409    0.692084
    152          1           0      -21.501182   -2.612000   -1.338446
    153          1           0      -21.265317   -0.977824   -2.097889
    154          1           0      -21.773432   -0.919203   -0.496073
    155          1           0      -16.639961   -3.818326   -2.885244
    156          1           0      -16.085833   -7.723190   -1.123651
    157          1           0      -14.639874   -6.872045   -0.491902
    158          1           0      -14.663616   -7.540631   -2.135481
 ---------------------------------------------------------------------

 SCF Done:  E(RPBE1PBE) =  -4067.34752618     A.U. after   16 cycles

 Excitation energies and oscillator strengths:

 Excited State   1:      Singlet-A      1.8632 eV  665.45 nm  f=0.3725  <S**2>=0.000
     309 -> 316       -0.18020
     311 -> 313        0.69205
     311 <- 313       -0.10909
 This state for optimization and/or second-order correction.
 Total Energy, E(TD-HF/TD-DFT) =  -4067.27905585
 Copying the excited state density for this state as the 1-particle RhoCI density.

 Excited State   2:      Singlet-A      1.8895 eV  656.16 nm  f=0.3661  <S**2>=0.000
     310 -> 315       -0.18724
     312 -> 314        0.68521

 Excited State   3:      Singlet-A      1.9335 eV  641.25 nm  f=0.0000  <S**2>=0.000
     312 -> 313        0.70710

 Excited State   4:      Singlet-A      2.0478 eV  605.45 nm  f=0.0000  <S**2>=0.000
     311 -> 314        0.70710

 Excited State   5:      Singlet-A      2.1351 eV  580.69 nm  f=0.0939  <S**2>=0.000
     310 -> 314        0.65946
     312 -> 315        0.23140

 The electronic state is 1-A.
 Alpha  occ. eigenvalues --  -46.92313 -46.91929 -19.26874 -19.24062 -19.20737
 Alpha  occ. eigenvalues --  -19.20186 -19.19986 -19.19877 -19.18909 -19.18453
 Alpha  occ. eigenvalues --  -14.41473 -14.41411 -14.41129 -14.40989 -14.39627
 Alpha  occ. eigenvalues --  -14.39469 -14.39302 -14.37907 -10.37044 -10.35689
 Alpha  occ. eigenvalues --  -10.33616 -10.32602 -10.32505 -10.32277 -10.29646
 Alpha  occ. eigenvalues --  -10.29633 -10.28951 -10.28796 -10.28517 -10.28303
 Alpha  occ. eigenvalues --  -10.28201 -10.28171 -10.28138 -10.28069 -10.28054
 Alpha  occ. eigenvalues --  -10.28040 -10.27994 -10.27844 -10.27771 -10.27458
 Alpha  occ. eigenvalues --  -10.26779 -10.26498 -10.26495 -10.26344 -10.26315
 Alpha  occ. eigenvalues --  -10.26268 -10.25940 -10.25932 -10.25851 -10.25819
 Alpha  occ. eigenvalues --  -10.25773 -10.25625 -10.25533 -10.25528 -10.25464
 Alpha  occ. eigenvalues --  -10.25446 -10.25441 -10.25424 -10.25384 -10.25215
 Alpha  occ. eigenvalues --  -10.25174 -10.25122 -10.25097 -10.25092 -10.24933
 Alpha  occ. eigenvalues --  -10.24923 -10.24828 -10.24579 -10.24320 -10.24181
 Alpha  occ. eigenvalues --  -10.24035 -10.23935 -10.23920 -10.23900 -10.23824
 Alpha  occ. eigenvalues --  -10.23716 -10.23661 -10.23537 -10.23473 -10.23392
 Alpha  occ. eigenvalues --  -10.23325 -10.23248 -10.22869 -10.22578 -10.22559
 Alpha  occ. eigenvalues --  -10.22309  -3.14447  -3.13973  -1.87276  -1.86825
 Alpha  occ. eigenvalues --   -1.86808  -1.86687  -1.86346  -1.86192  -1.11258
 Alpha  occ. eigenvalues --   -1.10064  -1.05596  -1.04871  -1.04597  -1.02923
 Alpha  occ. eigenvalues --   -1.02015  -1.01959  -1.00137  -0.99699  -0.99427
 Alpha  occ. eigenvalues --   -0.99122  -0.98358  -0.97056  -0.96674  -0.95287
 Alpha  occ. eigenvalues --   -0.87505  -0.86361  -0.83694  -0.83568  -0.83096
 Alpha  occ. eigenvalues --   -0.82634  -0.82437  -0.82311  -0.81990  -0.81840
 Alpha  occ. eigenvalues --   -0.81608  -0.81484  -0.80367  -0.80065  -0.78962
 Alpha  occ. eigenvalues --   -0.78184  -0.78131  -0.78118  -0.76999  -0.76788
 Alpha  occ. eigenvalues --   -0.76236  -0.75927  -0.75720  -0.75061  -0.74815
 Alpha  occ. eigenvalues --   -0.74222  -0.72721  -0.72604  -0.71978  -0.71514
 Alpha  occ. eigenvalues --   -0.71216  -0.70803  -0.70599  -0.69772  -0.69733
 Alpha  occ. eigenvalues --   -0.69417  -0.67691  -0.67017  -0.66687  -0.66154
 Alpha  occ. eigenvalues --   -0.64213  -0.64187  -0.63863  -0.62994  -0.62870
 Alpha  occ. eigenvalues --   -0.61766  -0.61240  -0.60969  -0.60611  -0.60423
 Alpha  occ. eigenvalues --   -0.60172  -0.59673  -0.59593  -0.59316  -0.59059
 Alpha  occ. eigenvalues --   -0.58063  -0.57516  -0.55738  -0.54741  -0.54579
 Alpha  occ. eigenvalues --   -0.54517  -0.54075  -0.53761  -0.53492  -0.53109
 Alpha  occ. eigenvalues --   -0.52940  -0.52675  -0.52246  -0.52210  -0.51505
 Alpha  occ. eigenvalues --   -0.50926  -0.50796  -0.50443  -0.50175  -0.50049
 Alpha  occ. eigenvalues --   -0.49746  -0.49462  -0.49137  -0.48778  -0.48338
 Alpha  occ. eigenvalues --   -0.47990  -0.47779  -0.47742  -0.47665  -0.47582
 Alpha  occ. eigenvalues --   -0.47383  -0.47125  -0.46783  -0.46626  -0.46625
 Alpha  occ. eigenvalues --   -0.46339  -0.46320  -0.45951  -0.45939  -0.45896
 Alpha  occ. eigenvalues --   -0.45724  -0.45354  -0.45190  -0.45048  -0.44982
 Alpha  occ. eigenvalues --   -0.44850  -0.44603  -0.44543  -0.44518  -0.44248
 Alpha  occ. eigenvalues --   -0.44056  -0.44029  -0.43722  -0.43504  -0.43178
 Alpha  occ. eigenvalues --   -0.42978  -0.42952  -0.42677  -0.42581  -0.42474
 Alpha  occ. eigenvalues --   -0.42455  -0.42381  -0.42355  -0.42180  -0.42168
 Alpha  occ. eigenvalues --   -0.41957  -0.41778  -0.41765  -0.41397  -0.41157
 Alpha  occ. eigenvalues --   -0.41077  -0.41046  -0.40914  -0.40809  -0.40717
 Alpha  occ. eigenvalues --   -0.40397  -0.40389  -0.40308  -0.40075  -0.39861
 Alpha  occ. eigenvalues --   -0.39812  -0.39759  -0.39336  -0.39136  -0.38660
 Alpha  occ. eigenvalues --   -0.38591  -0.38533  -0.38458  -0.38374  -0.38122
 Alpha  occ. eigenvalues --   -0.38035  -0.37965  -0.37945  -0.37787  -0.37670
 Alpha  occ. eigenvalues --   -0.37525  -0.37399  -0.37249  -0.36983  -0.36863
 Alpha  occ. eigenvalues --   -0.36578  -0.36451  -0.36448  -0.36291  -0.36150
 Alpha  occ. eigenvalues --   -0.36036  -0.35943  -0.35856  -0.35724  -0.35304
 Alpha  occ. eigenvalues --   -0.35205  -0.35120  -0.34907  -0.33967  -0.33960
 Alpha  occ. eigenvalues --   -0.33768  -0.33659  -0.33246  -0.32753  -0.32665
 Alpha  occ. eigenvalues --   -0.32603  -0.32530  -0.31543  -0.31461  -0.30887
 Alpha  occ. eigenvalues --   -0.30822  -0.30410  -0.29941  -0.29393  -0.29297
 Alpha  occ. eigenvalues --   -0.29028  -0.28662  -0.28441  -0.27017  -0.26659
 Alpha  occ. eigenvalues --   -0.26364  -0.26137  -0.25769  -0.25736  -0.25351
 Alpha  occ. eigenvalues --   -0.25230  -0.24933  -0.24257  -0.21172  -0.20582
 Alpha  occ. eigenvalues --   -0.18970  -0.18888
 Alpha virt. eigenvalues --   -0.11376  -0.11033  -0.05500  -0.05247  -0.04186
 Alpha virt. eigenvalues --   -0.03953  -0.02067  -0.01757  -0.00572  -0.00211
 Alpha virt. eigenvalues --   -0.00015   0.00258   0.00873   0.01331   0.01809

 Mulliken charges:
               1
     1  Mg  11.999853
     2  C    6.000688
     3  C    5.999567
     4  C    5.999639
     5  C    6.000377
     6  N    7.000173
     7  C    5.998886
     8  C    6.000157
     9  C    5.999588
    10  C    6.001188
    11  C    6.000010
    12  C    6.000099
    13  C    5.999976
    14  H    1.000046
    15  N    6.999802
    16  C    6.001233
    17  C    6.000851
    18  C    6.000622
    19  C    6.000683
    20  C    5.999748
    21  C    6.000540
    22  O    8.000910
    23  C    5.999898
    24  N    7.000097
    25  C    6.000980
    26  C    5.999785
    27  C    6.000324
    28  C    5.998823
    29  C    5.999836
    30  C    6.000265
    31  C    6.000015
    32  N    6.999970
    33  C    5.998866
    34  C    5.998872
    35  C    5.999799
    36  C    5.999159
    37  C    6.000042
    38  C    5.999407
    39  O    7.998912
    40  C    5.999915
    41  C    5.999833
    42  O    7.999763
    43  O    7.999968
    44  C    6.000061
    45  H    1.000423
    46  H    1.000201
    47  H    0.999587
    48  H    1.000226
    49  H    1.000137
    50  H    1.000426
    51  H    0.999997
    52  H    1.000309
    53  H    0.999557
    54  H    1.000162
    55  H    0.999857
    56  H    1.000005
    57  H    1.000734
    58  H    1.000906
    59  H    1.000517
    60  H    1.000361
    61  H    1.000200
    62  H    1.000491
    63  H    0.999835
    64  H    0.999831
    65  H    1.000020
    66  H    1.000295
    67  H    0.999868
    68  H    0.999992
    69  H    0.999546
    70  H    1.000047
    71  H    1.000042
    72  H    0.999702
    73  H    0.999339
    74  H    0.999414
    75  H    0.999222
    76  H    0.999881
    77  H    0.999869
    78  H    0.999893
    79  H    0.999883
    80  Mg  12.000490
    81  C    5.986408
    82  C    6.018289
    83  C    6.015384
    84  C    5.980185
    85  N    7.004072
    86  C    6.026062
    87  C    5.992805
    88  C    6.008548
    89  C    5.970368
    90  C    6.002221
    91  C    5.992747
    92  C    5.999405
    93  H    1.009675
    94  N    7.002932
    95  C    5.954326
    96  C    5.980345
    97  C    5.988179
    98  C    5.968587
    99  C    6.003897
   100  C    5.987022
   101  O    7.978136
   102  C    5.998170
   103  N    6.999835
   104  C    5.968749
   105  C    6.010301
   106  C    5.989261
   107  C    6.034468
   108  C    6.001454
   109  C    5.998459
   110  C    5.998889
   111  N    6.999548
   112  C    6.035222
   113  C    6.027611
   114  C    6.004211
   115  C    6.027715
   116  C    6.001196
   117  C    6.015876
   118  O    8.026287
   119  C    6.003929
   120  C    6.004938
   121  O    8.004399
   122  O    8.002529
   123  C    5.997742
   124  H    0.991831
   125  H    0.992763
   126  H    1.006410
   127  H    0.999636
   128  H    0.998056
   129  H    1.004898
   130  H    0.998558
   131  H    0.987782
   132  H    1.011844
   133  H    0.994848
   134  H    0.996526
   135  H    0.999950
   136  H    0.981119
   137  H    0.980533
   138  H    0.986798
   139  H    0.989561
   140  H    0.988532
   141  H    0.992504
   142  H    0.998953
   143  H    1.002143
   144  H    0.994734
   145  H    1.007383
   146  H    0.993205
   147  H    0.994245
   148  H    1.009046
   149  H    0.997849
   150  H    1.005631
   151  H    1.001225
   152  H    1.012632
   153  H    1.018591
   154  H    1.018513
   155  H    1.009379
   156  H    1.001840
   157  H    1.006443
   158  H    1.005164
 Sum of Mulliken charges = 624.00000

 Dipole moment (field-independent basis, Debye):
    X=             -7.6580    Y=             -5.7631    Z=             -3.6871  Tot=             10.2690
 Quadrupole moment (field-independent basis, Debye-Ang):
   XX=            235.4546   YY=             -3.1434   ZZ=             -1.3476
   XY=             99.1739   XZ=             55.7984   YZ=             -3.2410

 Normal termination of Gaussian 16 at Thu Oct 14 06:45:13 2021.
