 Gaussian 16, Revision A.03,
 Gaussian 16:  ES64L-G16RevA.03 25-Dec-2016

 --------------------------------------------------------
 #p PBE1PBE/Def2SVP td=(nstates=5) density=(transition=1)
 --------------------------------------------------------

 --------------------------------
 TDDFT excited states in gaussian
 --------------------------------
 Symbolic Z-matrix:
 Charge =  0 Multiplicity = 1

                         Standard orientation:
 ---------------------------------------------------------------------
 Center     Atomic      Atomic             Coordinates (Angstroms)
 Number     Number       Type             X           Y           Z
 ---------------------------------------------------------------------
      1         12           0        4.939090   -0.055468    1.150666
      2          6           0        4.453724   -3.246103   -0.057764
      3          6           0        2.388986   -0.647884    3.353631
      4          6           0        5.209832    3.160743    2.144194
      5          6           0        7.091313    0.622492   -1.494602
      6          7           0        3.498202   -1.786420    1.448264
      7          6           0        3.614993   -2.982240    1.014816
      8          6           0        2.600475   -4.076612    1.632459
      9          6           0        1.741706   -3.097702    2.526808
     10          6           0        2.520216   -1.703149    2.402654
     11          6           0        0.222884   -2.861995    2.022117
     12          6           0        3.283908   -5.260077    2.445255
     13          6           0        2.575353   -6.660922    2.431146
     14          1           0        1.186239   -6.705558    1.869901
     15          7           0        4.025762    1.054004    2.563322
     16          6           0        3.000265    0.611859    3.488545
     17          6           0        2.712721    1.725892    4.386061
     18          6           0        3.439863    2.871783    3.977834
     19          6           0        4.305338    2.382322    2.881020
     20          6           0        1.778926    1.461776    5.511901
     21          6           0        3.497236    4.302963    4.561529
     22          8           0        4.073570    5.231383    4.077697
     23          6           0        2.578291    4.546047    5.775828
     24          7           0        5.906380    1.735496    0.403547
     25          6           0        5.883116    2.910518    0.948575
     26          6           0        6.539664    3.982963    0.033675
     27          6           0        7.236940    3.151274   -1.069468
     28          6           0        6.747114    1.727075   -0.716639
     29          6           0        5.486178    4.976486   -0.500717
     30          6           0        8.784736    3.342272   -1.073806
     31          6           0        9.268617    4.711048   -1.579266
     32          7           0        5.666359   -1.080955   -0.485226
     33          6           0        6.617396   -0.691915   -1.411735
     34          6           0        6.869345   -1.837415   -2.245865
     35          6           0        6.023433   -2.902945   -1.815059
     36          6           0        5.350166   -2.336143   -0.698708
     37          6           0        7.758819   -1.860182   -3.348484
     38          6           0        5.637654   -4.270880   -1.955603
     39          8           0        5.978970   -5.097221   -2.853514
     40          6           0        4.508169   -4.492443   -0.876249
     41          6           0        3.304350   -4.873419   -1.583682
     42          8           0        2.534860   -4.079762   -2.124739
     43          8           0        3.294772   -6.243182   -1.655657
     44          6           0        2.261216   -6.768236   -2.572826
     45          1           0        1.562308   -0.798609    4.050354
     46          1           0        5.261229    4.179305    2.536241
     47          1           0        7.827207    0.865895   -2.264401
     48          1           0        2.020456   -4.398901    0.767324
     49          1           0        1.675512   -3.481763    3.544561
     50          1           0        0.171085   -3.145464    0.970514
     51          1           0       -0.042206   -1.810911    2.135302
     52          1           0       -0.554310   -3.412861    2.552855
     53          1           0        3.279473   -4.897345    3.472776
     54          1           0        4.365160   -5.357278    2.341659
     55          1           0        2.517097   -7.133862    3.411395
     56          1           0        3.124572   -7.328059    1.766711
     57          1           0        0.744235    1.579738    5.188757
     58          1           0        2.049885    1.993387    6.424190
     59          1           0        1.919381    0.419451    5.797153
     60          1           0        2.929736    4.102774    6.708067
     61          1           0        1.644397    4.106887    5.426456
     62          1           0        2.339492    5.587350    5.990013
     63          1           0        7.270092    4.441268    0.699980
     64          1           0        6.809706    3.402394   -2.040270
     65          1           0        4.462181    4.604518   -0.541358
     66          1           0        5.584640    5.323561   -1.529818
     67          1           0        5.533750    5.832765    0.171994
     68          1           0        9.225518    2.608023   -1.746691
     69          1           0        9.180636    3.162848   -0.073648
     70          1           0        8.386804    5.328869   -1.749047
     71          1           0        9.633242    4.598694   -2.600418
     72          1           0       10.050574    5.231851   -1.027153
     73          1           0        8.651292   -1.348719   -2.987724
     74          1           0        7.435421   -1.326039   -4.241759
     75          1           0        7.877778   -2.893849   -3.674893
     76          1           0        4.876705   -5.350789   -0.313919
     77          1           0        2.556696   -6.449788   -3.572914
     78          1           0        1.256215   -6.493517   -2.254225
     79          1           0        2.319092   -7.856119   -2.534033
     80         12           0       -4.064823    1.008021   -1.181231
     81          6           0       -6.774364   -0.995709   -0.104476
     82          6           0       -2.064966   -1.804845   -1.175717
     83          6           0       -1.423081    2.994598   -1.927110
     84          6           0       -6.080304    3.868206   -0.965404
     85          7           0       -4.453266   -1.087316   -0.580657
     86          6           0       -5.671206   -1.734553   -0.386365
     87          6           0       -5.480156   -3.301664   -0.263576
     88          6           0       -3.936273   -3.440202   -0.339382
     89          6           0       -3.413603   -2.023998   -0.668901
     90          6           0       -3.182178   -4.034296    0.908627
     91          6           0       -6.353757   -4.202326   -1.229666
     92          6           0       -7.275433   -5.165568   -0.544800
     93          1           0       -7.457090   -6.569956   -1.245647
     94          7           0       -2.085553    0.605632   -1.480512
     95          6           0       -1.434550   -0.610937   -1.510552
     96          6           0       -0.019965   -0.396179   -1.772329
     97          6           0        0.221410    0.987985   -2.001730
     98          6           0       -1.141746    1.612114   -1.828578
     99          6           0        1.007273   -1.532577   -1.948539
    100          6           0        1.509567    1.712353   -2.379146
    101          8           0        1.568636    2.897444   -2.634965
    102          6           0        2.905851    0.995312   -2.589444
    103          7           0       -3.775511    3.169142   -1.320465
    104          6           0       -2.610309    3.717707   -1.638684
    105          6           0       -2.704569    5.281708   -1.744176
    106          6           0       -4.259195    5.536167   -1.623259
    107          6           0       -4.768506    4.098094   -1.304147
    108          6           0       -1.769983    5.992484   -0.723002
    109          6           0       -4.831162    6.185611   -2.867851
    110          6           0       -5.848332    7.289384   -2.583639
    111          7           0       -5.985207    1.484026   -0.529419
    112          6           0       -6.708486    2.659933   -0.586562
    113          6           0       -7.992195    2.398379   -0.011941
    114          6           0       -8.106579    0.996226    0.157197
    115          6           0       -6.836353    0.443410   -0.167293
    116          6           0       -9.046216    3.403563    0.260138
    117          6           0       -9.035506   -0.096206    0.495404
    118          8           0      -10.176550   -0.110320    0.947861
    119          6           0       -8.106947   -1.520129    0.272066
    120          6           0       -8.087704   -2.276989    1.484784
    121          8           0       -7.142638   -2.345245    2.240404
    122          8           0       -9.236332   -3.024831    1.612679
    123          6           0       -9.285716   -3.784623    2.886640
    124          1           0       -1.428658   -2.682686   -1.307407
    125          1           0       -0.600064    3.685960   -2.117044
    126          1           0       -6.658511    4.794151   -1.010792
    127          1           0       -5.680843   -3.510288    0.786729
    128          1           0       -3.648058   -4.074942   -1.177371
    129          1           0       -2.405166   -4.691665    0.517228
    130          1           0       -3.904264   -4.570381    1.524015
    131          1           0       -2.702654   -3.287541    1.541800
    132          1           0       -5.644181   -4.709700   -1.883400
    133          1           0       -6.984133   -3.523614   -1.804442
    134          1           0       -8.274726   -4.733348   -0.478253
    135          1           0       -6.843371   -5.263354    0.450723
    136          1           0        1.298148   -1.487465   -2.997442
    137          1           0        0.495245   -2.490358   -1.852900
    138          1           0        1.910448   -1.456238   -1.341833
    139          1           0        2.775596    0.226750   -3.352078
    140          1           0        3.396651    0.741021   -1.649535
    141          1           0        3.582722    1.801636   -2.870321
    142          1           0       -2.426471    5.668655   -2.724294
    143          1           0       -4.391776    6.133640   -0.721074
    144          1           0       -2.357856    6.732053   -0.178620
    145          1           0       -0.873098    6.414073   -1.177534
    146          1           0       -1.400724    5.267001    0.000004
    147          1           0       -5.287624    5.458326   -3.538468
    148          1           0       -4.081256    6.616833   -3.532833
    149          1           0       -6.128926    7.311577   -1.530558
    150          1           0       -6.737186    7.039584   -3.163663
    151          1           0       -5.528896    8.259221   -2.965383
    152          1           0       -8.822199    4.442830    0.019836
    153          1           0       -9.433788    3.172253    1.253032
    154          1           0       -9.757959    3.225742   -0.546383
    155          1           0       -8.556441   -2.113713   -0.524505
    156          1           0       -9.238325   -3.095505    3.730121
    157          1           0       -8.475859   -4.512185    2.833555
    158          1           0      -10.219904   -4.328637    3.020514
 ---------------------------------------------------------------------

 SCF Done:  E(RPBE1PBE) =  -4067.39535462     A.U. after   16 cycles

 Excitation energies and oscillator strengths:

 Excited State   1:      Singlet-A      1.5953 eV  777.21 nm  f=0.0000  <S**2>=0.000
     312 -> 313        0.70693
 This state for optimization and/or second-order correction.
 Total Energy, E(TD-HF/TD-DFT) =  -4067.33673016
 Copying the excited state density for this state as the 1-particle RhoCI density.

 Excited State   2:      Singlet-A      1.8787 eV  659.94 nm  f=0.2435  <S**2>=0.000
     310 -> 316       -0.16335
     311 -> 313        0.22543
     312 -> 314        0.65266

 Excited State   3:      Singlet-A      1.9059 eV  650.51 nm  f=0.4791  <S**2>=0.000
     309 -> 315        0.18116
     311 -> 313        0.64765
     312 -> 314       -0.22355

 Excited State   4:      Singlet-A      1.9291 eV  642.70 nm  f=0.0020  <S**2>=0.000
     311 -> 314        0.70533

 Excited State   5:      Singlet-A      2.1342 eV  580.95 nm  f=0.0002  <S**2>=0.000
     310 -> 313        0.70662

 The electronic state is 1-A.
 Alpha  occ. eigenvalues --  -46.92262 -46.91309 -19.26380 -19.24908 -19.20689
 Alpha  occ. eigenvalues --  -19.20413 -19.19708 -19.19382 -19.19182 -19.19173
 Alpha  occ. eigenvalues --  -14.42070 -14.41498 -14.41484 -14.40880 -14.39708
 Alpha  occ. eigenvalues --  -14.39443 -14.39193 -14.38339 -10.36566 -10.35200
 Alpha  occ. eigenvalues --  -10.33459 -10.33199 -10.32595 -10.32593 -10.29905
 Alpha  occ. eigenvalues --  -10.29668 -10.29304 -10.28890 -10.28758 -10.28604
 Alpha  occ. eigenvalues --  -10.28601 -10.28539 -10.28481 -10.28396 -10.28337
 Alpha  occ. eigenvalues --  -10.27866 -10.27845 -10.27488 -10.27305 -10.27229
 Alpha  occ. eigenvalues --  -10.27162 -10.27130 -10.27117 -10.26548 -10.26512
 Alpha  occ. eigenvalues --  -10.26436 -10.26367 -10.26106 -10.25924 -10.25795
 Alpha  occ. eigenvalues --  -10.25645 -10.25639 -10.25597 -10.25549 -10.25505
 Alpha  occ. eigenvalues --  -10.25463 -10.25433 -10.25397 -10.25231 -10.25187
 Alpha  occ. eigenvalues --  -10.25108 -10.25013 -10.24941 -10.24793 -10.24757
 Alpha  occ. eigenvalues --  -10.24746 -10.24588 -10.24414 -10.24235 -10.23882
 Alpha  occ. eigenvalues --  -10.23750 -10.23666 -10.23631 -10.23558 -10.23440
 Alpha  occ. eigenvalues --  -10.23337 -10.23068 -10.23033 -10.22999 -10.22966
 Alpha  occ. eigenvalues --  -10.22909 -10.22875 -10.22777 -10.22644 -10.22598
 Alpha  occ. eigenvalues --  -10.22590  -3.14465  -3.13420  -1.87305  -1.86841
 Alpha  occ. eigenvalues --   -1.86690  -1.86270  -1.85788  -1.85650  -1.11258
 Alpha  occ. eigenvalues --   -1.10549  -1.07323  -1.05347  -1.04083  -1.03097
 Alpha  occ. eigenvalues --   -1.02187  -1.02156  -1.00494  -0.99378  -0.98722
 Alpha  occ. eigenvalues --   -0.98362  -0.96670  -0.96209  -0.95699  -0.95309
 Alpha  occ. eigenvalues --   -0.87512  -0.86090  -0.83881  -0.83170  -0.82897
 Alpha  occ. eigenvalues --   -0.82507  -0.82414  -0.82242  -0.81808  -0.81677
 Alpha  occ. eigenvalues --   -0.81444  -0.80932  -0.80284  -0.79915  -0.78694
 Alpha  occ. eigenvalues --   -0.78392  -0.77963  -0.77731  -0.76953  -0.76570
 Alpha  occ. eigenvalues --   -0.76129  -0.75796  -0.74997  -0.74974  -0.74640
 Alpha  occ. eigenvalues --   -0.73380  -0.73057  -0.72007  -0.71523  -0.71147
 Alpha  occ. eigenvalues --   -0.70974  -0.70609  -0.70447  -0.69911  -0.69435
 Alpha  occ. eigenvalues --   -0.68679  -0.67089  -0.66357  -0.66283  -0.65448
 Alpha  occ. eigenvalues --   -0.63920  -0.63552  -0.63118  -0.63062  -0.62795
 Alpha  occ. eigenvalues --   -0.61687  -0.61651  -0.61263  -0.60665  -0.60056
 Alpha  occ. eigenvalues --   -0.59773  -0.59675  -0.59089  -0.59074  -0.58744
 Alpha  occ. eigenvalues --   -0.58656  -0.56845  -0.55572  -0.54784  -0.54405
 Alpha  occ. eigenvalues --   -0.54137  -0.53884  -0.53423  -0.53371  -0.53014
 Alpha  occ. eigenvalues --   -0.52970  -0.52629  -0.52351  -0.52140  -0.51403
 Alpha  occ. eigenvalues --   -0.50967  -0.50805  -0.50238  -0.50142  -0.49865
 Alpha  occ. eigenvalues --   -0.49624  -0.49003  -0.48823  -0.48681  -0.48355
 Alpha  occ. eigenvalues --   -0.48216  -0.48100  -0.47631  -0.47523  -0.47424
 Alpha  occ. eigenvalues --   -0.47187  -0.47144  -0.46872  -0.46827  -0.46489
 Alpha  occ. eigenvalues --   -0.46333  -0.46304  -0.46077  -0.45990  -0.45950
 Alpha  occ. eigenvalues --   -0.45728  -0.45578  -0.45392  -0.45062  -0.45017
 Alpha  occ. eigenvalues --   -0.44635  -0.44488  -0.44236  -0.44106  -0.44052
 Alpha  occ. eigenvalues --   -0.43937  -0.43687  -0.43597  -0.43486  -0.43352
 Alpha  occ. eigenvalues --   -0.43168  -0.42950  -0.42843  -0.42748  -0.42456
 Alpha  occ. eigenvalues --   -0.42413  -0.42261  -0.42022  -0.41877  -0.41589
 Alpha  occ. eigenvalues --   -0.41540  -0.41362  -0.41159  -0.41015  -0.40926
 Alpha  occ. eigenvalues --   -0.40879  -0.40757  -0.40612  -0.40406  -0.40221
 Alpha  occ. eigenvalues --   -0.40072  -0.39907  -0.39715  -0.39564  -0.39488
 Alpha  occ. eigenvalues --   -0.39368  -0.39309  -0.38981  -0.38832  -0.38761
 Alpha  occ. eigenvalues --   -0.38647  -0.38507  -0.38236  -0.38187  -0.38111
 Alpha  occ. eigenvalues --   -0.38010  -0.37928  -0.37922  -0.37693  -0.37598
 Alpha  occ. eigenvalues --   -0.37414  -0.37233  -0.37114  -0.36979  -0.36793
 Alpha  occ. eigenvalues --   -0.36726  -0.36664  -0.36441  -0.36358  -0.36210
 Alpha  occ. eigenvalues --   -0.35799  -0.35730  -0.35549  -0.35230  -0.35042
 Alpha  occ. eigenvalues --   -0.34922  -0.34705  -0.34545  -0.34330  -0.34185
 Alpha  occ. eigenvalues --   -0.33520  -0.33352  -0.33203  -0.33003  -0.32469
 Alpha  occ. eigenvalues --   -0.32352  -0.32315  -0.31964  -0.31752  -0.31658
 Alpha  occ. eigenvalues --   -0.31087  -0.30782  -0.29981  -0.29764  -0.29416
 Alpha  occ. eigenvalues --   -0.29053  -0.28748  -0.28375  -0.27309  -0.26630
 Alpha  occ. eigenvalues --   -0.26482  -0.26151  -0.25913  -0.25646  -0.25500
 Alpha  occ. eigenvalues --   -0.25332  -0.25250  -0.24356  -0.21049  -0.20589
 Alpha  occ. eigenvalues --   -0.19231  -0.18517
 Alpha virt. eigenvalues --   -0.11332  -0.10633  -0.05537  -0.04967  -0.04639
 Alpha virt. eigenvalues --   -0.03702  -0.02666  -0.01959  -0.00493   0.00009
 Alpha virt. eigenvalues --    0.00306   0.00485   0.00980   0.01271   0.01671

 Mulliken charges:
               1
     1  Mg  11.999996
     2  C    6.000100
     3  C    5.999859
     4  C    6.000188
     5  C    6.000225
     6  N    6.999865
     7  C    5.999891
     8  C    5.999995
     9  C    6.000093
    10  C    6.000311
    11  C    5.999936
    12  C    6.000069
    13  C    6.000008
    14  H    0.999946
    15  N    7.000042
    16  C    6.000208
    17  C    5.999952
    18  C    6.000034
    19  C    5.999987
    20  C    6.000015
    21  C    6.000051
    22  O    8.000065
    23  C    5.999993
    24  N    7.000106
    25  C    5.999993
    26  C    5.999993
    27  C    6.000012
    28  C    5.999874
    29  C    5.999896
    30  C    6.000019
    31  C    5.999987
    32  N    7.000009
    33  C    5.999874
    34  C    6.000043
    35  C    5.999980
    36  C    5.999870
    37  C    5.999965
    38  C    5.999874
    39  O    7.999792
    40  C    5.999961
    41  C    5.999901
    42  O    7.999979
    43  O    7.999980
    44  C    6.000014
    45  H    1.000002
    46  H    1.000069
    47  H    1.000001
    48  H    0.999968
    49  H    0.999956
    50  H    1.000041
    51  H    0.999882
    52  H    0.999950
    53  H    0.999924
    54  H    1.000017
    55  H    0.999960
    56  H    1.000009
    57  H    1.000062
    58  H    1.000030
    59  H    1.000057
    60  H    1.000046
    61  H    1.000026
    62  H    1.000051
    63  H    0.999999
    64  H    1.000012
    65  H    1.000106
    66  H    1.000068
    67  H    0.999993
    68  H    1.000022
    69  H    0.999983
    70  H    0.999986
    71  H    1.000014
    72  H    0.999995
    73  H    0.999954
    74  H    0.999970
    75  H    1.000013
    76  H    0.999914
    77  H    0.999986
    78  H    0.999957
    79  H    0.999963
    80  Mg  12.000090
    81  C    6.000005
    82  C    6.000221
    83  C    5.999952
    84  C    5.999917
    85  N    6.999993
    86  C    5.999992
    87  C    5.999993
    88  C    6.000162
    89  C    5.999760
    90  C    5.999716
    91  C    5.999988
    92  C    6.000002
    93  H    1.000002
    94  N    7.000002
    95  C    5.999785
    96  C    6.000281
    97  C    5.999922
    98  C    6.000076
    99  C    6.000086
   100  C    5.999971
   101  O    7.999847
   102  C    6.000051
   103  N    6.999928
   104  C    6.000022
   105  C    5.999996
   106  C    5.999973
   107  C    6.000114
   108  C    6.000017
   109  C    5.999988
   110  C    6.000002
   111  N    6.999952
   112  C    6.000093
   113  C    6.000029
   114  C    6.000048
   115  C    6.000049
   116  C    5.999999
   117  C    6.000041
   118  O    8.000086
   119  C    6.000030
   120  C    6.000019
   121  O    8.000015
   122  O    8.000005
   123  C    5.999994
   124  H    1.000019
   125  H    0.999996
   126  H    1.000015
   127  H    0.999958
   128  H    0.999922
   129  H    1.000155
   130  H    1.000137
   131  H    1.000118
   132  H    1.000021
   133  H    0.999951
   134  H    0.999979
   135  H    0.999995
   136  H    0.999969
   137  H    0.999908
   138  H    0.999409
   139  H    0.999990
   140  H    1.000056
   141  H    0.999925
   142  H    1.000050
   143  H    1.000027
   144  H    0.999999
   145  H    1.000022
   146  H    0.999990
   147  H    1.000018
   148  H    1.000030
   149  H    0.999998
   150  H    1.000005
   151  H    1.000016
   152  H    1.000036
   153  H    1.000029
   154  H    1.000036
   155  H    1.000031
   156  H    1.000000
   157  H    1.000018
   158  H    1.000014
 Sum of Mulliken charges = 624.00000

 Dipole moment (field-independent basis, Debye):
    X=             -0.0355    Y=              0.0448    Z=              0.0252  Tot=              0.0625
 Quadrupole moment (field-independent basis, Debye-Ang):
   XX=              0.1182   YY=             -0.0399   ZZ=              0.0491
   XY=              0.1348   XZ=              0.0820   YZ=              0.0119

 Normal termination of Gaussian 16 at Fri Oct 15 11:40:23 2021.
