 Gaussian 16, Revision A.03,
 Gaussian 16:  ES64L-G16RevA.03 25-Dec-2016

 --------------------------------------------------------
 #p PBE1PBE/Def2SVP td=(nstates=5) density=(transition=1)
 --------------------------------------------------------

 --------------------------------
 TDDFT excited states in gaussian
 --------------------------------
 Symbolic Z-matrix:
 Charge =  0 Multiplicity = 1

                         Standard orientation:
 ---------------------------------------------------------------------
 Center     Atomic      Atomic             Coordinates (Angstroms)
 Number     Number       Type             X           Y           Z
 ---------------------------------------------------------------------
      1         12           0      -29.631811    0.242336    0.538859
      2          6           0      -27.061161   -1.467252   -0.995751
      3          6           0      -29.746795    2.288067   -2.398769
      4          6           0      -31.835402    2.157993    1.997492
      5          6           0      -29.184075   -1.590775    3.437901
      6          7           0      -28.332318    0.489588   -1.414256
      7          6           0      -27.530764   -0.464360   -1.857420
      8          6           0      -27.319633   -0.345742   -3.393307
      9          6           0      -27.734259    1.152500   -3.603790
     10          6           0      -28.680095    1.383405   -2.414381
     11          6           0      -26.500617    2.123569   -3.584090
     12          6           0      -28.283253   -1.366839   -4.037982
     13          6           0      -28.166647   -1.554710   -5.556711
     14          1           0      -27.333593   -0.594585   -6.381929
     15          7           0      -30.751877    1.889551   -0.056169
     16          6           0      -30.663189    2.550754   -1.329310
     17          6           0      -31.764928    3.502872   -1.362371
     18          6           0      -32.450285    3.388553   -0.112584
     19          6           0      -31.666995    2.468440    0.710749
     20          6           0      -32.125250    4.417295   -2.592078
     21          6           0      -33.791387    4.083709    0.294543
     22          8           0      -34.163495    3.969940    1.430243
     23          6           0      -34.558684    4.895811   -0.697676
     24          7           0      -30.474176    0.217155    2.443228
     25          6           0      -31.393960    1.124959    2.840902
     26          6           0      -31.801608    0.969177    4.305500
     27          6           0      -31.048259   -0.319161    4.710089
     28          6           0      -30.160965   -0.589085    3.427560
     29          6           0      -31.473263    2.192774    5.237676
     30          6           0      -31.872302   -1.471674    5.224894
     31          6           0      -33.153735   -1.935412    4.491105
     32          7           0      -28.404407   -1.221781    1.188398
     33          6           0      -28.325418   -1.890880    2.376152
     34          6           0      -27.348597   -2.945880    2.206898
     35          6           0      -26.810740   -2.874702    0.875896
     36          6           0      -27.504799   -1.770675    0.309405
     37          6           0      -26.979115   -3.924626    3.277493
     38          6           0      -25.863217   -3.392704   -0.052854
     39          8           0      -25.012603   -4.306295    0.018804
     40          6           0      -25.840884   -2.265189   -1.222596
     41          6           0      -25.665542   -3.015615   -2.543849
     42          8           0      -26.335705   -3.899571   -2.920373
     43          8           0      -24.569000   -2.502208   -3.176011
     44          6           0      -24.402544   -2.785390   -4.586732
     45          1           0      -29.730524    2.947590   -3.268430
     46          1           0      -32.528832    2.795668    2.549773
     47          1           0      -28.980779   -2.192362    4.325435
     48          1           0      -26.272569   -0.454298   -3.675724
     49          1           0      -28.269198    1.134364   -4.553629
     50          1           0      -26.272326    2.437696   -4.601829
     51          1           0      -25.665016    1.590261   -3.130413
     52          1           0      -26.686598    3.052350   -3.044685
     53          1           0      -29.296480   -0.997859   -3.880967
     54          1           0      -28.287027   -2.318462   -3.507359
     55          1           0      -29.112169   -1.820641   -6.029860
     56          1           0      -27.693409   -2.530579   -5.667071
     57          1           0      -32.240140    5.464536   -2.310888
     58          1           0      -33.027833    3.983759   -3.022464
     59          1           0      -31.367713    4.297887   -3.367602
     60          1           0      -35.579207    4.789176   -0.329221
     61          1           0      -34.570533    4.446319   -1.689952
     62          1           0      -34.205528    5.881872   -0.999320
     63          1           0      -32.880100    0.814772    4.280684
     64          1           0      -30.272095   -0.142109    5.454584
     65          1           0      -31.213190    1.760459    6.203522
     66          1           0      -32.429185    2.715556    5.275695
     67          1           0      -30.739286    2.845703    4.765484
     68          1           0      -32.309138   -1.007604    6.108516
     69          1           0      -31.347863   -2.391682    5.485228
     70          1           0      -34.102991   -1.873000    5.021543
     71          1           0      -33.133548   -3.007621    4.296153
     72          1           0      -33.274881   -1.350248    3.579392
     73          1           0      -26.183614   -4.535430    2.851599
     74          1           0      -27.817832   -4.592799    3.477494
     75          1           0      -26.756162   -3.489123    4.251076
     76          1           0      -25.011446   -1.608858   -0.958418
     77          1           0      -23.393859   -3.162392   -4.417234
     78          1           0      -24.565678   -1.921433   -5.231340
     79          1           0      -25.017823   -3.605482   -4.957757
     80         12           0       30.025597    0.240617   -0.138297
     81          6           0       26.789277   -1.086246   -0.537185
     82          6           0       28.528227    3.379094   -0.097615
     83          6           0       32.958473    1.588682    0.681780
     84          6           0       31.108953   -2.947893    0.700239
     85          7           0       27.842041    0.983195   -0.141321
     86          6           0       26.675262    0.306055   -0.437967
     87          6           0       25.504910    1.176274   -0.845434
     88          6           0       26.072209    2.610940   -0.726540
     89          6           0       27.551103    2.357080   -0.285907
     90          6           0       25.966385    3.466758   -2.053542
     91          6           0       24.169776    1.019997    0.010801
     92          6           0       24.305720    0.654667    1.497965
     93          1           0       24.086334    1.775255    2.557082
     94          7           0       30.637549    2.170286    0.221687
     95          6           0       29.901483    3.317455    0.132590
     96          6           0       30.770828    4.486673    0.325326
     97          6           0       32.086670    3.979642    0.553781
     98          6           0       31.921138    2.494641    0.499617
     99          6           0       30.277133    5.926760    0.253332
    100          6           0       33.246866    4.986191    0.898635
    101          8           0       32.966189    6.172918    0.993247
    102          6           0       34.708081    4.448210    1.202725
    103          7           0       31.704861   -0.546592    0.692820
    104          6           0       32.883811    0.187393    0.801380
    105          6           0       34.127089   -0.780215    1.226145
    106          6           0       33.358694   -2.205022    1.351516
    107          6           0       31.981635   -1.866947    0.878284
    108          6           0       35.279833   -0.770723    0.179413
    109          6           0       33.338089   -2.839130    2.808131
    110          6           0       33.797870   -4.293535    2.993367
    111          7           0       29.191858   -1.697899   -0.059942
    112          6           0       29.718305   -2.911095    0.302910
    113          6           0       28.649220   -3.928860    0.224409
    114          6           0       27.499788   -3.226894   -0.227781
    115          6           0       27.900619   -1.865439   -0.329838
    116          6           0       28.742845   -5.389762    0.567670
    117          6           0       26.063737   -3.408596   -0.511646
    118          8           0       25.342745   -4.413317   -0.598631
    119          6           0       25.609906   -2.015209   -0.920685
    120          6           0       25.190493   -1.944946   -2.279862
    121          8           0       26.013475   -1.876340   -3.229231
    122          8           0       23.785660   -1.926715   -2.386909
    123          6           0       23.195741   -1.693275   -3.701167
    124          1           0       28.144608    4.390083   -0.247756
    125          1           0       33.965647    1.993620    0.796840
    126          1           0       31.542739   -3.925333    0.919335
    127          1           0       25.326101    0.863127   -1.873361
    128          1           0       25.600496    3.037450    0.157976
    129          1           0       25.238943    4.266049   -1.912172
    130          1           0       25.644202    2.773393   -2.830885
    131          1           0       26.921883    3.926413   -2.308390
    132          1           0       23.698652    0.173488   -0.490372
    133          1           0       23.550403    1.905961   -0.130867
    134          1           0       25.282800    0.213147    1.696917
    135          1           0       23.615912   -0.161421    1.708973
    136          1           0       30.155224    6.416868    1.219294
    137          1           0       29.434024    6.018349   -0.431530
    138          1           0       30.981558    6.548730   -0.298693
    139          1           0       34.954325    3.741975    0.409458
    140          1           0       34.678884    3.963865    2.178404
    141          1           0       35.434941    5.233091    1.411859
    142          1           0       34.561000   -0.330604    2.118774
    143          1           0       33.813934   -2.874379    0.621221
    144          1           0       35.118396   -1.615463   -0.489928
    145          1           0       36.268405   -0.754686    0.638435
    146          1           0       35.329798    0.138125   -0.420026
    147          1           0       32.327449   -2.698170    3.192667
    148          1           0       34.041507   -2.191551    3.331513
    149          1           0       33.425873   -4.725633    3.922758
    150          1           0       34.882561   -4.190419    3.013494
    151          1           0       33.400818   -4.810313    2.119392
    152          1           0       29.551878   -5.437277    1.296079
    153          1           0       29.094351   -5.823875   -0.368309
    154          1           0       27.801250   -5.865280    0.843803
    155          1           0       24.778641   -1.852432   -0.235035
    156          1           0       23.364279   -2.449355   -4.468049
    157          1           0       23.539556   -0.737827   -4.098500
    158          1           0       22.141677   -1.475246   -3.528595
 ---------------------------------------------------------------------

 SCF Done:  E(RPBE1PBE) =  -4067.36342590     A.U. after   16 cycles

 Excitation energies and oscillator strengths:

 Excited State   1:      Singlet-A      1.8697 eV  663.14 nm  f=0.3632  <S**2>=0.000
     309 -> 316        0.17510
     312 -> 314        0.69208
     312 <- 314       -0.10391
 This state for optimization and/or second-order correction.
 Total Energy, E(TD-HF/TD-DFT) =  -4067.29471697
 Copying the excited state density for this state as the 1-particle RhoCI density.

 Excited State   2:      Singlet-A      1.8859 eV  657.44 nm  f=0.3690  <S**2>=0.000
     310 -> 315       -0.19016
     311 -> 313        0.68800
     311 <- 313       -0.10013

 Excited State   3:      Singlet-A      1.9929 eV  622.12 nm  f=0.0000  <S**2>=0.000
     312 -> 313        0.70711

 Excited State   4:      Singlet-A      2.1110 eV  587.32 nm  f=0.0000  <S**2>=0.000
     311 -> 314        0.70711

 Excited State   5:      Singlet-A      2.2137 eV  560.07 nm  f=0.0902  <S**2>=0.000
     310 -> 313        0.64980
     311 -> 315        0.26392

 The electronic state is 1-A.
 Alpha  occ. eigenvalues --  -46.92347 -46.91655 -19.26407 -19.25016 -19.20427
 Alpha  occ. eigenvalues --  -19.20390 -19.19792 -19.19463 -19.19344 -19.19189
 Alpha  occ. eigenvalues --  -14.42055 -14.41719 -14.41243 -14.41166 -14.39525
 Alpha  occ. eigenvalues --  -14.39013 -14.39006 -14.38915 -10.36967 -10.35860
 Alpha  occ. eigenvalues --  -10.33639 -10.32531 -10.32454 -10.32148 -10.29554
 Alpha  occ. eigenvalues --  -10.29306 -10.29075 -10.28657 -10.28454 -10.28435
 Alpha  occ. eigenvalues --  -10.28434 -10.28371 -10.28364 -10.28281 -10.28242
 Alpha  occ. eigenvalues --  -10.28150 -10.27962 -10.27443 -10.27216 -10.27148
 Alpha  occ. eigenvalues --  -10.26927 -10.26689 -10.26488 -10.26272 -10.26253
 Alpha  occ. eigenvalues --  -10.26239 -10.26210 -10.26160 -10.26114 -10.26093
 Alpha  occ. eigenvalues --  -10.25929 -10.25901 -10.25866 -10.25625 -10.25617
 Alpha  occ. eigenvalues --  -10.25476 -10.25398 -10.25371 -10.25313 -10.25273
 Alpha  occ. eigenvalues --  -10.25244 -10.25170 -10.25106 -10.25014 -10.24652
 Alpha  occ. eigenvalues --  -10.24477 -10.24425 -10.24412 -10.24323 -10.24311
 Alpha  occ. eigenvalues --  -10.24261 -10.24253 -10.24180 -10.24074 -10.24059
 Alpha  occ. eigenvalues --  -10.23809 -10.23749 -10.23535 -10.23529 -10.23385
 Alpha  occ. eigenvalues --  -10.23375 -10.23148 -10.23021 -10.22838 -10.22681
 Alpha  occ. eigenvalues --  -10.22631  -3.14548  -3.13870  -1.87345  -1.86939
 Alpha  occ. eigenvalues --   -1.86774  -1.86712  -1.86261  -1.86084  -1.12337
 Alpha  occ. eigenvalues --   -1.09673  -1.06322  -1.05111  -1.04604  -1.03813
 Alpha  occ. eigenvalues --   -1.02666  -1.01770  -0.99868  -0.98856  -0.98650
 Alpha  occ. eigenvalues --   -0.98177  -0.97677  -0.97218  -0.96811  -0.96486
 Alpha  occ. eigenvalues --   -0.87520  -0.87329  -0.83653  -0.83483  -0.83089
 Alpha  occ. eigenvalues --   -0.83045  -0.82761  -0.82335  -0.81644  -0.81127
 Alpha  occ. eigenvalues --   -0.80698  -0.80448  -0.79941  -0.79808  -0.78823
 Alpha  occ. eigenvalues --   -0.78350  -0.78170  -0.77994  -0.77055  -0.76710
 Alpha  occ. eigenvalues --   -0.75954  -0.75858  -0.75724  -0.75233  -0.74599
 Alpha  occ. eigenvalues --   -0.74420  -0.72519  -0.72325  -0.71661  -0.71502
 Alpha  occ. eigenvalues --   -0.71067  -0.71006  -0.70835  -0.70172  -0.69889
 Alpha  occ. eigenvalues --   -0.69271  -0.67090  -0.66809  -0.66445  -0.66187
 Alpha  occ. eigenvalues --   -0.64627  -0.63644  -0.63336  -0.63287  -0.62834
 Alpha  occ. eigenvalues --   -0.62494  -0.61234  -0.60677  -0.60199  -0.59679
 Alpha  occ. eigenvalues --   -0.59653  -0.59412  -0.59108  -0.58813  -0.58736
 Alpha  occ. eigenvalues --   -0.58623  -0.57031  -0.56880  -0.55072  -0.54784
 Alpha  occ. eigenvalues --   -0.54189  -0.54136  -0.53711  -0.53612  -0.53368
 Alpha  occ. eigenvalues --   -0.53222  -0.52720  -0.52368  -0.52343  -0.51772
 Alpha  occ. eigenvalues --   -0.50752  -0.50663  -0.50578  -0.50236  -0.50070
 Alpha  occ. eigenvalues --   -0.49846  -0.49499  -0.48980  -0.48794  -0.48781
 Alpha  occ. eigenvalues --   -0.48389  -0.48271  -0.48063  -0.47659  -0.47604
 Alpha  occ. eigenvalues --   -0.47178  -0.46989  -0.46948  -0.46732  -0.46674
 Alpha  occ. eigenvalues --   -0.46592  -0.46252  -0.46163  -0.45800  -0.45476
 Alpha  occ. eigenvalues --   -0.45356  -0.45253  -0.45176  -0.44941  -0.44762
 Alpha  occ. eigenvalues --   -0.44621  -0.44553  -0.44261  -0.44109  -0.43944
 Alpha  occ. eigenvalues --   -0.43929  -0.43924  -0.43897  -0.43839  -0.43542
 Alpha  occ. eigenvalues --   -0.43343  -0.43220  -0.42928  -0.42908  -0.42841
 Alpha  occ. eigenvalues --   -0.42784  -0.42624  -0.42299  -0.42097  -0.41788
 Alpha  occ. eigenvalues --   -0.41532  -0.41413  -0.41349  -0.41245  -0.41135
 Alpha  occ. eigenvalues --   -0.40985  -0.40939  -0.40674  -0.40638  -0.40560
 Alpha  occ. eigenvalues --   -0.40229  -0.40080  -0.39928  -0.39755  -0.39686
 Alpha  occ. eigenvalues --   -0.39531  -0.39515  -0.39436  -0.39297  -0.38930
 Alpha  occ. eigenvalues --   -0.38700  -0.38690  -0.38183  -0.38157  -0.38037
 Alpha  occ. eigenvalues --   -0.37812  -0.37778  -0.37765  -0.37708  -0.37584
 Alpha  occ. eigenvalues --   -0.37453  -0.37256  -0.37214  -0.37068  -0.36939
 Alpha  occ. eigenvalues --   -0.36900  -0.36813  -0.36667  -0.36505  -0.36393
 Alpha  occ. eigenvalues --   -0.36299  -0.35967  -0.35825  -0.35529  -0.35238
 Alpha  occ. eigenvalues --   -0.35092  -0.34790  -0.34653  -0.34441  -0.34409
 Alpha  occ. eigenvalues --   -0.33855  -0.33322  -0.32797  -0.32606  -0.32529
 Alpha  occ. eigenvalues --   -0.32518  -0.32162  -0.32085  -0.32057  -0.31602
 Alpha  occ. eigenvalues --   -0.31283  -0.30873  -0.30126  -0.29984  -0.29122
 Alpha  occ. eigenvalues --   -0.29069  -0.28858  -0.28822  -0.26952  -0.26898
 Alpha  occ. eigenvalues --   -0.26206  -0.26029  -0.25978  -0.25617  -0.25616
 Alpha  occ. eigenvalues --   -0.25325  -0.25234  -0.24982  -0.21038  -0.20746
 Alpha  occ. eigenvalues --   -0.18725  -0.18485
 Alpha virt. eigenvalues --   -0.10936  -0.10744  -0.05341  -0.05276  -0.04003
 Alpha virt. eigenvalues --   -0.03976  -0.02393  -0.01801  -0.01169  -0.01030
 Alpha virt. eigenvalues --    0.00283   0.00816   0.01108   0.01296   0.01484

 Mulliken charges:
               1
     1  Mg  11.999976
     2  C    6.000060
     3  C    5.999783
     4  C    5.999833
     5  C    6.000131
     6  N    6.999941
     7  C    5.999723
     8  C    6.000039
     9  C    5.999907
    10  C    6.000348
    11  C    5.999973
    12  C    6.000074
    13  C    5.999986
    14  H    0.999937
    15  N    6.999955
    16  C    6.000539
    17  C    6.000123
    18  C    6.000212
    19  C    6.000288
    20  C    5.999992
    21  C    6.000182
    22  O    8.000286
    23  C    5.999939
    24  N    7.000039
    25  C    6.000356
    26  C    5.999890
    27  C    6.000046
    28  C    5.999700
    29  C    6.000000
    30  C    6.000069
    31  C    6.000018
    32  N    6.999975
    33  C    5.999699
    34  C    5.999617
    35  C    5.999981
    36  C    5.999811
    37  C    6.000048
    38  C    5.999732
    39  O    7.999605
    40  C    6.000042
    41  C    5.999922
    42  O    7.999945
    43  O    7.999980
    44  C    6.000018
    45  H    1.000098
    46  H    1.000094
    47  H    0.999941
    48  H    1.000010
    49  H    1.000023
    50  H    1.000049
    51  H    1.000147
    52  H    0.999967
    53  H    0.999869
    54  H    1.000086
    55  H    0.999963
    56  H    1.000027
    57  H    1.000170
    58  H    1.000163
    59  H    1.000174
    60  H    1.000168
    61  H    1.000075
    62  H    1.000126
    63  H    1.000005
    64  H    1.000036
    65  H    1.000123
    66  H    0.999985
    67  H    1.000003
    68  H    0.999921
    69  H    1.000055
    70  H    0.999970
    71  H    1.000035
    72  H    0.999895
    73  H    0.999852
    74  H    0.999739
    75  H    0.999765
    76  H    0.999910
    77  H    0.999954
    78  H    0.999926
    79  H    0.999957
    80  Mg  12.002851
    81  C    5.984806
    82  C    6.010338
    83  C    6.021360
    84  C    5.985890
    85  N    6.996110
    86  C    6.031469
    87  C    5.989019
    88  C    6.010809
    89  C    5.964249
    90  C    6.003552
    91  C    5.999086
    92  C    5.997418
    93  H    1.014152
    94  N    7.005812
    95  C    5.959950
    96  C    5.980485
    97  C    5.987962
    98  C    5.961806
    99  C    6.004136
   100  C    5.989392
   101  O    7.983189
   102  C    5.999855
   103  N    7.001208
   104  C    5.965404
   105  C    6.007493
   106  C    5.987784
   107  C    6.033161
   108  C    6.003643
   109  C    5.995466
   110  C    5.999603
   111  N    6.999056
   112  C    6.038432
   113  C    6.026574
   114  C    6.004623
   115  C    6.027859
   116  C    6.000884
   117  C    6.019443
   118  O    8.028138
   119  C    6.000126
   120  C    6.003368
   121  O    8.006564
   122  O    8.001801
   123  C    5.996262
   124  H    0.989351
   125  H    0.992627
   126  H    1.007316
   127  H    0.999950
   128  H    0.996017
   129  H    0.994805
   130  H    0.987754
   131  H    1.006022
   132  H    0.994688
   133  H    1.008134
   134  H    0.995244
   135  H    0.997622
   136  H    0.981158
   137  H    0.984352
   138  H    0.985377
   139  H    0.992868
   140  H    0.990579
   141  H    0.988284
   142  H    1.001131
   143  H    1.001216
   144  H    0.989730
   145  H    0.995551
   146  H    1.004881
   147  H    0.998218
   148  H    1.012058
   149  H    1.001202
   150  H    1.005776
   151  H    0.995865
   152  H    1.015568
   153  H    1.017904
   154  H    1.014229
   155  H    1.009724
   156  H    1.002534
   157  H    1.006772
   158  H    1.004904
 Sum of Mulliken charges = 624.00000

 Dipole moment (field-independent basis, Debye):
    X=             -4.2338    Y=             -9.1807    Z=             -0.4907  Tot=             10.1218
 Quadrupole moment (field-independent basis, Debye-Ang):
   XX=           -240.7815   YY=             -6.3154   ZZ=              1.3786
   XY=           -279.3370   XZ=            -12.7320   YZ=             -2.0998

 Normal termination of Gaussian 16 at Thu Oct 14 07:51:37 2021.
