 Gaussian 16, Revision A.03,
 Gaussian 16:  ES64L-G16RevA.03 25-Dec-2016

 --------------------------------------------------------
 #p PBE1PBE/Def2SVP td=(nstates=5) density=(transition=1)
 --------------------------------------------------------

 --------------------------------
 TDDFT excited states in gaussian
 --------------------------------
 Symbolic Z-matrix:
 Charge =  0 Multiplicity = 1

                         Standard orientation:
 ---------------------------------------------------------------------
 Center     Atomic      Atomic             Coordinates (Angstroms)
 Number     Number       Type             X           Y           Z
 ---------------------------------------------------------------------
      1         12           0       13.659334   -0.923304   -0.246022
      2          6           0       14.158882    2.467173    0.344346
      3          6           0       10.351495   -0.279722   -0.868014
      4          6           0       13.169138   -4.286544   -0.496126
      5          6           0       17.059227   -1.377345    0.685590
      6          7           0       12.397890    0.870222   -0.226543
      7          6           0       12.870980    2.146900   -0.074691
      8          6           0       11.680800    3.080566   -0.308641
      9          6           0       10.459910    2.181274   -0.385929
     10          6           0       11.125324    0.818521   -0.541178
     11          6           0        9.426351    2.224293    0.707410
     12          6           0       11.833999    4.100268   -1.535418
     13          6           0       10.549024    4.901539   -1.920713
     14          1           0       10.312163    6.285391   -1.261231
     15          7           0       12.017093   -2.077512   -0.772971
     16          6           0       10.746339   -1.641017   -0.957903
     17          6           0        9.941794   -2.808602   -1.207946
     18          6           0       10.767275   -3.965439   -1.091669
     19          6           0       12.033662   -3.492050   -0.753269
     20          6           0        8.481225   -2.672229   -1.509471
     21          6           0       10.293392   -5.446641   -1.155980
     22          8           0       10.970570   -6.356872   -0.712722
     23          6           0        8.979060   -5.850935   -1.628160
     24          7           0       14.875847   -2.479590    0.035758
     25          6           0       14.491167   -3.805021   -0.164198
     26          6           0       15.651915   -4.793324    0.043491
     27          6           0       16.879719   -3.823981    0.127640
     28          6           0       16.220009   -2.459888    0.245530
     29          6           0       15.457143   -5.836844    1.064292
     30          6           0       18.033370   -3.895187   -1.018721
     31          6           0       19.486502   -4.202298   -0.644634
     32          7           0       15.338739    0.301322    0.462446
     33          6           0       16.614317   -0.055348    0.799377
     34          6           0       17.382265    1.080137    1.185513
     35          6           0       16.453327    2.164159    0.947962
     36          6           0       15.194352    1.604696    0.591385
     37          6           0       18.806770    1.027727    1.588134
     38          6           0       16.343146    3.604282    0.908997
     39          8           0       17.130041    4.517152    1.065756
     40          6           0       14.772499    3.850070    0.505937
     41          6           0       14.111085    4.793611    1.442987
     42          8           0       13.897052    4.544388    2.609095
     43          8           0       13.763353    5.949374    0.850419
     44          6           0       12.859717    6.881432    1.628151
     45          1           0        9.308598   -0.074574   -1.119582
     46          1           0       12.983231   -5.359496   -0.575627
     47          1           0       18.071934   -1.719297    0.909895
     48          1           0       11.704098    3.646551    0.622502
     49          1           0        9.879841    2.438042   -1.271969
     50          1           0        9.654287    1.277567    1.196196
     51          1           0        8.410893    2.319054    0.322475
     52          1           0        9.643270    2.987461    1.455129
     53          1           0       12.112353    3.424883   -2.344691
     54          1           0       12.633908    4.810055   -1.327906
     55          1           0        9.642297    4.349877   -1.675676
     56          1           0       10.552575    5.035366   -3.002453
     57          1           0        8.067308   -1.669239   -1.617900
     58          1           0        7.965694   -3.082771   -0.641895
     59          1           0        8.160150   -3.281999   -2.354209
     60          1           0        8.087052   -5.346349   -1.258351
     61          1           0        8.767216   -6.918397   -1.568352
     62          1           0        9.069756   -5.691594   -2.702425
     63          1           0       15.631149   -5.244048   -0.949112
     64          1           0       17.220950   -4.073915    1.132098
     65          1           0       15.431409   -6.870151    0.717240
     66          1           0       14.512526   -5.628418    1.567325
     67          1           0       16.240491   -5.870471    1.821377
     68          1           0       18.047745   -2.929650   -1.523963
     69          1           0       17.879437   -4.591935   -1.843578
     70          1           0       20.153057   -3.339463   -0.645012
     71          1           0       19.921987   -5.056594   -1.162157
     72          1           0       19.497522   -4.470968    0.411767
     73          1           0       18.937670    0.200691    2.285571
     74          1           0       19.164690    1.974005    1.992896
     75          1           0       19.368627    0.645068    0.735476
     76          1           0       14.799705    4.345515   -0.464035
     77          1           0       13.034036    7.833272    1.126948
     78          1           0       13.177472    6.884808    2.670608
     79          1           0       11.838547    6.542454    1.453160
     80         12           0      -14.247653    0.022735    0.280428
     81          6           0      -11.606506    1.773215   -1.263351
     82          6           0      -15.067247   -1.123580   -2.762412
     83          6           0      -16.322395   -1.935015    1.875191
     84          6           0      -12.681799    0.848266    3.384790
     85          7           0      -13.381252    0.275613   -1.765216
     86          6           0      -12.377228    1.071950   -2.202850
     87          6           0      -12.194110    1.049410   -3.706831
     88          6           0      -13.524665    0.309544   -4.134795
     89          6           0      -14.059056   -0.248633   -2.832070
     90          6           0      -14.591537    1.224526   -4.866186
     91          6           0      -10.910834    0.399306   -4.386136
     92          6           0       -9.962706   -0.541065   -3.595650
     93          1           0       -9.266260   -1.715279   -4.379838
     94          7           0      -15.627542   -1.263667   -0.431266
     95          6           0      -15.754420   -1.692155   -1.679992
     96          6           0      -16.771655   -2.778015   -1.716124
     97          6           0      -17.268198   -2.894550   -0.315760
     98          6           0      -16.378413   -2.012498    0.440016
     99          6           0      -17.286272   -3.409211   -2.981689
    100          6           0      -18.343950   -3.834709    0.161629
    101          8           0      -18.933615   -4.524570   -0.666438
    102          6           0      -18.751391   -4.068455    1.663124
    103          7           0      -14.420603   -0.588362    2.411569
    104          6           0      -15.478288   -1.263853    2.701631
    105          6           0      -15.572332   -1.342856    4.290356
    106          6           0      -14.264396   -0.655472    4.687824
    107          6           0      -13.712347   -0.088827    3.393960
    108          6           0      -16.811548   -0.768583    4.996982
    109          6           0      -13.131210   -1.676739    5.220380
    110          6           0      -12.738332   -1.552815    6.703937
    111          7           0      -12.503941    1.011467    0.984819
    112          6           0      -12.069507    1.372194    2.232885
    113          6           0      -10.989480    2.388373    2.138144
    114          6           0      -10.668713    2.497614    0.755438
    115          6           0      -11.721318    1.704662    0.122840
    116          6           0      -10.200776    3.023584    3.305007
    117          6           0       -9.824915    3.066830   -0.241669
    118          8           0       -8.765328    3.716030   -0.214627
    119          6           0      -10.440644    2.685120   -1.611852
    120          6           0      -10.767560    3.997030   -2.331111
    121          8           0      -10.254885    4.570543   -3.255165
    122          8           0      -12.009018    4.439697   -1.861702
    123          6           0      -12.601318    5.653409   -2.505081
    124          1           0      -15.306267   -1.487351   -3.764097
    125          1           0      -17.061345   -2.576927    2.360894
    126          1           0      -12.385859    1.293099    4.336776
    127          1           0      -12.287718    2.092414   -4.008748
    128          1           0      -13.282175   -0.484092   -4.841657
    129          1           0      -14.252279    2.258894   -4.910486
    130          1           0      -15.404070    1.228560   -4.140462
    131          1           0      -14.835372    0.797712   -5.839229
    132          1           0      -10.319786    1.222625   -4.787480
    133          1           0      -11.224794   -0.150416   -5.274102
    134          1           0      -10.574617   -0.974479   -2.804531
    135          1           0       -9.056620   -0.053158   -3.237724
    136          1           0      -18.203028   -3.980174   -2.836015
    137          1           0      -16.445665   -3.951997   -3.415589
    138          1           0      -17.414367   -2.561805   -3.655991
    139          1           0      -19.007884   -3.231949    2.314271
    140          1           0      -17.897129   -4.508579    2.177556
    141          1           0      -19.612665   -4.729486    1.755417
    142          1           0      -15.601034   -2.375602    4.636150
    143          1           0      -14.287043    0.112953    5.461338
    144          1           0      -17.536658   -0.371802    4.286252
    145          1           0      -16.540124   -0.020620    5.742707
    146          1           0      -17.385617   -1.516970    5.543306
    147          1           0      -12.193358   -1.555816    4.679972
    148          1           0      -13.521085   -2.673971    5.015208
    149          1           0      -11.697411   -1.780441    6.934991
    150          1           0      -13.332669   -2.307749    7.218585
    151          1           0      -12.970922   -0.513599    6.936707
    152          1           0      -10.328236    2.533172    4.269518
    153          1           0      -10.599275    4.035744    3.370038
    154          1           0       -9.159025    3.116141    2.998938
    155          1           0       -9.708955    2.123715   -2.191907
    156          1           0      -11.928972    6.413731   -2.901921
    157          1           0      -13.125383    6.137498   -1.681212
    158          1           0      -13.369801    5.516306   -3.266101
 ---------------------------------------------------------------------

 SCF Done:  E(RPBE1PBE) =  -4067.36499958     A.U. after   16 cycles

 Excitation energies and oscillator strengths:

 Excited State   1:      Singlet-A      1.8281 eV  678.22 nm  f=0.0000  <S**2>=0.000
     312 -> 313        0.70710
 This state for optimization and/or second-order correction.
 Total Energy, E(TD-HF/TD-DFT) =  -4067.29781908
 Copying the excited state density for this state as the 1-particle RhoCI density.

 Excited State   2:      Singlet-A      1.8570 eV  667.65 nm  f=0.3970  <S**2>=0.000
     310 -> 316       -0.17282
     312 -> 314        0.69297
     312 <- 314       -0.11170

 Excited State   3:      Singlet-A      1.9110 eV  648.78 nm  f=0.3856  <S**2>=0.000
     309 -> 315       -0.17705
     311 -> 313        0.69107
     311 <- 313       -0.10571

 Excited State   4:      Singlet-A      2.0720 eV  598.38 nm  f=0.0000  <S**2>=0.000
     311 -> 314        0.70710

 Excited State   5:      Singlet-A      2.2289 eV  556.26 nm  f=0.0891  <S**2>=0.000
     310 -> 314        0.64389
     312 -> 316        0.27278

 The electronic state is 1-A.
 Alpha  occ. eigenvalues --  -46.93529 -46.91197 -19.25288 -19.24990 -19.20658
 Alpha  occ. eigenvalues --  -19.19603 -19.19209 -19.19032 -19.18860 -19.18405
 Alpha  occ. eigenvalues --  -14.42152 -14.41901 -14.41475 -14.41372 -14.40083
 Alpha  occ. eigenvalues --  -14.39952 -14.38660 -14.38035 -10.36935 -10.34882
 Alpha  occ. eigenvalues --  -10.32979 -10.32744 -10.32624 -10.31744 -10.29294
 Alpha  occ. eigenvalues --  -10.29255 -10.29183 -10.29136 -10.28864 -10.28797
 Alpha  occ. eigenvalues --  -10.28776 -10.28747 -10.28621 -10.28573 -10.28018
 Alpha  occ. eigenvalues --  -10.28013 -10.27870 -10.27704 -10.27701 -10.27377
 Alpha  occ. eigenvalues --  -10.27252 -10.27036 -10.26955 -10.26811 -10.26674
 Alpha  occ. eigenvalues --  -10.26672 -10.26566 -10.25968 -10.25933 -10.25871
 Alpha  occ. eigenvalues --  -10.25814 -10.25735 -10.25691 -10.25662 -10.25531
 Alpha  occ. eigenvalues --  -10.25291 -10.25258 -10.25252 -10.25232 -10.25045
 Alpha  occ. eigenvalues --  -10.25010 -10.24955 -10.24846 -10.24845 -10.24701
 Alpha  occ. eigenvalues --  -10.24669 -10.24627 -10.24600 -10.24531 -10.24456
 Alpha  occ. eigenvalues --  -10.24442 -10.24438 -10.24271 -10.24215 -10.24107
 Alpha  occ. eigenvalues --  -10.24096 -10.24053 -10.23732 -10.23636 -10.23344
 Alpha  occ. eigenvalues --  -10.23269 -10.23110 -10.23080 -10.22981 -10.22972
 Alpha  occ. eigenvalues --  -10.22898  -3.15588  -3.13435  -1.88416  -1.87960
 Alpha  occ. eigenvalues --   -1.87814  -1.86293  -1.85812  -1.85660  -1.10833
 Alpha  occ. eigenvalues --   -1.10541  -1.05627  -1.04514  -1.04209  -1.03967
 Alpha  occ. eigenvalues --   -1.02141  -1.01480  -1.01468  -0.99785  -0.99501
 Alpha  occ. eigenvalues --   -0.98775  -0.98733  -0.98101  -0.97881  -0.96932
 Alpha  occ. eigenvalues --   -0.87923  -0.86733  -0.84240  -0.83398  -0.83250
 Alpha  occ. eigenvalues --   -0.82966  -0.82953  -0.82696  -0.82578  -0.81813
 Alpha  occ. eigenvalues --   -0.81188  -0.81179  -0.80927  -0.79961  -0.79265
 Alpha  occ. eigenvalues --   -0.78836  -0.78257  -0.77932  -0.77247  -0.76725
 Alpha  occ. eigenvalues --   -0.76633  -0.76098  -0.75644  -0.75188  -0.75028
 Alpha  occ. eigenvalues --   -0.74852  -0.73060  -0.72905  -0.72055  -0.72053
 Alpha  occ. eigenvalues --   -0.71494  -0.71410  -0.71014  -0.70136  -0.69858
 Alpha  occ. eigenvalues --   -0.69452  -0.67813  -0.67170  -0.66958  -0.66201
 Alpha  occ. eigenvalues --   -0.64085  -0.63666  -0.63604  -0.63210  -0.63127
 Alpha  occ. eigenvalues --   -0.62652  -0.62141  -0.61378  -0.61278  -0.60241
 Alpha  occ. eigenvalues --   -0.60069  -0.60025  -0.59851  -0.59486  -0.59035
 Alpha  occ. eigenvalues --   -0.58685  -0.57737  -0.55933  -0.55200  -0.54999
 Alpha  occ. eigenvalues --   -0.54962  -0.54213  -0.54116  -0.53524  -0.53376
 Alpha  occ. eigenvalues --   -0.53254  -0.52812  -0.52507  -0.51746  -0.51625
 Alpha  occ. eigenvalues --   -0.51090  -0.50905  -0.50486  -0.50258  -0.50218
 Alpha  occ. eigenvalues --   -0.49688  -0.49685  -0.49290  -0.49136  -0.49013
 Alpha  occ. eigenvalues --   -0.48579  -0.48346  -0.48336  -0.47721  -0.47596
 Alpha  occ. eigenvalues --   -0.47443  -0.47293  -0.47065  -0.46848  -0.46688
 Alpha  occ. eigenvalues --   -0.46665  -0.46379  -0.46170  -0.45820  -0.45803
 Alpha  occ. eigenvalues --   -0.45702  -0.45540  -0.45368  -0.45276  -0.45002
 Alpha  occ. eigenvalues --   -0.44738  -0.44733  -0.44498  -0.44487  -0.44149
 Alpha  occ. eigenvalues --   -0.43983  -0.43858  -0.43781  -0.43623  -0.43556
 Alpha  occ. eigenvalues --   -0.43529  -0.43287  -0.43212  -0.43149  -0.42981
 Alpha  occ. eigenvalues --   -0.42790  -0.42673  -0.42388  -0.42354  -0.42241
 Alpha  occ. eigenvalues --   -0.42081  -0.41960  -0.41763  -0.41735  -0.41514
 Alpha  occ. eigenvalues --   -0.41421  -0.41281  -0.41162  -0.41147  -0.40907
 Alpha  occ. eigenvalues --   -0.40851  -0.40723  -0.40669  -0.40304  -0.40193
 Alpha  occ. eigenvalues --   -0.39843  -0.39754  -0.39735  -0.39506  -0.39166
 Alpha  occ. eigenvalues --   -0.39086  -0.38984  -0.38883  -0.38806  -0.38465
 Alpha  occ. eigenvalues --   -0.38459  -0.38212  -0.38001  -0.37989  -0.37759
 Alpha  occ. eigenvalues --   -0.37599  -0.37474  -0.37123  -0.37029  -0.36926
 Alpha  occ. eigenvalues --   -0.36704  -0.36582  -0.36378  -0.36257  -0.36205
 Alpha  occ. eigenvalues --   -0.36065  -0.35887  -0.35751  -0.35663  -0.35213
 Alpha  occ. eigenvalues --   -0.35032  -0.34963  -0.34387  -0.34182  -0.34147
 Alpha  occ. eigenvalues --   -0.33894  -0.33689  -0.33336  -0.32770  -0.32644
 Alpha  occ. eigenvalues --   -0.32238  -0.32048  -0.31850  -0.31615  -0.31404
 Alpha  occ. eigenvalues --   -0.31274  -0.30918  -0.30132  -0.29487  -0.29418
 Alpha  occ. eigenvalues --   -0.29184  -0.29166  -0.27815  -0.27508  -0.26657
 Alpha  occ. eigenvalues --   -0.26546  -0.26231  -0.25994  -0.25959  -0.25278
 Alpha  occ. eigenvalues --   -0.25134  -0.25130  -0.24612  -0.21488  -0.21051
 Alpha  occ. eigenvalues --   -0.19256  -0.18704
 Alpha virt. eigenvalues --   -0.11501  -0.11163  -0.05601  -0.05305  -0.04853
 Alpha virt. eigenvalues --   -0.03524  -0.02724  -0.01655  -0.01517   0.00089
 Alpha virt. eigenvalues --    0.00429   0.00637   0.00885   0.01181   0.01417

 Mulliken charges:
               1
     1  Mg  12.000000
     2  C    6.000000
     3  C    6.000000
     4  C    6.000000
     5  C    6.000000
     6  N    7.000000
     7  C    6.000000
     8  C    6.000000
     9  C    6.000000
    10  C    6.000000
    11  C    6.000000
    12  C    6.000000
    13  C    6.000000
    14  H    1.000000
    15  N    7.000000
    16  C    6.000000
    17  C    6.000000
    18  C    6.000000
    19  C    6.000000
    20  C    6.000000
    21  C    6.000000
    22  O    8.000000
    23  C    6.000000
    24  N    7.000000
    25  C    6.000000
    26  C    6.000000
    27  C    6.000000
    28  C    6.000000
    29  C    6.000000
    30  C    6.000000
    31  C    6.000000
    32  N    7.000000
    33  C    6.000000
    34  C    6.000000
    35  C    6.000000
    36  C    6.000000
    37  C    6.000000
    38  C    6.000000
    39  O    8.000000
    40  C    6.000000
    41  C    6.000000
    42  O    8.000000
    43  O    8.000000
    44  C    6.000000
    45  H    1.000000
    46  H    1.000000
    47  H    1.000000
    48  H    1.000000
    49  H    1.000000
    50  H    1.000000
    51  H    1.000000
    52  H    1.000000
    53  H    1.000000
    54  H    1.000000
    55  H    1.000000
    56  H    1.000000
    57  H    1.000000
    58  H    1.000000
    59  H    1.000000
    60  H    1.000000
    61  H    1.000000
    62  H    1.000000
    63  H    1.000000
    64  H    1.000000
    65  H    1.000000
    66  H    1.000000
    67  H    1.000000
    68  H    1.000000
    69  H    1.000000
    70  H    1.000000
    71  H    1.000000
    72  H    1.000000
    73  H    1.000000
    74  H    1.000000
    75  H    1.000000
    76  H    1.000000
    77  H    1.000000
    78  H    1.000000
    79  H    1.000000
    80  Mg  12.000000
    81  C    6.000000
    82  C    6.000000
    83  C    6.000000
    84  C    6.000000
    85  N    7.000000
    86  C    6.000000
    87  C    6.000000
    88  C    6.000000
    89  C    6.000000
    90  C    6.000000
    91  C    6.000000
    92  C    6.000000
    93  H    1.000000
    94  N    7.000000
    95  C    6.000000
    96  C    6.000000
    97  C    6.000000
    98  C    6.000000
    99  C    6.000000
   100  C    6.000000
   101  O    8.000000
   102  C    6.000000
   103  N    7.000000
   104  C    6.000000
   105  C    6.000000
   106  C    6.000000
   107  C    6.000000
   108  C    6.000000
   109  C    6.000000
   110  C    6.000000
   111  N    7.000000
   112  C    6.000000
   113  C    6.000000
   114  C    6.000000
   115  C    6.000000
   116  C    6.000000
   117  C    6.000000
   118  O    8.000000
   119  C    6.000000
   120  C    6.000000
   121  O    8.000000
   122  O    8.000000
   123  C    6.000000
   124  H    1.000000
   125  H    1.000000
   126  H    1.000000
   127  H    1.000000
   128  H    1.000000
   129  H    1.000000
   130  H    1.000000
   131  H    1.000000
   132  H    1.000000
   133  H    1.000000
   134  H    1.000000
   135  H    1.000000
   136  H    1.000000
   137  H    1.000000
   138  H    1.000000
   139  H    1.000000
   140  H    1.000000
   141  H    1.000000
   142  H    1.000000
   143  H    1.000000
   144  H    1.000000
   145  H    1.000000
   146  H    1.000000
   147  H    1.000000
   148  H    1.000000
   149  H    1.000000
   150  H    1.000000
   151  H    1.000000
   152  H    1.000000
   153  H    1.000000
   154  H    1.000000
   155  H    1.000000
   156  H    1.000000
   157  H    1.000000
   158  H    1.000000
 Sum of Mulliken charges = 624.00000

 Dipole moment (field-independent basis, Debye):
    X=             -0.0000    Y=             -0.0000    Z=             -0.0000  Tot=              0.0000
 Quadrupole moment (field-independent basis, Debye-Ang):
   XX=              0.0000   YY=              0.0000   ZZ=             -0.0000
   XY=              0.0000   XZ=              0.0000   YZ=              0.0000

 Normal termination of Gaussian 16 at Fri Oct 15 05:41:38 2021.
