 Gaussian 16, Revision A.03,
 Gaussian 16:  ES64L-G16RevA.03 25-Dec-2016

 --------------------------------------------------------
 #p PBE1PBE/Def2SVP td=(nstates=5) density=(transition=1)
 --------------------------------------------------------

 --------------------------------
 TDDFT excited states in gaussian
 --------------------------------
 Symbolic Z-matrix:
 Charge =  0 Multiplicity = 1

                         Standard orientation:
 ---------------------------------------------------------------------
 Center     Atomic      Atomic             Coordinates (Angstroms)
 Number     Number       Type             X           Y           Z
 ---------------------------------------------------------------------
      1         12           0       19.081966   -0.344436   -0.222806
      2          6           0       15.637383   -1.073623   -0.671792
      3          6           0       18.815794    1.848677   -2.922163
      4          6           0       21.787868    1.121985    0.945033
      5          6           0       18.908978   -2.474795    2.749671
      6          7           0       17.280113    0.495167   -1.501167
      7          6           0       16.100523   -0.157315   -1.649317
      8          6           0       15.395432    0.355472   -2.892198
      9          6           0       16.536479    0.759773   -3.825886
     10          6           0       17.617430    1.115731   -2.682278
     11          6           0       17.116822   -0.295219   -4.769568
     12          6           0       14.355528    1.488906   -2.486287
     13          6           0       13.051057    1.323468   -3.161501
     14          1           0       12.359455    2.591752   -3.698262
     15          7           0       20.187415    1.334368   -0.856828
     16          6           0       19.950667    2.054728   -2.053918
     17          6           0       21.006638    3.030206   -2.156579
     18          6           0       21.957218    2.825234   -1.121585
     19          6           0       21.351001    1.751785   -0.256092
     20          6           0       21.021181    4.043636   -3.296615
     21          6           0       23.181250    3.619729   -0.889035
     22          8           0       23.439174    4.542883   -1.651524
     23          6           0       24.134689    3.491310    0.253335
     24          7           0       20.149501   -0.615319    1.724208
     25          6           0       21.341244    0.012282    1.775501
     26          6           0       22.163934   -0.480278    2.979829
     27          6           0       21.317824   -1.770899    3.507628
     28          6           0       20.062843   -1.671764    2.602246
     29          6           0       23.711524   -0.714950    2.674108
     30          6           0       21.017843   -1.798137    5.039084
     31          6           0       19.607758   -1.308084    5.514861
     32          7           0       17.670865   -1.501686    0.811320
     33          6           0       17.782177   -2.348176    1.951024
     34          6           0       16.504108   -3.177103    2.065894
     35          6           0       15.685366   -2.638103    1.086418
     36          6           0       16.442093   -1.653506    0.355617
     37          6           0       16.074268   -4.302279    3.026852
     38          6           0       14.401921   -2.746170    0.468609
     39          8           0       13.481805   -3.539597    0.673436
     40          6           0       14.346465   -1.647973   -0.532456
     41          6           0       13.361810   -0.643617    0.108885
     42          8           0       13.598594    0.159869    1.008504
     43          8           0       12.088486   -0.867909   -0.484426
     44          6           0       10.984833   -0.155346    0.018111
     45          1           0       18.828121    2.479591   -3.813518
     46          1           0       22.768408    1.556147    1.150142
     47          1           0       18.810639   -3.242856    3.518753
     48          1           0       14.865364   -0.423675   -3.439770
     49          1           0       16.415910    1.593130   -4.517091
     50          1           0       16.458476   -1.147612   -4.934726
     51          1           0       18.155259   -0.522984   -4.527756
     52          1           0       17.138206    0.237235   -5.721137
     53          1           0       14.754418    2.453647   -2.799944
     54          1           0       14.265415    1.649851   -1.411955
     55          1           0       12.464975    0.833054   -2.385085
     56          1           0       13.188597    0.651560   -4.008553
     57          1           0       21.761414    3.811194   -4.061956
     58          1           0       21.140438    5.040568   -2.874870
     59          1           0       20.058273    4.051264   -3.807555
     60          1           0       24.658447    2.540337    0.153169
     61          1           0       23.694855    3.550605    1.249644
     62          1           0       24.983360    4.165554    0.144806
     63          1           0       22.028999    0.319381    3.707831
     64          1           0       21.830373   -2.675752    3.182824
     65          1           0       24.039028   -0.115244    1.824988
     66          1           0       24.087583   -1.735551    2.593717
     67          1           0       24.176385   -0.472837    3.631103
     68          1           0       21.764952   -1.256167    5.618341
     69          1           0       21.082809   -2.862690    5.262739
     70          1           0       19.949900   -0.913258    6.471783
     71          1           0       18.834852   -2.057132    5.688414
     72          1           0       19.296250   -0.505466    4.846064
     73          1           0       15.822079   -5.209344    2.478658
     74          1           0       15.118501   -3.864174    3.312801
     75          1           0       16.796478   -4.330835    3.842464
     76          1           0       13.914155   -2.023601   -1.459948
     77          1           0       10.036403   -0.381705   -0.470655
     78          1           0       11.189388    0.904564   -0.127686
     79          1           0       10.932011   -0.428814    1.072308
     80         12           0      -18.719561    0.485245    0.280816
     81          6           0      -15.677633   -1.120808   -0.804120
     82          6           0      -20.347280   -2.545557   -0.398960
     83          6           0      -21.477539    1.889735    1.376653
     84          6           0      -16.965878    3.493113    0.594582
     85          7           0      -18.016981   -1.608861   -0.554649
     86          6           0      -16.747512   -2.069335   -0.708475
     87          6           0      -16.703875   -3.582058   -0.850643
     88          6           0      -18.263025   -4.000639   -1.071936
     89          6           0      -18.924571   -2.647382   -0.681565
     90          6           0      -18.598168   -4.556557   -2.478644
     91          6           0      -16.037544   -4.286189    0.379310
     92          6           0      -14.826873   -5.183066    0.012484
     93          1           0      -15.061940   -6.769960    0.333436
     94          7           0      -20.585404   -0.210884    0.463235
     95          6           0      -21.143545   -1.487101    0.114083
     96          6           0      -22.590511   -1.599041    0.414548
     97          6           0      -22.866245   -0.311671    0.981262
     98          6           0      -21.636510    0.498018    0.958005
     99          6           0      -23.455650   -2.826960    0.123475
    100          6           0      -24.165771    0.234771    1.436087
    101          8           0      -24.317327    1.240119    2.121700
    102          6           0      -25.434951   -0.591184    1.148529
    103          7           0      -19.089813    2.335236    1.042714
    104          6           0      -20.337097    2.706523    1.411441
    105          6           0      -20.462649    4.185324    1.651676
    106          6           0      -19.025818    4.729134    1.457260
    107          6           0      -18.266156    3.444489    1.056413
    108          6           0      -21.539823    4.870823    0.837477
    109          6           0      -18.444587    5.342864    2.863166
    110          6           0      -17.889673    6.867648    2.789862
    111          7           0      -16.787438    1.169529   -0.284724
    112          6           0      -16.215226    2.432650    0.000487
    113          6           0      -14.797687    2.374194   -0.374088
    114          6           0      -14.562216    0.984935   -0.547853
    115          6           0      -15.795616    0.334111   -0.603777
    116          6           0      -13.766930    3.493545   -0.485567
    117          6           0      -13.499981    0.044359   -1.003643
    118          8           0      -12.286835    0.150519   -1.335988
    119          6           0      -14.201898   -1.367691   -1.051791
    120          6           0      -13.942284   -1.981353   -2.395986
    121          8           0      -14.027265   -1.391480   -3.435802
    122          8           0      -13.485799   -3.259973   -2.234131
    123          6           0      -12.889027   -3.811964   -3.476598
    124          1           0      -20.825947   -3.461098   -0.752098
    125          1           0      -22.360172    2.414925    1.748378
    126          1           0      -16.389168    4.411491    0.720941
    127          1           0      -16.169879   -3.780017   -1.780065
    128          1           0      -18.611471   -4.720106   -0.330468
    129          1           0      -19.271159   -3.884341   -3.011721
    130          1           0      -19.048845   -5.546726   -2.399588
    131          1           0      -17.744457   -4.767954   -3.122575
    132          1           0      -16.742707   -4.928520    0.907448
    133          1           0      -15.658099   -3.561569    1.100253
    134          1           0      -13.958099   -5.010380    0.648243
    135          1           0      -14.438805   -5.049762   -0.996847
    136          1           0      -22.936379   -3.770296   -0.048494
    137          1           0      -24.180937   -2.709883   -0.681666
    138          1           0      -24.049082   -2.968481    1.027315
    139          1           0      -25.578084   -0.705235    0.074038
    140          1           0      -26.321545   -0.167837    1.621784
    141          1           0      -25.294181   -1.579521    1.586076
    142          1           0      -20.820714    4.329133    2.671989
    143          1           0      -18.982054    5.447953    0.639569
    144          1           0      -22.409277    5.164520    1.426244
    145          1           0      -21.993868    4.256083    0.060363
    146          1           0      -21.089609    5.734962    0.348498
    147          1           0      -17.632548    4.761084    3.298095
    148          1           0      -19.197579    5.366539    3.650470
    149          1           0      -18.361213    7.305153    1.909675
    150          1           0      -16.802029    6.900921    2.714228
    151          1           0      -18.277165    7.471155    3.610259
    152          1           0      -12.761235    3.153046   -0.239883
    153          1           0      -13.983351    4.212225    0.305709
    154          1           0      -13.973188    3.929118   -1.463340
    155          1           0      -13.660492   -1.987080   -0.337163
    156          1           0      -13.631942   -3.707021   -4.267040
    157          1           0      -12.807494   -4.877870   -3.264331
    158          1           0      -11.972008   -3.371957   -3.868384
 ---------------------------------------------------------------------

 SCF Done:  E(RPBE1PBE) =  -4067.32284295     A.U. after   16 cycles

 Excitation energies and oscillator strengths:

 Excited State   1:      Singlet-A      1.8270 eV  678.61 nm  f=0.3783  <S**2>=0.000
     310 -> 316        0.18275
     311 -> 313        0.69100
     311 <- 313       -0.10661
 This state for optimization and/or second-order correction.
 Total Energy, E(TD-HF/TD-DFT) =  -4067.25570033
 Copying the excited state density for this state as the 1-particle RhoCI density.

 Excited State   2:      Singlet-A      1.8406 eV  673.60 nm  f=0.3254  <S**2>=0.000
     309 -> 315        0.18891
     312 -> 314        0.68656

 Excited State   3:      Singlet-A      1.8985 eV  653.06 nm  f=0.0000  <S**2>=0.000
     312 -> 313        0.70710

 Excited State   4:      Singlet-A      2.0419 eV  607.20 nm  f=0.0000  <S**2>=0.000
     311 -> 314        0.70710

 Excited State   5:      Singlet-A      2.1727 eV  570.63 nm  f=0.1324  <S**2>=0.000
     310 -> 313        0.65737
     311 -> 316       -0.25556

 The electronic state is 1-A.
 Alpha  occ. eigenvalues --  -46.94650 -46.91955 -19.26280 -19.25314 -19.21539
 Alpha  occ. eigenvalues --  -19.19945 -19.19045 -19.19044 -19.19026 -19.17801
 Alpha  occ. eigenvalues --  -14.41943 -14.41844 -14.41579 -14.41473 -14.40296
 Alpha  occ. eigenvalues --  -14.39829 -14.39421 -14.39001 -10.37601 -10.35830
 Alpha  occ. eigenvalues --  -10.32416 -10.32103 -10.31588 -10.31263 -10.29598
 Alpha  occ. eigenvalues --  -10.29437 -10.29197 -10.29176 -10.29133 -10.29079
 Alpha  occ. eigenvalues --  -10.29072 -10.29029 -10.28960 -10.28680 -10.28668
 Alpha  occ. eigenvalues --  -10.28571 -10.28471 -10.28184 -10.28076 -10.27929
 Alpha  occ. eigenvalues --  -10.27845 -10.27032 -10.26969 -10.26860 -10.26835
 Alpha  occ. eigenvalues --  -10.26786 -10.26614 -10.26434 -10.26410 -10.26386
 Alpha  occ. eigenvalues --  -10.26338 -10.26191 -10.26153 -10.25905 -10.25867
 Alpha  occ. eigenvalues --  -10.25787 -10.25664 -10.25624 -10.25600 -10.25450
 Alpha  occ. eigenvalues --  -10.25420 -10.25312 -10.25277 -10.25162 -10.25136
 Alpha  occ. eigenvalues --  -10.24991 -10.24957 -10.24925 -10.24856 -10.24709
 Alpha  occ. eigenvalues --  -10.24539 -10.24509 -10.24270 -10.23988 -10.23901
 Alpha  occ. eigenvalues --  -10.23819 -10.23775 -10.23668 -10.23420 -10.23208
 Alpha  occ. eigenvalues --  -10.23079 -10.23074 -10.23071 -10.22983 -10.22739
 Alpha  occ. eigenvalues --  -10.22610  -3.16438  -3.14175  -1.89216  -1.88863
 Alpha  occ. eigenvalues --   -1.88614  -1.87013  -1.86549  -1.86419  -1.11712
 Alpha  occ. eigenvalues --   -1.10499  -1.04554  -1.04229  -1.04100  -1.03496
 Alpha  occ. eigenvalues --   -1.03398  -1.01880  -0.98764  -0.98647  -0.98025
 Alpha  occ. eigenvalues --   -0.97842  -0.97440  -0.97240  -0.96617  -0.95942
 Alpha  occ. eigenvalues --   -0.88711  -0.85933  -0.83395  -0.82979  -0.82887
 Alpha  occ. eigenvalues --   -0.82757  -0.82319  -0.82054  -0.81703  -0.81514
 Alpha  occ. eigenvalues --   -0.81229  -0.81138  -0.80070  -0.79870  -0.79025
 Alpha  occ. eigenvalues --   -0.78232  -0.77907  -0.77471  -0.76938  -0.76065
 Alpha  occ. eigenvalues --   -0.75831  -0.75482  -0.75103  -0.74994  -0.74584
 Alpha  occ. eigenvalues --   -0.73963  -0.73251  -0.72322  -0.71544  -0.71464
 Alpha  occ. eigenvalues --   -0.71157  -0.71100  -0.70314  -0.70293  -0.69578
 Alpha  occ. eigenvalues --   -0.69541  -0.67141  -0.67029  -0.66281  -0.65840
 Alpha  occ. eigenvalues --   -0.64235  -0.63479  -0.63148  -0.63129  -0.61954
 Alpha  occ. eigenvalues --   -0.61653  -0.61508  -0.61204  -0.60366  -0.60009
 Alpha  occ. eigenvalues --   -0.59794  -0.59409  -0.59173  -0.59060  -0.58983
 Alpha  occ. eigenvalues --   -0.58551  -0.56940  -0.56720  -0.55275  -0.54442
 Alpha  occ. eigenvalues --   -0.54286  -0.53874  -0.53853  -0.53310  -0.53247
 Alpha  occ. eigenvalues --   -0.52944  -0.52878  -0.52463  -0.51723  -0.51551
 Alpha  occ. eigenvalues --   -0.50683  -0.50608  -0.50536  -0.50195  -0.49865
 Alpha  occ. eigenvalues --   -0.49467  -0.49388  -0.49104  -0.49057  -0.48384
 Alpha  occ. eigenvalues --   -0.48247  -0.47952  -0.47915  -0.47607  -0.47274
 Alpha  occ. eigenvalues --   -0.47266  -0.46890  -0.46697  -0.46649  -0.46440
 Alpha  occ. eigenvalues --   -0.46267  -0.46167  -0.46037  -0.45987  -0.45945
 Alpha  occ. eigenvalues --   -0.45769  -0.45447  -0.45130  -0.45076  -0.44750
 Alpha  occ. eigenvalues --   -0.44693  -0.44526  -0.44464  -0.44350  -0.43978
 Alpha  occ. eigenvalues --   -0.43893  -0.43767  -0.43715  -0.43572  -0.43266
 Alpha  occ. eigenvalues --   -0.43117  -0.42941  -0.42890  -0.42788  -0.42629
 Alpha  occ. eigenvalues --   -0.42477  -0.42259  -0.42170  -0.42058  -0.41807
 Alpha  occ. eigenvalues --   -0.41689  -0.41587  -0.41568  -0.41202  -0.40917
 Alpha  occ. eigenvalues --   -0.40765  -0.40714  -0.40597  -0.40565  -0.40495
 Alpha  occ. eigenvalues --   -0.40319  -0.40148  -0.40039  -0.39862  -0.39730
 Alpha  occ. eigenvalues --   -0.39633  -0.39504  -0.39261  -0.39234  -0.39192
 Alpha  occ. eigenvalues --   -0.38888  -0.38881  -0.38736  -0.38511  -0.38449
 Alpha  occ. eigenvalues --   -0.38288  -0.38101  -0.38093  -0.37783  -0.37681
 Alpha  occ. eigenvalues --   -0.37440  -0.37221  -0.37084  -0.36969  -0.36759
 Alpha  occ. eigenvalues --   -0.36383  -0.36376  -0.36136  -0.36120  -0.35820
 Alpha  occ. eigenvalues --   -0.35719  -0.35670  -0.35584  -0.35355  -0.35325
 Alpha  occ. eigenvalues --   -0.35126  -0.34913  -0.34454  -0.34039  -0.33555
 Alpha  occ. eigenvalues --   -0.33470  -0.33252  -0.33236  -0.32861  -0.32586
 Alpha  occ. eigenvalues --   -0.32500  -0.32237  -0.31551  -0.31439  -0.31268
 Alpha  occ. eigenvalues --   -0.30752  -0.30630  -0.29989  -0.29741  -0.29405
 Alpha  occ. eigenvalues --   -0.29352  -0.28930  -0.28572  -0.27125  -0.26718
 Alpha  occ. eigenvalues --   -0.26213  -0.25985  -0.25831  -0.25681  -0.25555
 Alpha  occ. eigenvalues --   -0.25202  -0.25000  -0.24817  -0.20961  -0.20833
 Alpha  occ. eigenvalues --   -0.18910  -0.18718
 Alpha virt. eigenvalues --   -0.11387  -0.11048  -0.05967  -0.05305  -0.04340
 Alpha virt. eigenvalues --   -0.04059  -0.03107  -0.02365  -0.02155   0.00009
 Alpha virt. eigenvalues --    0.00147   0.00711   0.00826   0.01022   0.01300

 Mulliken charges:
               1
     1  Mg  12.000121
     2  C    6.000594
     3  C    5.999441
     4  C    5.999681
     5  C    6.000758
     6  N    7.000077
     7  C    5.999019
     8  C    6.000137
     9  C    5.999910
    10  C    6.001040
    11  C    5.999958
    12  C    6.000174
    13  C    6.000101
    14  H    0.999543
    15  N    6.999728
    16  C    6.001508
    17  C    6.000587
    18  C    6.000472
    19  C    6.001002
    20  C    5.999828
    21  C    6.000427
    22  O    8.000811
    23  C    5.999822
    24  N    7.000138
    25  C    6.001053
    26  C    5.999583
    27  C    6.000445
    28  C    5.998713
    29  C    5.999876
    30  C    5.999963
    31  C    6.000241
    32  N    7.000092
    33  C    5.998366
    34  C    5.999100
    35  C    5.999931
    36  C    5.999074
    37  C    5.999985
    38  C    5.999254
    39  O    7.998827
    40  C    6.000127
    41  C    5.999878
    42  O    7.999776
    43  O    7.999916
    44  C    6.000152
    45  H    1.000300
    46  H    1.000221
    47  H    0.999731
    48  H    1.000015
    49  H    0.999968
    50  H    1.000447
    51  H    0.999992
    52  H    1.000060
    53  H    0.999581
    54  H    1.000058
    55  H    1.000124
    56  H    0.999918
    57  H    1.000722
    58  H    1.000535
    59  H    1.000556
    60  H    1.000441
    61  H    1.000392
    62  H    1.000486
    63  H    1.000045
    64  H    0.999916
    65  H    0.999730
    66  H    1.000288
    67  H    1.000232
    68  H    0.999733
    69  H    1.000057
    70  H    0.999760
    71  H    1.000120
    72  H    0.999887
    73  H    0.999457
    74  H    0.999508
    75  H    0.999525
    76  H    0.999613
    77  H    0.999629
    78  H    0.999738
    79  H    0.999989
    80  Mg  12.004012
    81  C    5.975373
    82  C    5.997426
    83  C    6.029375
    84  C    5.997527
    85  N    6.982722
    86  C    6.032394
    87  C    5.990295
    88  C    6.011089
    89  C    5.972826
    90  C    6.002397
    91  C    5.998823
    92  C    5.997950
    93  H    1.006399
    94  N    7.002781
    95  C    5.969430
    96  C    5.975992
    97  C    5.987294
    98  C    5.973844
    99  C    6.003240
   100  C    5.988505
   101  O    7.968605
   102  C    6.003930
   103  N    7.008593
   104  C    5.964052
   105  C    6.008564
   106  C    5.989447
   107  C    6.028699
   108  C    6.000600
   109  C    5.995487
   110  C    5.999250
   111  N    6.998090
   112  C    6.036781
   113  C    6.030326
   114  C    6.002250
   115  C    6.028377
   116  C    6.001379
   117  C    6.011696
   118  O    8.029042
   119  C    6.003555
   120  C    6.006948
   121  O    7.999987
   122  O    8.001688
   123  C    5.998348
   124  H    0.986943
   125  H    0.998377
   126  H    1.012310
   127  H    0.997471
   128  H    0.999220
   129  H    1.000562
   130  H    0.996607
   131  H    0.987174
   132  H    1.007966
   133  H    0.995404
   134  H    0.997036
   135  H    0.998134
   136  H    0.985372
   137  H    0.981845
   138  H    0.985272
   139  H    0.992676
   140  H    0.986345
   141  H    0.994980
   142  H    1.001739
   143  H    1.003311
   144  H    1.002680
   145  H    1.005488
   146  H    0.991342
   147  H    0.999189
   148  H    1.011578
   149  H    1.003726
   150  H    0.997503
   151  H    1.006042
   152  H    1.013870
   153  H    1.014983
   154  H    1.015851
   155  H    1.004466
   156  H    1.004325
   157  H    1.004755
   158  H    1.000069
 Sum of Mulliken charges = 624.00000

 Dipole moment (field-independent basis, Debye):
    X=              9.3786    Y=              4.5237    Z=             -0.8837  Tot=             10.4500
 Quadrupole moment (field-independent basis, Debye-Ang):
   XX=           -332.7151   YY=              5.8399   ZZ=              0.1236
   XY=            -73.4378   XZ=             12.0011   YZ=              0.3167

 Normal termination of Gaussian 16 at Thu Oct 14 18:24:30 2021.
