 Gaussian 16, Revision A.03,
 Gaussian 16:  ES64L-G16RevA.03 25-Dec-2016

 --------------------------------------------------------
 #p PBE1PBE/Def2SVP td=(nstates=5) density=(transition=1)
 --------------------------------------------------------

 --------------------------------
 TDDFT excited states in gaussian
 --------------------------------
 Symbolic Z-matrix:
 Charge =  0 Multiplicity = 1

                         Standard orientation:
 ---------------------------------------------------------------------
 Center     Atomic      Atomic             Coordinates (Angstroms)
 Number     Number       Type             X           Y           Z
 ---------------------------------------------------------------------
      1         12           0       13.446278    0.111764    0.138366
      2          6           0       10.157570   -0.975330   -0.425283
      3          6           0       14.360260   -0.840253   -2.924282
      4          6           0       16.440364    1.096492    0.872789
      5          6           0       12.569440    0.115511    3.648326
      6          7           0       12.357441   -0.900209   -1.421324
      7          6           0       11.039205   -1.100872   -1.542975
      8          6           0       10.689220   -1.775387   -2.844272
      9          6           0       12.112847   -2.096306   -3.453418
     10          6           0       12.998436   -1.230322   -2.578546
     11          6           0       12.581977   -3.586500   -3.506253
     12          6           0        9.895916   -0.757988   -3.813290
     13          6           0        8.609122   -1.379651   -4.448463
     14          1           0        7.684498   -0.246694   -5.154061
     15          7           0       15.050302    0.352143   -0.933319
     16          6           0       15.260478   -0.067280   -2.235883
     17          6           0       16.486616    0.513895   -2.709045
     18          6           0       17.180121    1.162640   -1.606863
     19          6           0       16.183754    1.003124   -0.479407
     20          6           0       16.941161    0.224969   -4.168582
     21          6           0       18.505381    1.894632   -1.428560
     22          8           0       18.896042    2.474527   -0.399305
     23          6           0       19.293935    1.962244   -2.688294
     24          7           0       14.336196    0.370855    2.028630
     25          6           0       15.642509    0.791433    1.985015
     26          6           0       16.230374    0.897354    3.392627
     27          6           0       14.944292    0.900192    4.260029
     28          6           0       13.880976    0.374382    3.293807
     29          6           0       17.296973   -0.246168    3.620374
     30          6           0       14.536501    2.295212    4.898931
     31          6           0       13.665459    2.248543    6.164517
     32          7           0       11.723317   -0.292811    1.402475
     33          6           0       11.559430   -0.237417    2.753428
     34          6           0       10.180321   -0.465495    3.122664
     35          6           0        9.595585   -0.689166    1.862713
     36          6           0       10.572143   -0.639212    0.857701
     37          6           0        9.461490   -0.477547    4.491360
     38          6           0        8.335054   -0.953175    1.226843
     39          8           0        7.194787   -0.933027    1.610214
     40          6           0        8.707358   -1.318141   -0.302811
     41          6           0        7.668481   -0.574617   -1.020434
     42          8           0        7.643394    0.640302   -1.341978
     43          8           0        6.702446   -1.477032   -1.263902
     44          6           0        5.488705   -1.025816   -1.946023
     45          1           0       14.645060   -1.064700   -3.954457
     46          1           0       17.425819    1.500452    1.114752
     47          1           0       12.338382    0.225762    4.709886
     48          1           0       10.054666   -2.657482   -2.754146
     49          1           0       12.297242   -1.724500   -4.461494
     50          1           0       13.390992   -3.704188   -2.785341
     51          1           0       12.960408   -3.726905   -4.518613
     52          1           0       11.862334   -4.369831   -3.270925
     53          1           0       10.486268   -0.298422   -4.606877
     54          1           0        9.685451    0.127308   -3.213140
     55          1           0        8.011344   -1.881451   -3.687849
     56          1           0        8.786032   -2.079651   -5.264689
     57          1           0       16.529829    1.005453   -4.807218
     58          1           0       16.437164   -0.628692   -4.623402
     59          1           0       17.984284   -0.052952   -4.317607
     60          1           0       18.802659    2.491525   -3.503991
     61          1           0       19.479862    0.907339   -2.893710
     62          1           0       20.280250    2.410284   -2.564430
     63          1           0       16.746874    1.857061    3.414191
     64          1           0       15.085971    0.235756    5.112361
     65          1           0       16.897524   -1.005507    4.292525
     66          1           0       18.259588    0.015763    4.058773
     67          1           0       17.551980   -0.858229    2.754990
     68          1           0       13.876328    2.718768    4.141561
     69          1           0       15.336180    3.002159    5.120974
     70          1           0       12.670106    2.660673    5.993614
     71          1           0       14.017568    2.741597    7.070849
     72          1           0       13.478895    1.190679    6.344110
     73          1           0       10.231366   -0.714159    5.225805
     74          1           0        8.662785   -1.220250    4.509088
     75          1           0        9.096087    0.536595    4.652564
     76          1           0        8.542588   -2.381933   -0.474887
     77          1           0        5.473884   -1.459274   -2.945868
     78          1           0        5.367475    0.055941   -1.900480
     79          1           0        4.631828   -1.480428   -1.448994
     80         12           0      -12.910105   -0.690989   -0.343504
     81          6           0      -12.934782    2.889016   -0.104403
     82          6           0       -9.354842   -0.376599   -0.488905
     83          6           0      -12.513552   -3.934214    0.439499
     84          6           0      -16.214733   -0.701327    0.537198
     85          7           0      -11.390902    1.053671   -0.261878
     86          6           0      -11.628040    2.395448   -0.192010
     87          6           0      -10.297454    3.225869   -0.213800
     88          6           0       -9.259526    2.124669   -0.743760
     89          6           0      -10.023005    0.854536   -0.403956
     90          6           0       -8.971870    2.188327   -2.226278
     91          6           0      -10.002949    3.931061    1.099821
     92          6           0       -9.513618    5.400979    1.029693
     93          1           0       -7.963016    5.759311    1.188093
     94          7           0      -11.138240   -2.058160   -0.150399
     95          6           0       -9.786565   -1.706962   -0.348344
     96          6           0       -8.964837   -2.918389   -0.237389
     97          6           0       -9.913231   -3.991268   -0.006667
     98          6           0      -11.205330   -3.369675    0.188857
     99          6           0       -7.486482   -3.006078   -0.302188
    100          6           0       -9.571892   -5.460175    0.009884
    101          8           0       -8.461408   -5.792008   -0.339316
    102          6           0      -10.528925   -6.554864    0.421947
    103          7           0      -14.155383   -2.003021    0.475123
    104          6           0      -13.780080   -3.341651    0.545863
    105          6           0      -14.989710   -4.128621    1.055537
    106          6           0      -16.195041   -3.135142    0.873555
    107          6           0      -15.477985   -1.864708    0.563229
    108          6           0      -15.231682   -5.573902    0.484217
    109          6           0      -17.239497   -3.028054    2.026772
    110          6           0      -18.678364   -3.250522    1.691901
    111          7           0      -14.346322    0.728334    0.007849
    112          6           0      -15.694859    0.589949    0.286584
    113          6           0      -16.386486    1.889455    0.183669
    114          6           0      -15.279388    2.819507    0.091568
    115          6           0      -14.114238    2.051269    0.006195
    116          6           0      -17.854089    2.219695    0.256002
    117          6           0      -14.960760    4.274230   -0.009761
    118          8           0      -15.671186    5.235276    0.073539
    119          6           0      -13.436703    4.333387   -0.021187
    120          6           0      -13.018204    5.112457   -1.232235
    121          8           0      -13.241979    4.650706   -2.330573
    122          8           0      -12.287675    6.313007   -0.983145
    123          6           0      -11.687704    6.987940   -2.173854
    124          1           0       -8.268502   -0.322838   -0.587646
    125          1           0      -12.562546   -4.993000    0.699234
    126          1           0      -17.300947   -0.765192    0.626198
    127          1           0      -10.290130    3.957835   -1.020924
    128          1           0       -8.350488    2.112419   -0.142546
    129          1           0       -9.785606    1.692625   -2.755130
    130          1           0       -7.996926    1.726839   -2.382553
    131          1           0       -8.918343    3.163903   -2.710605
    132          1           0       -9.191845    3.371171    1.564345
    133          1           0      -10.849236    3.760910    1.765310
    134          1           0      -10.071598    5.881483    1.833716
    135          1           0       -9.798739    5.907949    0.107772
    136          1           0       -7.245560   -3.309840   -1.320458
    137          1           0       -7.150985   -3.838280    0.316743
    138          1           0       -6.871566   -2.146063   -0.034250
    139          1           0      -10.095584   -7.552597    0.488737
    140          1           0      -11.295363   -6.575854   -0.352896
    141          1           0      -11.107039   -6.441892    1.338326
    142          1           0      -14.699332   -4.323153    2.088386
    143          1           0      -16.667637   -3.350806   -0.084230
    144          1           0      -14.707601   -5.705631   -0.462783
    145          1           0      -16.299150   -5.777448    0.401438
    146          1           0      -14.878894   -6.321838    1.193973
    147          1           0      -17.146134   -2.047271    2.492971
    148          1           0      -16.907647   -3.698779    2.819191
    149          1           0      -19.200484   -2.294160    1.712470
    150          1           0      -19.133202   -3.893402    2.445388
    151          1           0      -18.908478   -3.696492    0.724539
    152          1           0      -18.062350    3.181715   -0.211787
    153          1           0      -18.115686    2.226137    1.314497
    154          1           0      -18.404566    1.379991   -0.168621
    155          1           0      -13.119488    4.730306    0.943260
    156          1           0      -12.463421    7.551215   -2.692869
    157          1           0      -11.316906    6.255326   -2.890398
    158          1           0      -10.859064    7.630837   -1.877596
 ---------------------------------------------------------------------

 SCF Done:  E(RPBE1PBE) =  -4067.36926354     A.U. after   16 cycles

 Excitation energies and oscillator strengths:

 Excited State   1:      Singlet-A      1.8360 eV  675.30 nm  f=0.4221  <S**2>=0.000
     309 -> 316        0.16372
     312 -> 313        0.69508
     312 <- 313       -0.11921
 This state for optimization and/or second-order correction.
 Total Energy, E(TD-HF/TD-DFT) =  -4067.30179188
 Copying the excited state density for this state as the 1-particle RhoCI density.

 Excited State   2:      Singlet-A      1.8756 eV  661.05 nm  f=0.3424  <S**2>=0.000
     310 -> 315        0.18932
     311 -> 314        0.68637

 Excited State   3:      Singlet-A      1.8874 eV  656.90 nm  f=0.0000  <S**2>=0.000
     311 -> 313        0.70710

 Excited State   4:      Singlet-A      1.9597 eV  632.66 nm  f=0.0000  <S**2>=0.000
     312 -> 314        0.70709

 Excited State   5:      Singlet-A      2.2361 eV  554.47 nm  f=0.1182  <S**2>=0.000
     308 -> 313        0.10034
     309 -> 313        0.64810
     312 -> 316       -0.25663

 The electronic state is 1-A.
 Alpha  occ. eigenvalues --  -46.92664 -46.90978 -19.25782 -19.25503 -19.20786
 Alpha  occ. eigenvalues --  -19.19807 -19.19761 -19.19281 -19.18674 -19.18167
 Alpha  occ. eigenvalues --  -14.42055 -14.42052 -14.41287 -14.41276 -14.39110
 Alpha  occ. eigenvalues --  -14.38931 -14.38751 -14.38083 -10.37106 -10.35546
 Alpha  occ. eigenvalues --  -10.33022 -10.32403 -10.31830 -10.31620 -10.29433
 Alpha  occ. eigenvalues --  -10.29377 -10.29059 -10.28975 -10.28944 -10.28479
 Alpha  occ. eigenvalues --  -10.28409 -10.28214 -10.28212 -10.28116 -10.28062
 Alpha  occ. eigenvalues --  -10.27874 -10.27848 -10.27713 -10.27596 -10.27207
 Alpha  occ. eigenvalues --  -10.27015 -10.26949 -10.26715 -10.26601 -10.26560
 Alpha  occ. eigenvalues --  -10.26318 -10.26293 -10.26277 -10.26210 -10.26171
 Alpha  occ. eigenvalues --  -10.26167 -10.25861 -10.25680 -10.25658 -10.25597
 Alpha  occ. eigenvalues --  -10.25568 -10.25537 -10.25498 -10.25485 -10.25397
 Alpha  occ. eigenvalues --  -10.25189 -10.25045 -10.24919 -10.24713 -10.24642
 Alpha  occ. eigenvalues --  -10.24438 -10.24373 -10.24259 -10.24166 -10.24121
 Alpha  occ. eigenvalues --  -10.24099 -10.23999 -10.23981 -10.23964 -10.23931
 Alpha  occ. eigenvalues --  -10.23869 -10.23487 -10.23420 -10.23368 -10.23252
 Alpha  occ. eigenvalues --  -10.23166 -10.23144 -10.23127 -10.22831 -10.22746
 Alpha  occ. eigenvalues --  -10.22223  -3.14811  -3.13392  -1.87597  -1.87192
 Alpha  occ. eigenvalues --   -1.87040  -1.86220  -1.85779  -1.85632  -1.10696
 Alpha  occ. eigenvalues --   -1.09941  -1.06333  -1.05553  -1.04932  -1.04019
 Alpha  occ. eigenvalues --   -1.02563  -1.00305  -0.99839  -0.99168  -0.98978
 Alpha  occ. eigenvalues --   -0.98264  -0.98122  -0.97300  -0.97028  -0.96125
 Alpha  occ. eigenvalues --   -0.87093  -0.86960  -0.83662  -0.83417  -0.83059
 Alpha  occ. eigenvalues --   -0.82716  -0.82521  -0.82347  -0.81825  -0.81784
 Alpha  occ. eigenvalues --   -0.81163  -0.80612  -0.80479  -0.79886  -0.78804
 Alpha  occ. eigenvalues --   -0.78684  -0.78213  -0.78109  -0.76693  -0.76683
 Alpha  occ. eigenvalues --   -0.76451  -0.75956  -0.75620  -0.74776  -0.74616
 Alpha  occ. eigenvalues --   -0.74442  -0.72452  -0.72430  -0.71721  -0.71627
 Alpha  occ. eigenvalues --   -0.71199  -0.71021  -0.70516  -0.70226  -0.69727
 Alpha  occ. eigenvalues --   -0.69528  -0.67238  -0.67034  -0.66588  -0.66156
 Alpha  occ. eigenvalues --   -0.63854  -0.63587  -0.63229  -0.63197  -0.62295
 Alpha  occ. eigenvalues --   -0.62267  -0.61613  -0.61061  -0.60469  -0.60337
 Alpha  occ. eigenvalues --   -0.59998  -0.59438  -0.59423  -0.59067  -0.59003
 Alpha  occ. eigenvalues --   -0.58766  -0.56800  -0.56344  -0.54770  -0.54366
 Alpha  occ. eigenvalues --   -0.54282  -0.53913  -0.53752  -0.53719  -0.53398
 Alpha  occ. eigenvalues --   -0.53255  -0.52926  -0.52619  -0.52176  -0.51550
 Alpha  occ. eigenvalues --   -0.51042  -0.50899  -0.50384  -0.50128  -0.50036
 Alpha  occ. eigenvalues --   -0.49980  -0.48869  -0.48731  -0.48483  -0.48366
 Alpha  occ. eigenvalues --   -0.47924  -0.47822  -0.47658  -0.47658  -0.47448
 Alpha  occ. eigenvalues --   -0.47425  -0.47085  -0.46817  -0.46759  -0.46261
 Alpha  occ. eigenvalues --   -0.46219  -0.46180  -0.45943  -0.45808  -0.45581
 Alpha  occ. eigenvalues --   -0.45500  -0.45400  -0.45216  -0.45027  -0.45018
 Alpha  occ. eigenvalues --   -0.44756  -0.44564  -0.44420  -0.44363  -0.44234
 Alpha  occ. eigenvalues --   -0.44016  -0.43866  -0.43723  -0.43710  -0.43507
 Alpha  occ. eigenvalues --   -0.43250  -0.43200  -0.43068  -0.42744  -0.42698
 Alpha  occ. eigenvalues --   -0.42628  -0.42318  -0.42112  -0.41957  -0.41772
 Alpha  occ. eigenvalues --   -0.41599  -0.41584  -0.41192  -0.41091  -0.41037
 Alpha  occ. eigenvalues --   -0.40953  -0.40802  -0.40750  -0.40616  -0.40592
 Alpha  occ. eigenvalues --   -0.40534  -0.40468  -0.40261  -0.39935  -0.39881
 Alpha  occ. eigenvalues --   -0.39638  -0.39580  -0.39303  -0.38904  -0.38570
 Alpha  occ. eigenvalues --   -0.38531  -0.38382  -0.38368  -0.38273  -0.38194
 Alpha  occ. eigenvalues --   -0.38049  -0.37923  -0.37727  -0.37696  -0.37647
 Alpha  occ. eigenvalues --   -0.37435  -0.37414  -0.37366  -0.37103  -0.37030
 Alpha  occ. eigenvalues --   -0.36854  -0.36742  -0.36677  -0.36328  -0.36221
 Alpha  occ. eigenvalues --   -0.36003  -0.35962  -0.35683  -0.35570  -0.35510
 Alpha  occ. eigenvalues --   -0.35463  -0.35190  -0.35136  -0.34506  -0.34169
 Alpha  occ. eigenvalues --   -0.33671  -0.33355  -0.32820  -0.32612  -0.32429
 Alpha  occ. eigenvalues --   -0.32273  -0.32006  -0.31965  -0.31492  -0.30769
 Alpha  occ. eigenvalues --   -0.30463  -0.30345  -0.29714  -0.29483  -0.29446
 Alpha  occ. eigenvalues --   -0.29170  -0.28761  -0.27859  -0.26972  -0.26779
 Alpha  occ. eigenvalues --   -0.26397  -0.26277  -0.25960  -0.25560  -0.25253
 Alpha  occ. eigenvalues --   -0.25199  -0.25168  -0.24332  -0.21134  -0.21099
 Alpha  occ. eigenvalues --   -0.18779  -0.18711
 Alpha virt. eigenvalues --   -0.11328  -0.10996  -0.05733  -0.04955  -0.04458
 Alpha virt. eigenvalues --   -0.03476  -0.01938  -0.01894  -0.01484  -0.00137
 Alpha virt. eigenvalues --    0.00179   0.00345   0.00852   0.00967   0.01321

 Mulliken charges:
               1
     1  Mg  12.000013
     2  C    5.999226
     3  C    6.000929
     4  C    6.000178
     5  C    5.998824
     6  N    6.999795
     7  C    6.002169
     8  C    5.999216
     9  C    6.000552
    10  C    5.997683
    11  C    6.000100
    12  C    5.999787
    13  C    5.999903
    14  H    1.000487
    15  N    7.000387
    16  C    5.997686
    17  C    5.998460
    18  C    5.998412
    19  C    5.998767
    20  C    6.000169
    21  C    5.999028
    22  O    7.997639
    23  C    6.000406
    24  N    6.999575
    25  C    5.998581
    26  C    6.000409
    27  C    5.999525
    28  C    6.002161
    29  C    6.000400
    30  C    5.999861
    31  C    5.999980
    32  N    6.999955
    33  C    6.002443
    34  C    6.001800
    35  C    6.000341
    36  C    6.001877
    37  C    6.000117
    38  C    6.001119
    39  O    8.002650
    40  C    6.000196
    41  C    6.000166
    42  O    8.000409
    43  O    8.000109
    44  C    5.999451
    45  H    0.999410
    46  H    0.999361
    47  H    1.000429
    48  H    1.000367
    49  H    1.000063
    50  H    0.999908
    51  H    0.999813
    52  H    0.999350
    53  H    1.000617
    54  H    0.999766
    55  H    1.000033
    56  H    1.000335
    57  H    0.998669
    58  H    0.998822
    59  H    0.998799
    60  H    0.999317
    61  H    0.999549
    62  H    0.998753
    63  H    0.999951
    64  H    1.000132
    65  H    0.999157
    66  H    0.999614
    67  H    1.000306
    68  H    1.000110
    69  H    1.000514
    70  H    0.999835
    71  H    1.000119
    72  H    0.999880
    73  H    1.000877
    74  H    1.001237
    75  H    1.001126
    76  H    1.000799
    77  H    1.000615
    78  H    1.000182
    79  H    1.001242
    80  Mg  11.999787
    81  C    5.977672
    82  C    5.999273
    83  C    6.032554
    84  C    5.999519
    85  N    6.985216
    86  C    6.028637
    87  C    5.991256
    88  C    6.008021
    89  C    5.974309
    90  C    6.005818
    91  C    5.995896
    92  C    5.999630
    93  H    1.007145
    94  N    7.003437
    95  C    5.962702
    96  C    5.976102
    97  C    5.993160
    98  C    5.961037
    99  C    6.004818
   100  C    5.988889
   101  O    7.982532
   102  C    6.002205
   103  N    7.009683
   104  C    5.962872
   105  C    6.008515
   106  C    5.989027
   107  C    6.029236
   108  C    6.000510
   109  C    5.995842
   110  C    5.998804
   111  N    6.999952
   112  C    6.031346
   113  C    6.032387
   114  C    6.001824
   115  C    6.030300
   116  C    6.000257
   117  C    6.017737
   118  O    8.024761
   119  C    6.000262
   120  C    6.004986
   121  O    8.002660
   122  O    8.001979
   123  C    5.998335
   124  H    0.987364
   125  H    0.996459
   126  H    1.013157
   127  H    1.000869
   128  H    0.998998
   129  H    0.994872
   130  H    1.001168
   131  H    0.984534
   132  H    1.010010
   133  H    0.994220
   134  H    0.997045
   135  H    0.997558
   136  H    0.980898
   137  H    0.985082
   138  H    0.981821
   139  H    0.988736
   140  H    0.989893
   141  H    0.988852
   142  H    1.000159
   143  H    1.004022
   144  H    1.003221
   145  H    0.992249
   146  H    1.003371
   147  H    0.996602
   148  H    1.011448
   149  H    0.996306
   150  H    1.006300
   151  H    1.004236
   152  H    1.015011
   153  H    1.020188
   154  H    1.015743
   155  H    1.007770
   156  H    1.000721
   157  H    1.005500
   158  H    1.004728
 Sum of Mulliken charges = 624.00000

 Dipole moment (field-independent basis, Debye):
    X=             -9.1935    Y=              5.9694    Z=              1.0456  Tot=             11.0113
 Quadrupole moment (field-independent basis, Debye-Ang):
   XX=            196.9106   YY=             -5.3199   ZZ=              0.2062
   XY=            -72.6695   XZ=             -3.9310   YZ=             -0.6020

 Normal termination of Gaussian 16 at Thu Oct 14 19:16:46 2021.
