 Gaussian 16, Revision A.03,
 Gaussian 16:  ES64L-G16RevA.03 25-Dec-2016

 --------------------------------------------------------
 #p PBE1PBE/Def2SVP td=(nstates=5) density=(transition=1)
 --------------------------------------------------------

 --------------------------------
 TDDFT excited states in gaussian
 --------------------------------
 Symbolic Z-matrix:
 Charge =  0 Multiplicity = 1

                         Standard orientation:
 ---------------------------------------------------------------------
 Center     Atomic      Atomic             Coordinates (Angstroms)
 Number     Number       Type             X           Y           Z
 ---------------------------------------------------------------------
      1         12           0        0.692023    0.021524   -0.196965
      2          6           0       -2.823424    0.191343   -0.357245
      3          6           0        0.475593   -3.362474   -0.016926
      4          6           0        4.062191   -0.076602    0.071896
      5          6           0        0.782477    3.483027    0.064488
      6          7           0       -0.952273   -1.395856   -0.089038
      7          6           0       -2.306401   -1.113224   -0.288096
      8          6           0       -3.067803   -2.397651   -0.422582
      9          6           0       -2.082596   -3.432733    0.170498
     10          6           0       -0.740266   -2.673595    0.009729
     11          6           0       -2.278424   -3.841336    1.664648
     12          6           0       -3.544807   -2.765103   -1.878055
     13          6           0       -4.973930   -3.196159   -1.970817
     14          1           0       -5.262673   -4.440647   -2.830970
     15          7           0        2.031157   -1.487092   -0.110070
     16          6           0        1.762282   -2.865653   -0.138728
     17          6           0        2.968483   -3.592982   -0.133597
     18          6           0        4.090023   -2.636913   -0.113459
     19          6           0        3.432291   -1.362342   -0.064425
     20          6           0        3.093822   -5.083788   -0.014803
     21          6           0        5.667044   -2.828874   -0.042441
     22          8           0        6.409332   -1.875741   -0.058138
     23          6           0        6.288826   -4.218029   -0.056680
     24          7           0        2.196734    1.499166    0.146372
     25          6           0        3.513457    1.178282    0.234530
     26          6           0        4.386882    2.496395    0.499237
     27          6           0        3.358083    3.670949    0.192465
     28          6           0        2.002873    2.845669    0.129849
     29          6           0        5.016114    2.633427    1.913240
     30          6           0        3.650828    4.454637   -1.136363
     31          6           0        3.725993    5.904330   -0.898808
     32          7           0       -0.709437    1.541336   -0.103859
     33          6           0       -0.517941    2.922167   -0.107640
     34          6           0       -1.788629    3.591082   -0.175184
     35          6           0       -2.710020    2.566133   -0.245129
     36          6           0       -2.049588    1.378210   -0.229712
     37          6           0       -1.915804    5.135138   -0.247803
     38          6           0       -4.126772    2.257113   -0.307132
     39          8           0       -5.061678    3.021765   -0.214753
     40          6           0       -4.261191    0.654766   -0.360731
     41          6           0       -5.051138    0.202230    0.799036
     42          8           0       -4.746980    0.425883    2.000105
     43          8           0       -6.158570   -0.447081    0.337726
     44          6           0       -7.231328   -0.624785    1.351941
     45          1           0        0.326252   -4.439820    0.080041
     46          1           0        5.147372   -0.017801    0.176988
     47          1           0        0.823316    4.562787    0.219073
     48          1           0       -3.934905   -2.470484    0.234986
     49          1           0       -2.072846   -4.381521   -0.366255
     50          1           0       -3.320617   -3.855926    1.986257
     51          1           0       -1.693700   -3.141771    2.262541
     52          1           0       -1.827290   -4.788322    1.959851
     53          1           0       -2.852129   -3.536608   -2.213785
     54          1           0       -3.370091   -1.945906   -2.576156
     55          1           0       -5.436917   -2.292776   -2.368173
     56          1           0       -5.333890   -3.481864   -0.982519
     57          1           0        3.392659   -5.606850   -0.923476
     58          1           0        2.113126   -5.507830    0.197096
     59          1           0        3.753629   -5.488366    0.752238
     60          1           0        7.362325   -4.056295   -0.146363
     61          1           0        5.828659   -4.857037   -0.810917
     62          1           0        5.958694   -4.777333    0.819192
     63          1           0        5.268838    2.491146   -0.141460
     64          1           0        3.349016    4.348856    1.047263
     65          1           0        4.752915    1.863298    2.639057
     66          1           0        4.764867    3.574130    2.403827
     67          1           0        6.097544    2.617529    1.775163
     68          1           0        2.816961    4.297610   -1.821564
     69          1           0        4.589941    4.190399   -1.622082
     70          1           0        4.776223    6.191550   -0.841221
     71          1           0        3.174349    6.334770   -0.063787
     72          1           0        3.238914    6.429498   -1.720498
     73          1           0       -0.950576    5.555720   -0.530848
     74          1           0       -2.369683    5.542590    0.656727
     75          1           0       -2.584217    5.305162   -1.091029
     76          1           0       -4.735039    0.321887   -1.284529
     77          1           0       -8.130901   -1.024688    0.884318
     78          1           0       -7.504461    0.387721    1.649939
     79          1           0       -6.803250   -1.218522    2.160094
 ---------------------------------------------------------------------

 SCF Done:  E(RPBE1PBE) =  -2033.70920847     A.U. after   15 cycles

 Excitation energies and oscillator strengths:

 Excited State   1:      Singlet-A      1.8995 eV  652.72 nm  f=0.3771  <S**2>=0.000
     155 ->158         0.17458
     156 ->157         0.69188
     156 <-157        -0.10896
 This state for optimization and/or second-order correction.
 Total Energy, E(TD-HF/TD-DFT) =  -2033.63940327
 Copying the excited state density for this state as the 1-particle RhoCI density.

 Excited State   2:      Singlet-A      2.2138 eV  560.05 nm  f=0.1491  <S**2>=0.000
     155 ->157         0.66245
     156 ->158        -0.22946

 Excited State   3:      Singlet-A      2.9201 eV  424.59 nm  f=0.0037  <S**2>=0.000
     154 ->157         0.70188

 Excited State   4:      Singlet-A      3.0640 eV  404.65 nm  f=0.0011  <S**2>=0.000
     152 ->157         0.48822
     152 ->159         0.12518
     153 ->157        -0.47875

 Excited State   5:      Singlet-A      3.1337 eV  395.65 nm  f=0.0102  <S**2>=0.000
     152 ->157         0.47686
     153 ->157         0.49762
     156 ->158         0.11371

 The electronic state is 1-A.
 Alpha  occ. eigenvalues --  -46.90619 -19.26321 -19.19988 -19.19788 -19.19378
 Alpha  occ. eigenvalues --  -14.41501 -14.41071 -14.38959 -14.38327 -10.36459
 Alpha  occ. eigenvalues --  -10.33393 -10.32305 -10.29395 -10.28884 -10.28307
 Alpha  occ. eigenvalues --  -10.28278 -10.28195 -10.28173 -10.27425 -10.27023
 Alpha  occ. eigenvalues --  -10.26427 -10.26150 -10.25853 -10.25783 -10.25733
 Alpha  occ. eigenvalues --  -10.25588 -10.25529 -10.25528 -10.25480 -10.25451
 Alpha  occ. eigenvalues --  -10.25333 -10.24525 -10.24455 -10.24100 -10.24092
 Alpha  occ. eigenvalues --  -10.23934 -10.23696 -10.23526 -10.23456 -10.23363
 Alpha  occ. eigenvalues --  -10.22813 -10.22200 -10.22105  -3.12921  -1.85768
 Alpha  occ. eigenvalues --   -1.85283  -1.85170  -1.10539  -1.06355  -1.05189
 Alpha  occ. eigenvalues --   -1.01140  -0.99525  -0.98122  -0.97210  -0.95990
 Alpha  occ. eigenvalues --   -0.87000  -0.83465  -0.82944  -0.82309  -0.81380
 Alpha  occ. eigenvalues --   -0.80661  -0.80231  -0.78561  -0.78128  -0.77195
 Alpha  occ. eigenvalues --   -0.76229  -0.75511  -0.75014  -0.72487  -0.71651
 Alpha  occ. eigenvalues --   -0.71112  -0.70056  -0.69218  -0.67368  -0.65403
 Alpha  occ. eigenvalues --   -0.63059  -0.62492  -0.61974  -0.60905  -0.59956
 Alpha  occ. eigenvalues --   -0.59609  -0.59095  -0.58607  -0.56551  -0.54842
 Alpha  occ. eigenvalues --   -0.54614  -0.53857  -0.52732  -0.52420  -0.52106
 Alpha  occ. eigenvalues --   -0.50692  -0.50280  -0.50048  -0.49494  -0.48419
 Alpha  occ. eigenvalues --   -0.48061  -0.47992  -0.47314  -0.47186  -0.46451
 Alpha  occ. eigenvalues --   -0.46450  -0.45867  -0.45774  -0.45474  -0.45007
 Alpha  occ. eigenvalues --   -0.44676  -0.44361  -0.44052  -0.44006  -0.43564
 Alpha  occ. eigenvalues --   -0.43368  -0.42667  -0.42414  -0.41949  -0.41438
 Alpha  occ. eigenvalues --   -0.41336  -0.41177  -0.40807  -0.40577  -0.40515
 Alpha  occ. eigenvalues --   -0.40106  -0.39854  -0.39505  -0.39460  -0.39227
 Alpha  occ. eigenvalues --   -0.39148  -0.38276  -0.38173  -0.37865  -0.37651
 Alpha  occ. eigenvalues --   -0.37461  -0.37034  -0.36771  -0.36730  -0.36118
 Alpha  occ. eigenvalues --   -0.35863  -0.35347  -0.34900  -0.34088  -0.33786
 Alpha  occ. eigenvalues --   -0.33353  -0.32847  -0.32843  -0.31747  -0.31405
 Alpha  occ. eigenvalues --   -0.31064  -0.29491  -0.29135  -0.28589  -0.26944
 Alpha  occ. eigenvalues --   -0.26477  -0.25900  -0.25637  -0.25147  -0.20928
 Alpha  occ. eigenvalues --   -0.19123
 Alpha virt. eigenvalues --   -0.11416  -0.04840  -0.03553  -0.01690  -0.00191
 Alpha virt. eigenvalues --    0.00667   0.01441   0.01961   0.03126   0.03986
 Alpha virt. eigenvalues --    0.04629   0.05540   0.05957   0.06207   0.06932

 Mulliken charges:
               1
     1  Mg  11.999980
     2  C    6.027512
     3  C    6.004851
     4  C    5.973232
     5  C    5.997028
     6  N    7.016748
     7  C    5.964404
     8  C    6.011957
     9  C    5.993396
    10  C    6.022190
    11  C    5.997131
    12  C    6.003034
    13  C    6.001906
    14  H    0.993450
    15  N    6.997829
    16  C    6.027736
    17  C    6.022239
    18  C    6.015739
    19  C    6.029064
    20  C    5.994520
    21  C    6.013192
    22  O    8.025923
    23  C    5.998232
    24  N    6.987749
    25  C    6.032455
    26  C    5.993148
    27  C    6.006805
    28  C    5.978868
    29  C    5.999935
    30  C    6.003377
    31  C    6.001014
    32  N    6.998379
    33  C    5.972058
    34  C    5.965596
    35  C    6.004365
    36  C    5.968331
    37  C    5.999605
    38  C    5.983765
    39  O    7.974889
    40  C    5.995549
    41  C    5.996088
    42  O    7.996818
    43  O    7.997790
    44  C    6.000373
    45  H    1.015336
    46  H    1.003783
    47  H    0.987410
    48  H    0.998291
    49  H    1.001167
    50  H    1.014547
    51  H    1.002432
    52  H    0.998421
    53  H    0.987203
    54  H    1.003217
    55  H    1.004675
    56  H    0.998346
    57  H    1.021193
    58  H    1.015741
    59  H    1.018991
    60  H    1.013213
    61  H    1.004364
    62  H    1.005885
    63  H    0.997670
    64  H    0.997785
    65  H    0.996318
    66  H    1.008373
    67  H    0.998257
    68  H    1.002592
    69  H    0.988498
    70  H    0.993176
    71  H    1.001969
    72  H    0.999827
    73  H    0.985199
    74  H    0.980697
    75  H    0.983238
    76  H    0.992440
    77  H    0.995852
    78  H    1.001057
    79  H    0.994589
 Sum of Mulliken charges = 312.00000

 Dipole moment (field-independent basis, Debye):
    X=              6.2019    Y=             -8.1326    Z=              0.3124  Tot=             10.2323
 Quadrupole moment (field-independent basis, Debye-Ang):
   XX=              6.5652   YY=             -0.1832   ZZ=             -0.2043
   XY=             -7.8068   XZ=             -0.6587   YZ=              0.6864

 Normal termination of Gaussian 16 at Wed Oct 13 18:54:22 2021.
