 Gaussian 16, Revision A.03,
 Gaussian 16:  ES64L-G16RevA.03 25-Dec-2016

 --------------------------------------------------------
 #p PBE1PBE/Def2SVP td=(nstates=5) density=(transition=1)
 --------------------------------------------------------

 --------------------------------
 TDDFT excited states in gaussian
 --------------------------------
 Symbolic Z-matrix:
 Charge =  0 Multiplicity = 1

                         Standard orientation:
 ---------------------------------------------------------------------
 Center     Atomic      Atomic             Coordinates (Angstroms)
 Number     Number       Type             X           Y           Z
 ---------------------------------------------------------------------
      1         12           0      -25.207778   -0.372494   -0.260248
      2          6           0      -23.875268    2.779689   -0.665460
      3          6           0      -25.875467    0.474927    2.986769
      4          6           0      -26.248254   -3.547762    0.229132
      5          6           0      -23.960894   -1.302835   -3.369729
      6          7           0      -24.740820    1.453076    1.008676
      7          6           0      -24.404376    2.617715    0.606284
      8          6           0      -24.433200    3.798634    1.707638
      9          6           0      -24.806258    2.916336    2.963819
     10          6           0      -25.096438    1.473754    2.330554
     11          6           0      -23.626711    2.747124    4.057951
     12          6           0      -25.460995    4.977122    1.419348
     13          6           0      -25.084315    6.415203    1.923977
     14          1           0      -23.915215    6.515120    2.856632
     15          7           0      -26.007986   -1.356892    1.305422
     16          6           0      -26.308164   -0.810908    2.614990
     17          6           0      -26.964916   -1.861633    3.385664
     18          6           0      -26.978979   -3.066851    2.640209
     19          6           0      -26.438894   -2.682683    1.316448
     20          6           0      -27.487213   -1.488977    4.726403
     21          6           0      -27.534646   -4.469284    2.981795
     22          8           0      -27.406244   -5.452351    2.314480
     23          6           0      -28.147905   -4.598992    4.390752
     24          7           0      -25.051907   -2.251385   -1.331163
     25          6           0      -25.531130   -3.395482   -0.957447
     26          6           0      -25.067757   -4.547573   -1.893506
     27          6           0      -24.435530   -3.812508   -3.099655
     28          6           0      -24.485544   -2.346512   -2.608623
     29          6           0      -24.099507   -5.501396   -1.161926
     30          6           0      -25.190702   -4.094879   -4.434628
     31          6           0      -25.003925   -5.512580   -4.998914
     32          7           0      -24.122981    0.528488   -1.766280
     33          6           0      -23.784603    0.039805   -3.015652
     34          6           0      -23.165342    1.127054   -3.726867
     35          6           0      -23.113963    2.260265   -2.861010
     36          6           0      -23.766030    1.788527   -1.689232
     37          6           0      -22.637940    1.044185   -5.039281
     38          6           0      -22.785172    3.640344   -2.696375
     39          8           0      -22.158067    4.401009   -3.492432
     40          6           0      -23.171823    3.979938   -1.204729
     41          6           0      -21.961426    4.397228   -0.529753
     42          8           0      -21.123589    3.625541   -0.063622
     43          8           0      -21.876297    5.760124   -0.659339
     44          6           0      -20.564301    6.300929   -0.245436
     45          1           0      -26.077250    0.707602    4.033995
     46          1           0      -26.628500   -4.547612    0.451672
     47          1           0      -23.652188   -1.626042   -4.366532
     48          1           0      -23.390878    4.112881    1.767331
     49          1           0      -25.656766    3.351994    3.487789
     50          1           0      -22.680398    2.982423    3.570065
     51          1           0      -23.609434    1.720233    4.422721
     52          1           0      -23.702727    3.367887    4.951282
     53          1           0      -26.359837    4.664968    1.950419
     54          1           0      -25.897839    5.004999    0.420512
     55          1           0      -25.904840    6.937212    2.416113
     56          1           0      -24.764543    7.016000    1.072522
     57          1           0      -26.701137   -1.560773    5.478634
     58          1           0      -28.422314   -1.991362    4.974386
     59          1           0      -27.791254   -0.444333    4.664640
     60          1           0      -29.127176   -4.133143    4.505150
     61          1           0      -27.381031   -4.122517    5.000634
     62          1           0      -28.231457   -5.612847    4.781047
     63          1           0      -26.011902   -5.015886   -2.170643
     64          1           0      -23.383100   -4.084121   -3.181284
     65          1           0      -23.558775   -5.071778   -0.318352
     66          1           0      -23.254395   -5.902631   -1.722284
     67          1           0      -24.720623   -6.325753   -0.811686
     68          1           0      -24.809694   -3.421145   -5.200852
     69          1           0      -26.254350   -3.891490   -4.306055
     70          1           0      -24.432796   -6.084487   -4.267575
     71          1           0      -24.289911   -5.471114   -5.821587
     72          1           0      -25.874448   -6.051737   -5.371769
     73          1           0      -23.395435    0.498619   -5.602137
     74          1           0      -21.707538    0.487937   -5.152307
     75          1           0      -22.398019    2.052148   -5.379298
     76          1           0      -23.831414    4.840907   -1.316375
     77          1           0      -19.840422    5.917952   -0.965312
     78          1           0      -20.354568    6.101838    0.804982
     79          1           0      -20.612401    7.384077   -0.358662
     80         12           0       24.212207   -0.774110   -0.046475
     81          6           0       25.760996    2.288853   -0.721130
     82          6           0       22.611449    0.566179    2.485508
     83          6           0       23.334438   -3.922911    1.011057
     84          6           0       26.310463   -2.316990   -2.430245
     85          7           0       24.147136    1.205457    0.673530
     86          6           0       24.785512    2.350833    0.251260
     87          6           0       24.250580    3.589611    0.958005
     88          6           0       23.420566    2.952967    2.118563
     89          6           0       23.295274    1.531462    1.693117
     90          6           0       23.857938    3.158609    3.552765
     91          6           0       23.483846    4.591935    0.037296
     92          6           0       22.966203    5.854234    0.735449
     93          1           0       23.342140    7.178068    0.086118
     94          7           0       23.117494   -1.605371    1.651178
     95          6           0       22.412041   -0.834608    2.504980
     96          6           0       21.622546   -1.676970    3.360016
     97          6           0       21.911328   -3.006616    3.007639
     98          6           0       22.837983   -2.879577    1.850042
     99          6           0       20.724490   -1.155855    4.462062
    100          6           0       21.355637   -4.282201    3.550826
    101          8           0       21.763940   -5.444706    3.286764
    102          6           0       20.153689   -4.255337    4.487080
    103          7           0       24.763864   -2.784049   -0.603589
    104          6           0       24.312533   -3.890078    0.032527
    105          6           0       24.752971   -5.212428   -0.798574
    106          6           0       25.298347   -4.590655   -2.131971
    107          6           0       25.417403   -3.144671   -1.771239
    108          6           0       25.809972   -6.023976    0.047871
    109          6           0       24.222444   -4.686741   -3.274650
    110          6           0       22.813961   -4.174494   -3.016708
    111          7           0       25.740245   -0.155869   -1.416666
    112          6           0       26.460799   -0.920605   -2.292483
    113          6           0       27.321247   -0.064140   -2.967297
    114          6           0       27.157247    1.240439   -2.418946
    115          6           0       26.175919    1.132792   -1.468883
    116          6           0       28.349176   -0.386790   -3.993742
    117          6           0       27.589433    2.656490   -2.417741
    118          8           0       28.460205    3.273991   -3.020068
    119          6           0       26.606864    3.412890   -1.365628
    120          6           0       27.389337    4.306201   -0.470357
    121          8           0       28.552101    4.055436   -0.034426
    122          8           0       26.715413    5.444527   -0.376361
    123          6           0       27.517331    6.572461    0.057651
    124          1           0       21.968319    0.979282    3.265526
    125          1           0       23.036445   -4.930097    1.311997
    126          1           0       26.847324   -2.804684   -3.245390
    127          1           0       25.148887    4.134054    1.249705
    128          1           0       22.387042    3.300190    2.141921
    129          1           0       24.528812    3.995274    3.747648
    130          1           0       24.300300    2.234471    3.925734
    131          1           0       22.954761    3.146345    4.163187
    132          1           0       22.662249    4.076355   -0.460616
    133          1           0       24.142174    4.901927   -0.773594
    134          1           0       23.536672    6.069973    1.638670
    135          1           0       21.897479    5.784195    0.940131
    136          1           0       20.807639   -0.086100    4.653557
    137          1           0       20.960594   -1.499479    5.468880
    138          1           0       19.667369   -1.365845    4.296386
    139          1           0       20.477133   -3.819033    5.431725
    140          1           0       19.893336   -5.251025    4.845423
    141          1           0       19.267948   -3.804298    4.038264
    142          1           0       23.889375   -5.864058   -0.931642
    143          1           0       26.274260   -5.053863   -2.277204
    144          1           0       25.867397   -5.708915    1.089911
    145          1           0       26.833131   -5.942271   -0.319331
    146          1           0       25.577495   -7.084431    0.134057
    147          1           0       24.233384   -5.766425   -3.424218
    148          1           0       24.516993   -4.226529   -4.217324
    149          1           0       22.674926   -3.978945   -1.953227
    150          1           0       21.998653   -4.767798   -3.429242
    151          1           0       22.781001   -3.272311   -3.627561
    152          1           0       27.968324   -0.939951   -4.852633
    153          1           0       29.058632   -1.038329   -3.484395
    154          1           0       28.888840    0.495005   -4.337617
    155          1           0       25.983403    4.038675   -2.003690
    156          1           0       27.279225    7.452203   -0.541537
    157          1           0       28.597484    6.461229   -0.034144
    158          1           0       27.232972    6.758214    1.093895
 ---------------------------------------------------------------------

 SCF Done:  E(RPBE1PBE) =  -4067.40134497     A.U. after   17 cycles

 Excitation energies and oscillator strengths:

 Excited State   1:      Singlet-A      1.8526 eV  669.23 nm  f=0.3760  <S**2>=0.000
     309 -> 316        0.15632
     311 -> 313        0.69629
     311 <- 313       -0.11165
 This state for optimization and/or second-order correction.
 Total Energy, E(TD-HF/TD-DFT) =  -4067.33326165
 Copying the excited state density for this state as the 1-particle RhoCI density.

 Excited State   2:      Singlet-A      1.8583 eV  667.18 nm  f=0.0000  <S**2>=0.000
     312 -> 313        0.70711

 Excited State   3:      Singlet-A      1.9096 eV  649.28 nm  f=0.3727  <S**2>=0.000
     310 -> 315        0.19440
     312 -> 314        0.68533

 Excited State   4:      Singlet-A      2.2052 eV  562.24 nm  f=0.0000  <S**2>=0.000
     311 -> 314        0.70711

 Excited State   5:      Singlet-A      2.2083 eV  561.44 nm  f=0.1056  <S**2>=0.000
     310 -> 314        0.65633
     312 -> 315       -0.25145

 The electronic state is 1-A.
 Alpha  occ. eigenvalues --  -46.92769 -46.91836 -19.27346 -19.25485 -19.20213
 Alpha  occ. eigenvalues --  -19.19567 -19.19419 -19.19109 -19.18917 -19.18691
 Alpha  occ. eigenvalues --  -14.42346 -14.41623 -14.41385 -14.41099 -14.39348
 Alpha  occ. eigenvalues --  -14.39245 -14.38688 -14.37878 -10.36325 -10.35571
 Alpha  occ. eigenvalues --  -10.33266 -10.32667 -10.32213 -10.32071 -10.29605
 Alpha  occ. eigenvalues --  -10.29480 -10.29281 -10.28873 -10.28702 -10.28514
 Alpha  occ. eigenvalues --  -10.28419 -10.28224 -10.28197 -10.28180 -10.28143
 Alpha  occ. eigenvalues --  -10.28036 -10.28008 -10.27983 -10.27066 -10.26910
 Alpha  occ. eigenvalues --  -10.26859 -10.26780 -10.26771 -10.26762 -10.26716
 Alpha  occ. eigenvalues --  -10.26356 -10.26230 -10.26151 -10.26097 -10.26033
 Alpha  occ. eigenvalues --  -10.25997 -10.25830 -10.25676 -10.25626 -10.25620
 Alpha  occ. eigenvalues --  -10.25564 -10.25465 -10.25415 -10.25401 -10.25316
 Alpha  occ. eigenvalues --  -10.25225 -10.24994 -10.24991 -10.24811 -10.24728
 Alpha  occ. eigenvalues --  -10.24692 -10.24525 -10.24453 -10.24416 -10.24256
 Alpha  occ. eigenvalues --  -10.24224 -10.24217 -10.23885 -10.23745 -10.23611
 Alpha  occ. eigenvalues --  -10.23446 -10.23212 -10.23147 -10.23144 -10.23001
 Alpha  occ. eigenvalues --  -10.22866 -10.22866 -10.22538 -10.22425 -10.22295
 Alpha  occ. eigenvalues --  -10.22236  -3.14742  -3.14026  -1.87591  -1.87085
 Alpha  occ. eigenvalues --   -1.86978  -1.86861  -1.86406  -1.86253  -1.12969
 Alpha  occ. eigenvalues --   -1.10307  -1.07132  -1.03748  -1.02846  -1.02061
 Alpha  occ. eigenvalues --   -1.01619  -1.00793  -1.00034  -0.99901  -0.99004
 Alpha  occ. eigenvalues --   -0.98943  -0.98295  -0.98104  -0.97221  -0.95359
 Alpha  occ. eigenvalues --   -0.86973  -0.86300  -0.83837  -0.83631  -0.83566
 Alpha  occ. eigenvalues --   -0.82615  -0.82601  -0.82149  -0.82060  -0.81848
 Alpha  occ. eigenvalues --   -0.81449  -0.81334  -0.81124  -0.80226  -0.79109
 Alpha  occ. eigenvalues --   -0.78228  -0.78090  -0.77749  -0.77173  -0.76598
 Alpha  occ. eigenvalues --   -0.76055  -0.75840  -0.75647  -0.75388  -0.74856
 Alpha  occ. eigenvalues --   -0.74609  -0.72939  -0.72783  -0.71953  -0.71733
 Alpha  occ. eigenvalues --   -0.71678  -0.70697  -0.70516  -0.70070  -0.69584
 Alpha  occ. eigenvalues --   -0.69200  -0.67278  -0.66723  -0.66152  -0.65926
 Alpha  occ. eigenvalues --   -0.64182  -0.63771  -0.63580  -0.63164  -0.62694
 Alpha  occ. eigenvalues --   -0.62642  -0.62256  -0.61369  -0.60216  -0.59879
 Alpha  occ. eigenvalues --   -0.59826  -0.59804  -0.59323  -0.59289  -0.59068
 Alpha  occ. eigenvalues --   -0.58659  -0.57364  -0.56169  -0.55411  -0.54500
 Alpha  occ. eigenvalues --   -0.54283  -0.53995  -0.53878  -0.53711  -0.53163
 Alpha  occ. eigenvalues --   -0.52923  -0.52485  -0.52178  -0.52149  -0.51885
 Alpha  occ. eigenvalues --   -0.50792  -0.50566  -0.50550  -0.50330  -0.50198
 Alpha  occ. eigenvalues --   -0.50020  -0.49938  -0.49793  -0.49127  -0.48935
 Alpha  occ. eigenvalues --   -0.48594  -0.48036  -0.47884  -0.47676  -0.47515
 Alpha  occ. eigenvalues --   -0.47385  -0.47300  -0.47181  -0.47070  -0.46776
 Alpha  occ. eigenvalues --   -0.46502  -0.46313  -0.46157  -0.45975  -0.45616
 Alpha  occ. eigenvalues --   -0.45612  -0.45463  -0.45312  -0.45231  -0.44859
 Alpha  occ. eigenvalues --   -0.44833  -0.44694  -0.44116  -0.44110  -0.43735
 Alpha  occ. eigenvalues --   -0.43698  -0.43603  -0.43521  -0.43259  -0.43169
 Alpha  occ. eigenvalues --   -0.43115  -0.43055  -0.42920  -0.42818  -0.42718
 Alpha  occ. eigenvalues --   -0.42495  -0.42474  -0.42010  -0.41681  -0.41655
 Alpha  occ. eigenvalues --   -0.41513  -0.41299  -0.41185  -0.41169  -0.41036
 Alpha  occ. eigenvalues --   -0.41025  -0.40744  -0.40737  -0.40659  -0.40399
 Alpha  occ. eigenvalues --   -0.40205  -0.40006  -0.39929  -0.39711  -0.39588
 Alpha  occ. eigenvalues --   -0.39214  -0.39208  -0.39092  -0.39052  -0.38944
 Alpha  occ. eigenvalues --   -0.38649  -0.38536  -0.38517  -0.38222  -0.38177
 Alpha  occ. eigenvalues --   -0.38039  -0.37906  -0.37800  -0.37604  -0.37572
 Alpha  occ. eigenvalues --   -0.37518  -0.37477  -0.37289  -0.37139  -0.37037
 Alpha  occ. eigenvalues --   -0.36635  -0.36502  -0.36470  -0.36310  -0.36255
 Alpha  occ. eigenvalues --   -0.36158  -0.36093  -0.35691  -0.35504  -0.35334
 Alpha  occ. eigenvalues --   -0.35169  -0.34697  -0.34533  -0.34340  -0.34197
 Alpha  occ. eigenvalues --   -0.33636  -0.33194  -0.32961  -0.32841  -0.32634
 Alpha  occ. eigenvalues --   -0.32339  -0.31991  -0.31986  -0.31634  -0.31509
 Alpha  occ. eigenvalues --   -0.31417  -0.31353  -0.29584  -0.29290  -0.29210
 Alpha  occ. eigenvalues --   -0.29115  -0.28607  -0.28250  -0.27375  -0.26982
 Alpha  occ. eigenvalues --   -0.26359  -0.26267  -0.25795  -0.25611  -0.25410
 Alpha  occ. eigenvalues --   -0.25253  -0.24980  -0.24417  -0.20996  -0.20635
 Alpha  occ. eigenvalues --   -0.19320  -0.18856
 Alpha virt. eigenvalues --   -0.11758  -0.10951  -0.05160  -0.04909  -0.04242
 Alpha virt. eigenvalues --   -0.04114  -0.02295  -0.02056  -0.01036  -0.00262
 Alpha virt. eigenvalues --   -0.00135   0.00532   0.00855   0.01488   0.01647

 Mulliken charges:
               1
     1  Mg  11.999991
     2  C    6.000045
     3  C    6.000028
     4  C    5.999962
     5  C    5.999963
     6  N    7.000033
     7  C    5.999949
     8  C    6.000016
     9  C    5.999975
    10  C    6.000004
    11  C    5.999996
    12  C    6.000004
    13  C    5.999997
    14  H    1.000034
    15  N    6.999984
    16  C    6.000007
    17  C    6.000022
    18  C    6.000011
    19  C    6.000040
    20  C    5.999999
    21  C    6.000010
    22  O    8.000017
    23  C    5.999994
    24  N    6.999974
    25  C    6.000035
    26  C    5.999987
    27  C    6.000024
    28  C    6.000012
    29  C    5.999999
    30  C    6.000002
    31  C    5.999994
    32  N    7.000020
    33  C    5.999993
    34  C    5.999960
    35  C    6.000008
    36  C    5.999971
    37  C    6.000008
    38  C    5.999974
    39  O    7.999971
    40  C    5.999997
    41  C    5.999997
    42  O    8.000025
    43  O    7.999985
    44  C    6.000000
    45  H    1.000017
    46  H    1.000003
    47  H    0.999986
    48  H    1.000024
    49  H    0.999994
    50  H    1.000038
    51  H    1.000017
    52  H    1.000017
    53  H    0.999976
    54  H    0.999983
    55  H    0.999977
    56  H    0.999993
    57  H    1.000044
    58  H    0.999999
    59  H    0.999999
    60  H    0.999985
    61  H    1.000027
    62  H    1.000018
    63  H    0.999974
    64  H    1.000016
    65  H    1.000027
    66  H    1.000025
    67  H    0.999986
    68  H    0.999990
    69  H    0.999971
    70  H    1.000017
    71  H    0.999997
    72  H    0.999970
    73  H    0.999955
    74  H    0.999995
    75  H    0.999973
    76  H    0.999972
    77  H    1.000013
    78  H    1.000020
    79  H    0.999980
    80  Mg  12.005738
    81  C    5.977422
    82  C    6.001251
    83  C    6.022117
    84  C    6.000659
    85  N    6.981634
    86  C    6.035137
    87  C    5.991309
    88  C    6.008334
    89  C    5.967430
    90  C    6.001439
    91  C    5.997388
    92  C    6.002937
    93  H    0.997300
    94  N    7.005776
    95  C    5.966111
    96  C    5.981693
    97  C    5.981721
    98  C    5.971845
    99  C    6.004883
   100  C    5.988881
   101  O    7.966402
   102  C    6.005938
   103  N    7.007538
   104  C    5.972131
   105  C    6.004358
   106  C    5.988215
   107  C    6.028634
   108  C    6.001472
   109  C    5.990543
   110  C    5.997969
   111  N    6.997300
   112  C    6.029303
   113  C    6.031298
   114  C    5.998225
   115  C    6.034326
   116  C    5.999258
   117  C    6.013653
   118  O    8.024440
   119  C    6.005066
   120  C    6.005833
   121  O    8.001196
   122  O    8.002108
   123  C    5.998494
   124  H    0.989388
   125  H    0.997702
   126  H    1.013800
   127  H    0.998008
   128  H    0.997566
   129  H    0.985938
   130  H    1.000524
   131  H    1.001096
   132  H    1.005501
   133  H    0.993152
   134  H    1.002670
   135  H    1.005060
   136  H    0.984096
   137  H    0.982187
   138  H    0.982311
   139  H    0.992737
   140  H    0.985877
   141  H    0.991429
   142  H    1.002804
   143  H    1.002861
   144  H    1.006577
   145  H    0.990534
   146  H    1.000618
   147  H    1.011312
   148  H    0.998098
   149  H    1.014648
   150  H    1.005691
   151  H    0.995633
   152  H    1.019453
   153  H    1.019683
   154  H    1.014504
   155  H    1.004223
   156  H    1.002959
   157  H    1.000587
   158  H    1.006064
 Sum of Mulliken charges = 624.00000

 Dipole moment (field-independent basis, Debye):
    X=              6.5377    Y=              2.5377    Z=             -7.6059  Tot=             10.3456
 Quadrupole moment (field-independent basis, Debye-Ang):
   XX=            320.0665   YY=             -3.3169   ZZ=             -4.2142
   XY=             56.8157   XZ=           -183.9256   YZ=              9.9891

 Normal termination of Gaussian 16 at Fri Oct 15 10:05:10 2021.
