 Gaussian 16, Revision A.03,
 Gaussian 16:  ES64L-G16RevA.03 25-Dec-2016

 --------------------------------------------------------
 #p PBE1PBE/Def2SVP td=(nstates=5) density=(transition=1)
 --------------------------------------------------------

 --------------------------------
 TDDFT excited states in gaussian
 --------------------------------
 Symbolic Z-matrix:
 Charge =  0 Multiplicity = 1

                         Standard orientation:
 ---------------------------------------------------------------------
 Center     Atomic      Atomic             Coordinates (Angstroms)
 Number     Number       Type             X           Y           Z
 ---------------------------------------------------------------------
      1         12           0       13.605493   -0.155914    0.214452
      2          6           0       11.181720   -1.079594   -1.990573
      3          6           0       14.302365    2.515237   -1.885206
      4          6           0       15.723132    0.960796    2.568419
      5          6           0       12.377584   -2.474117    2.560501
      6          7           0       12.635959    0.765139   -1.603140
      7          6           0       11.680969    0.138809   -2.319437
      8          6           0       11.220773    0.942476   -3.480348
      9          6           0       12.532997    1.935228   -3.638499
     10          6           0       13.238965    1.747512   -2.279125
     11          6           0       13.401293    1.595629   -4.885788
     12          6           0        9.957590    1.703217   -3.109669
     13          6           0        9.968678    2.658866   -1.828128
     14          1           0        9.256911    4.005521   -1.864274
     15          7           0       14.836325    1.493787    0.337059
     16          6           0       15.095652    2.424527   -0.700607
     17          6           0       16.203799    3.216797   -0.282913
     18          6           0       16.613831    2.852285    0.993547
     19          6           0       15.770790    1.705999    1.372876
     20          6           0       16.715045    4.281638   -1.231877
     21          6           0       17.652113    3.529589    1.855786
     22          8           0       18.213581    4.530653    1.345059
     23          6           0       17.895251    3.271321    3.235357
     24          7           0       13.827514   -0.560122    2.352342
     25          6           0       14.837167    0.004389    3.074998
     26          6           0       14.861211   -0.538090    4.524081
     27          6           0       13.760710   -1.651438    4.487479
     28          6           0       13.228070   -1.515618    3.071058
     29          6           0       16.224809   -1.026687    4.963888
     30          6           0       12.644845   -1.411175    5.638416
     31          6           0       12.204157   -2.690741    6.358477
     32          7           0       12.063499   -1.575253    0.345759
     33          6           0       11.802987   -2.566152    1.237327
     34          6           0       10.879181   -3.466812    0.603081
     35          6           0       10.592253   -2.984906   -0.720903
     36          6           0       11.326863   -1.813516   -0.802402
     37          6           0       10.126416   -4.553202    1.291825
     38          6           0        9.836813   -3.118551   -1.924852
     39          8           0        9.070322   -4.058622   -2.170039
     40          6           0       10.215858   -1.928187   -2.786378
     41          6           0       10.780413   -2.430017   -4.062795
     42          8           0       10.112523   -3.172495   -4.755339
     43          8           0       12.002101   -1.921008   -4.382114
     44          6           0       12.559641   -2.391373   -5.651690
     45          1           0       14.703839    3.176012   -2.656191
     46          1           0       16.570875    1.184732    3.219031
     47          1           0       12.065315   -3.331114    3.161448
     48          1           0       10.983702    0.419846   -4.407094
     49          1           0       12.223657    2.950718   -3.889265
     50          1           0       13.469727    2.464546   -5.539290
     51          1           0       12.875589    0.811179   -5.430838
     52          1           0       14.401798    1.225769   -4.657790
     53          1           0        9.148403    0.973805   -3.068455
     54          1           0        9.710353    2.201951   -4.046737
     55          1           0       10.953737    2.955528   -1.467676
     56          1           0        9.418252    2.058026   -1.104749
     57          1           0       16.087995    5.154734   -1.050310
     58          1           0       16.547023    3.950939   -2.256058
     59          1           0       17.767337    4.551163   -1.136810
     60          1           0       18.250279    4.160281    3.757662
     61          1           0       18.506565    2.385592    3.412958
     62          1           0       16.904922    3.132189    3.666811
     63          1           0       14.528654    0.318415    5.111555
     64          1           0       14.236039   -2.631191    4.530810
     65          1           0       17.019021   -0.833599    4.243240
     66          1           0       16.365672   -2.033087    5.357193
     67          1           0       16.492903   -0.304963    5.736025
     68          1           0       11.729920   -0.942900    5.275317
     69          1           0       12.974114   -0.686273    6.382648
     70          1           0       12.629694   -2.676016    7.361506
     71          1           0       12.666555   -3.540086    5.855134
     72          1           0       11.120637   -2.791582    6.422957
     73          1           0       10.690060   -5.423839    1.624915
     74          1           0        9.350170   -4.851500    0.586146
     75          1           0        9.645675   -4.203673    2.205573
     76          1           0        9.286894   -1.394657   -2.989660
     77          1           0       11.846907   -2.144404   -6.439053
     78          1           0       12.825017   -3.448669   -5.644022
     79          1           0       13.547724   -1.962996   -5.819238
     80         12           0      -13.239268    0.876618   -0.136083
     81          6           0      -13.200561   -2.659929   -0.221474
     82          6           0       -9.814585    0.861241   -0.563848
     83          6           0      -13.267167    4.243815    0.241839
     84          6           0      -16.684571    0.833945    0.510041
     85          7           0      -11.766105   -0.772075   -0.252765
     86          6           0      -11.981075   -2.127705   -0.489615
     87          6           0      -10.623255   -2.884460   -0.791381
     88          6           0       -9.580111   -1.750015   -0.608625
     89          6           0      -10.407850   -0.460741   -0.408563
     90          6           0       -8.507775   -1.904686    0.533874
     91          6           0      -10.565544   -3.737106   -2.124559
     92          6           0      -10.294535   -5.199105   -1.936198
     93          1           0       -9.388512   -5.884158   -3.034522
     94          7           0      -11.749714    2.272973   -0.156404
     95          6           0      -10.403093    2.112531   -0.412565
     96          6           0       -9.737333    3.402914   -0.326689
     97          6           0      -10.700169    4.425807   -0.095530
     98          6           0      -12.001528    3.666060   -0.012084
     99          6           0       -8.240666    3.623316   -0.625150
    100          6           0      -10.524142    5.937549    0.005209
    101          8           0      -11.445677    6.719300    0.119288
    102          6           0       -9.134167    6.683654   -0.133654
    103          7           0      -14.770385    2.335082    0.413547
    104          6           0      -14.524952    3.636205    0.495555
    105          6           0      -15.819151    4.459968    0.831075
    106          6           0      -16.954305    3.366448    0.722126
    107          6           0      -16.102505    2.078777    0.508519
    108          6           0      -15.684494    5.236886    2.172610
    109          6           0      -17.958252    3.690425   -0.366479
    110          6           0      -19.410558    3.424590    0.025780
    111          7           0      -14.709095   -0.548801    0.247462
    112          6           0      -16.078290   -0.437883    0.396311
    113          6           0      -16.590726   -1.755442    0.615301
    114          6           0      -15.543265   -2.671051    0.346583
    115          6           0      -14.372280   -1.894091    0.124099
    116          6           0      -17.989808   -2.099959    0.960641
    117          6           0      -15.216237   -4.096854    0.170983
    118          8           0      -15.849493   -5.128660    0.374110
    119          6           0      -13.560352   -4.095340   -0.273652
    120          6           0      -12.813881   -4.892749    0.648744
    121          8           0      -12.094191   -4.450522    1.517796
    122          8           0      -12.915532   -6.228932    0.333699
    123          6           0      -12.201525   -7.100634    1.299633
    124          1           0       -8.754010    0.909277   -0.820180
    125          1           0      -13.327594    5.318941    0.420351
    126          1           0      -17.768065    0.914748    0.625229
    127          1           0      -10.459386   -3.495817    0.095372
    128          1           0       -9.005436   -1.605309   -1.523501
    129          1           0       -7.564245   -1.542448    0.124472
    130          1           0       -8.457285   -2.955338    0.818623
    131          1           0       -8.724928   -1.331120    1.435184
    132          1           0       -9.811418   -3.258546   -2.749512
    133          1           0      -11.549514   -3.660122   -2.587451
    134          1           0      -11.235798   -5.750327   -1.938997
    135          1           0       -9.837126   -5.245430   -0.948304
    136          1           0       -8.221261    4.213404   -1.540715
    137          1           0       -7.792692    2.671027   -0.909981
    138          1           0       -7.677232    4.161557    0.138056
    139          1           0       -8.701666    6.408578   -1.096224
    140          1           0       -8.524879    6.614335    0.767978
    141          1           0       -9.384574    7.739482   -0.035026
    142          1           0      -16.067055    5.206189    0.076491
    143          1           0      -17.397157    3.299855    1.716077
    144          1           0      -16.558817    5.015400    2.785318
    145          1           0      -15.519655    6.306324    2.038922
    146          1           0      -14.806114    4.885229    2.711315
    147          1           0      -17.746636    3.157505   -1.292893
    148          1           0      -17.915476    4.720825   -0.722791
    149          1           0      -19.475871    2.878125    0.966692
    150          1           0      -19.826333    2.793074   -0.759847
    151          1           0      -20.019245    4.328785    0.009029
    152          1           0      -18.694566   -1.276897    1.078498
    153          1           0      -17.929139   -2.848685    1.751391
    154          1           0      -18.380251   -2.481947    0.017077
    155          1           0      -13.463909   -4.508194   -1.278223
    156          1           0      -12.613002   -6.959337    2.299288
    157          1           0      -11.143286   -6.862073    1.193557
    158          1           0      -12.330956   -8.161708    1.089987
 ---------------------------------------------------------------------

 SCF Done:  E(RPBE1PBE) =  -4067.37480765     A.U. after   16 cycles

 Excitation energies and oscillator strengths:

 Excited State   1:      Singlet-A      1.8224 eV  680.32 nm  f=0.0000  <S**2>=0.000
     312 -> 313        0.70710
 This state for optimization and/or second-order correction.
 Total Energy, E(TD-HF/TD-DFT) =  -4067.30783435
 Copying the excited state density for this state as the 1-particle RhoCI density.

 Excited State   2:      Singlet-A      1.8743 eV  661.51 nm  f=0.3844  <S**2>=0.000
     310 -> 316        0.17462
     312 -> 314        0.69028

 Excited State   3:      Singlet-A      1.8909 eV  655.70 nm  f=0.3566  <S**2>=0.000
     309 -> 315       -0.16983
     311 -> 313        0.69165
     311 <- 313       -0.10814

 Excited State   4:      Singlet-A      2.1176 eV  585.50 nm  f=0.0000  <S**2>=0.000
     311 -> 314        0.70710

 Excited State   5:      Singlet-A      2.2081 eV  561.49 nm  f=0.1161  <S**2>=0.000
     309 -> 313        0.66035
     311 -> 315        0.22038

 The electronic state is 1-A.
 Alpha  occ. eigenvalues --  -46.92535 -46.91605 -19.27121 -19.24948 -19.19919
 Alpha  occ. eigenvalues --  -19.19824 -19.19706 -19.19443 -19.18750 -19.18305
 Alpha  occ. eigenvalues --  -14.41744 -14.41633 -14.41546 -14.41183 -14.39824
 Alpha  occ. eigenvalues --  -14.39446 -14.38603 -14.38445 -10.36583 -10.35272
 Alpha  occ. eigenvalues --  -10.33402 -10.33197 -10.31876 -10.31796 -10.30039
 Alpha  occ. eigenvalues --  -10.29893 -10.29300 -10.29264 -10.28803 -10.28742
 Alpha  occ. eigenvalues --  -10.28660 -10.28459 -10.28388 -10.28267 -10.28128
 Alpha  occ. eigenvalues --  -10.28090 -10.27933 -10.27791 -10.27310 -10.27198
 Alpha  occ. eigenvalues --  -10.26727 -10.26686 -10.26664 -10.26316 -10.26315
 Alpha  occ. eigenvalues --  -10.26273 -10.26214 -10.26132 -10.26108 -10.26103
 Alpha  occ. eigenvalues --  -10.25948 -10.25756 -10.25751 -10.25660 -10.25604
 Alpha  occ. eigenvalues --  -10.25399 -10.25329 -10.25284 -10.25236 -10.25065
 Alpha  occ. eigenvalues --  -10.25043 -10.25035 -10.25011 -10.24983 -10.24968
 Alpha  occ. eigenvalues --  -10.24947 -10.24932 -10.24734 -10.24548 -10.24304
 Alpha  occ. eigenvalues --  -10.24051 -10.24036 -10.23971 -10.23850 -10.23712
 Alpha  occ. eigenvalues --  -10.23705 -10.23631 -10.23550 -10.23187 -10.23131
 Alpha  occ. eigenvalues --  -10.23047 -10.22914 -10.22852 -10.22753 -10.22628
 Alpha  occ. eigenvalues --  -10.22527  -3.14570  -3.13714  -1.87385  -1.86963
 Alpha  occ. eigenvalues --   -1.86775  -1.86563  -1.86081  -1.85945  -1.12277
 Alpha  occ. eigenvalues --   -1.10600  -1.05890  -1.04281  -1.03964  -1.03011
 Alpha  occ. eigenvalues --   -1.02954  -1.02238  -0.99626  -0.99205  -0.98648
 Alpha  occ. eigenvalues --   -0.97615  -0.96943  -0.96584  -0.96040  -0.95587
 Alpha  occ. eigenvalues --   -0.88606  -0.86313  -0.83594  -0.83403  -0.83376
 Alpha  occ. eigenvalues --   -0.83109  -0.82589  -0.82156  -0.82152  -0.81195
 Alpha  occ. eigenvalues --   -0.81133  -0.80580  -0.80240  -0.80200  -0.79456
 Alpha  occ. eigenvalues --   -0.78542  -0.78511  -0.77933  -0.77565  -0.77119
 Alpha  occ. eigenvalues --   -0.76734  -0.75857  -0.75327  -0.75284  -0.74950
 Alpha  occ. eigenvalues --   -0.74115  -0.73042  -0.72429  -0.72308  -0.71443
 Alpha  occ. eigenvalues --   -0.71254  -0.70734  -0.70510  -0.70037  -0.69344
 Alpha  occ. eigenvalues --   -0.69022  -0.67068  -0.66743  -0.66613  -0.65684
 Alpha  occ. eigenvalues --   -0.64495  -0.63692  -0.63294  -0.63272  -0.63197
 Alpha  occ. eigenvalues --   -0.61932  -0.61598  -0.61450  -0.61031  -0.60008
 Alpha  occ. eigenvalues --   -0.59886  -0.59822  -0.59281  -0.58989  -0.58973
 Alpha  occ. eigenvalues --   -0.58906  -0.58471  -0.55732  -0.54846  -0.54356
 Alpha  occ. eigenvalues --   -0.54296  -0.53902  -0.53750  -0.53297  -0.53235
 Alpha  occ. eigenvalues --   -0.53069  -0.52736  -0.52551  -0.52338  -0.51731
 Alpha  occ. eigenvalues --   -0.51356  -0.51197  -0.50483  -0.50436  -0.50222
 Alpha  occ. eigenvalues --   -0.49784  -0.49320  -0.49207  -0.48938  -0.48815
 Alpha  occ. eigenvalues --   -0.48496  -0.48253  -0.47853  -0.47754  -0.47679
 Alpha  occ. eigenvalues --   -0.47588  -0.47160  -0.47103  -0.47025  -0.46708
 Alpha  occ. eigenvalues --   -0.46550  -0.46483  -0.46226  -0.46085  -0.46002
 Alpha  occ. eigenvalues --   -0.45848  -0.45595  -0.45589  -0.45310  -0.45159
 Alpha  occ. eigenvalues --   -0.44810  -0.44810  -0.44263  -0.44186  -0.44108
 Alpha  occ. eigenvalues --   -0.44040  -0.43928  -0.43857  -0.43428  -0.43417
 Alpha  occ. eigenvalues --   -0.43257  -0.43201  -0.42858  -0.42831  -0.42681
 Alpha  occ. eigenvalues --   -0.42628  -0.42322  -0.42321  -0.41887  -0.41824
 Alpha  occ. eigenvalues --   -0.41548  -0.41408  -0.41188  -0.41107  -0.41071
 Alpha  occ. eigenvalues --   -0.40832  -0.40810  -0.40786  -0.40588  -0.40493
 Alpha  occ. eigenvalues --   -0.40227  -0.40051  -0.39887  -0.39641  -0.39606
 Alpha  occ. eigenvalues --   -0.39543  -0.39504  -0.39371  -0.39320  -0.39130
 Alpha  occ. eigenvalues --   -0.38837  -0.38624  -0.38469  -0.38403  -0.38394
 Alpha  occ. eigenvalues --   -0.38128  -0.37887  -0.37740  -0.37481  -0.37450
 Alpha  occ. eigenvalues --   -0.37341  -0.37206  -0.37161  -0.37155  -0.36847
 Alpha  occ. eigenvalues --   -0.36833  -0.36706  -0.36261  -0.36158  -0.36094
 Alpha  occ. eigenvalues --   -0.36020  -0.35867  -0.35365  -0.35326  -0.35148
 Alpha  occ. eigenvalues --   -0.34842  -0.34567  -0.34554  -0.34285  -0.34174
 Alpha  occ. eigenvalues --   -0.33733  -0.33592  -0.32872  -0.32752  -0.32578
 Alpha  occ. eigenvalues --   -0.32532  -0.32181  -0.32020  -0.31869  -0.31178
 Alpha  occ. eigenvalues --   -0.31099  -0.30927  -0.29835  -0.29252  -0.29250
 Alpha  occ. eigenvalues --   -0.28917  -0.28651  -0.28624  -0.27435  -0.27074
 Alpha  occ. eigenvalues --   -0.26137  -0.25870  -0.25647  -0.25522  -0.25500
 Alpha  occ. eigenvalues --   -0.25414  -0.24872  -0.24616  -0.21263  -0.20878
 Alpha  occ. eigenvalues --   -0.19319  -0.18821
 Alpha virt. eigenvalues --   -0.11634  -0.11028  -0.05468  -0.05268  -0.04103
 Alpha virt. eigenvalues --   -0.04066  -0.02418  -0.02292  -0.01442   0.00192
 Alpha virt. eigenvalues --    0.00301   0.00452   0.01207   0.01247   0.01536

 Mulliken charges:
               1
     1  Mg  12.000000
     2  C    6.000000
     3  C    6.000000
     4  C    6.000000
     5  C    6.000000
     6  N    7.000000
     7  C    6.000000
     8  C    6.000000
     9  C    6.000000
    10  C    6.000000
    11  C    6.000000
    12  C    6.000000
    13  C    6.000000
    14  H    1.000000
    15  N    7.000000
    16  C    6.000000
    17  C    6.000000
    18  C    6.000000
    19  C    6.000000
    20  C    6.000000
    21  C    6.000000
    22  O    8.000000
    23  C    6.000000
    24  N    7.000000
    25  C    6.000000
    26  C    6.000000
    27  C    6.000000
    28  C    6.000000
    29  C    6.000000
    30  C    6.000000
    31  C    6.000000
    32  N    7.000000
    33  C    6.000000
    34  C    6.000000
    35  C    6.000000
    36  C    6.000000
    37  C    6.000000
    38  C    6.000000
    39  O    8.000000
    40  C    6.000000
    41  C    6.000000
    42  O    8.000000
    43  O    8.000000
    44  C    6.000000
    45  H    1.000000
    46  H    1.000000
    47  H    1.000000
    48  H    1.000000
    49  H    1.000000
    50  H    1.000000
    51  H    1.000000
    52  H    1.000000
    53  H    1.000000
    54  H    1.000000
    55  H    1.000000
    56  H    1.000000
    57  H    1.000000
    58  H    1.000000
    59  H    1.000000
    60  H    1.000000
    61  H    1.000000
    62  H    1.000000
    63  H    1.000000
    64  H    1.000000
    65  H    1.000000
    66  H    1.000000
    67  H    1.000000
    68  H    1.000000
    69  H    1.000000
    70  H    1.000000
    71  H    1.000000
    72  H    1.000000
    73  H    1.000000
    74  H    1.000000
    75  H    1.000000
    76  H    1.000000
    77  H    1.000000
    78  H    1.000000
    79  H    1.000000
    80  Mg  12.000000
    81  C    6.000000
    82  C    6.000000
    83  C    6.000000
    84  C    6.000000
    85  N    7.000000
    86  C    6.000000
    87  C    6.000000
    88  C    6.000000
    89  C    6.000000
    90  C    6.000000
    91  C    6.000000
    92  C    6.000000
    93  H    1.000000
    94  N    7.000000
    95  C    6.000000
    96  C    6.000000
    97  C    6.000000
    98  C    6.000000
    99  C    6.000000
   100  C    6.000000
   101  O    8.000000
   102  C    6.000000
   103  N    7.000000
   104  C    6.000000
   105  C    6.000000
   106  C    6.000000
   107  C    6.000000
   108  C    6.000000
   109  C    6.000000
   110  C    6.000000
   111  N    7.000000
   112  C    6.000000
   113  C    6.000000
   114  C    6.000000
   115  C    6.000000
   116  C    6.000000
   117  C    6.000000
   118  O    8.000000
   119  C    6.000000
   120  C    6.000000
   121  O    8.000000
   122  O    8.000000
   123  C    6.000000
   124  H    1.000000
   125  H    1.000000
   126  H    1.000000
   127  H    1.000000
   128  H    1.000000
   129  H    1.000000
   130  H    1.000000
   131  H    1.000000
   132  H    1.000000
   133  H    1.000000
   134  H    1.000000
   135  H    1.000000
   136  H    1.000000
   137  H    1.000000
   138  H    1.000000
   139  H    1.000000
   140  H    1.000000
   141  H    1.000000
   142  H    1.000000
   143  H    1.000000
   144  H    1.000000
   145  H    1.000000
   146  H    1.000000
   147  H    1.000000
   148  H    1.000000
   149  H    1.000000
   150  H    1.000000
   151  H    1.000000
   152  H    1.000000
   153  H    1.000000
   154  H    1.000000
   155  H    1.000000
   156  H    1.000000
   157  H    1.000000
   158  H    1.000000
 Sum of Mulliken charges = 624.00000

 Dipole moment (field-independent basis, Debye):
    X=              0.0000    Y=             -0.0000    Z=             -0.0000  Tot=              0.0000
 Quadrupole moment (field-independent basis, Debye-Ang):
   XX=             -0.0000   YY=              0.0000   ZZ=              0.0000
   XY=             -0.0000   XZ=              0.0000   YZ=              0.0000

 Normal termination of Gaussian 16 at Fri Oct 15 00:24:33 2021.
