 Gaussian 16, Revision A.03,
 Gaussian 16:  ES64L-G16RevA.03 25-Dec-2016

 --------------------------------------------------------
 #p PBE1PBE/Def2SVP td=(nstates=5) density=(transition=1)
 --------------------------------------------------------

 --------------------------------
 TDDFT excited states in gaussian
 --------------------------------
 Symbolic Z-matrix:
 Charge =  0 Multiplicity = 1

                         Standard orientation:
 ---------------------------------------------------------------------
 Center     Atomic      Atomic             Coordinates (Angstroms)
 Number     Number       Type             X           Y           Z
 ---------------------------------------------------------------------
      1         12           0       17.521383   -0.457477    0.011988
      2          6           0       15.176758    2.072130    0.492976
      3          6           0       20.047820    1.850413    0.366395
      4          6           0       19.652093   -2.965437   -0.744689
      5          6           0       14.816081   -2.670945   -0.730714
      6          7           0       17.558193    1.701679    0.273115
      7          6           0       16.503628    2.537357    0.475507
      8          6           0       16.971996    3.959428    0.810216
      9          6           0       18.545971    3.832368    0.603349
     10          6           0       18.720797    2.322490    0.409482
     11          6           0       19.029503    4.614826   -0.611692
     12          6           0       16.731083    4.431759    2.288224
     13          6           0       16.562341    5.910290    2.523580
     14          1           0       16.955416    6.858021    1.480493
     15          7           0       19.532116   -0.554089   -0.071297
     16          6           0       20.409881    0.534737    0.101802
     17          6           0       21.738088   -0.019657    0.125343
     18          6           0       21.676568   -1.411501   -0.137845
     19          6           0       20.237047   -1.709936   -0.337859
     20          6           0       22.989419    0.830638    0.175975
     21          6           0       22.728863   -2.438591   -0.185242
     22          8           0       22.548951   -3.556944   -0.618005
     23          6           0       24.212971   -2.074602    0.182786
     24          7           0       17.305934   -2.630517   -0.496155
     25          6           0       18.324442   -3.388998   -0.771934
     26          6           0       17.872173   -4.819514   -1.193381
     27          6           0       16.356525   -4.773989   -1.124785
     28          6           0       16.078432   -3.258944   -0.815389
     29          6           0       18.533269   -5.225059   -2.593989
     30          6           0       15.765706   -5.767618   -0.102277
     31          6           0       15.277975   -7.160400   -0.651068
     32          7           0       15.500021   -0.458302    0.138134
     33          6           0       14.516060   -1.422082   -0.194937
     34          6           0       13.213129   -0.922650    0.029234
     35          6           0       13.458523    0.502662    0.225307
     36          6           0       14.870663    0.668216    0.308329
     37          6           0       11.915046   -1.633804   -0.306724
     38          6           0       12.746649    1.719093    0.365772
     39          8           0       11.549127    1.971516    0.409284
     40          6           0       13.933219    2.855639    0.650857
     41          6           0       13.682149    3.942646   -0.352609
     42          8           0       13.678234    3.777201   -1.576971
     43          8           0       13.309822    5.177767    0.256250
     44          6           0       13.031448    6.308344   -0.683732
     45          1           0       20.797006    2.636573    0.487105
     46          1           0       20.389714   -3.658632   -1.153505
     47          1           0       13.951948   -3.317125   -0.896465
     48          1           0       16.513957    4.611665    0.066319
     49          1           0       19.117480    4.209458    1.451353
     50          1           0       18.271741    5.318552   -0.955109
     51          1           0       19.388681    3.969400   -1.413727
     52          1           0       19.822211    5.328893   -0.388368
     53          1           0       17.557462    4.054919    2.889868
     54          1           0       15.880216    3.860028    2.659341
     55          1           0       17.218886    6.174192    3.352387
     56          1           0       15.518850    6.114899    2.763217
     57          1           0       23.575068    0.787739   -0.742264
     58          1           0       23.574297    0.516703    1.041548
     59          1           0       22.836469    1.902881    0.297393
     60          1           0       24.634642   -1.614657   -0.711315
     61          1           0       24.802574   -2.983388    0.304287
     62          1           0       24.246203   -1.352338    0.997555
     63          1           0       18.306049   -5.449048   -0.416278
     64          1           0       15.903130   -4.894243   -2.107488
     65          1           0       17.763679   -5.490305   -3.318754
     66          1           0       19.134785   -6.132967   -2.545277
     67          1           0       19.062988   -4.326598   -2.913311
     68          1           0       14.910795   -5.261246    0.347229
     69          1           0       16.518859   -5.896914    0.675133
     70          1           0       14.253034   -7.035072   -1.001976
     71          1           0       15.363150   -8.039284   -0.011714
     72          1           0       15.890976   -7.241444   -1.548076
     73          1           0       11.737091   -2.250594    0.573798
     74          1           0       12.026573   -2.274520   -1.180650
     75          1           0       11.099002   -1.008609   -0.671355
     76          1           0       13.854558    3.191667    1.685522
     77          1           0       12.176949    6.095820   -1.325191
     78          1           0       13.832152    6.644191   -1.343194
     79          1           0       12.739271    7.064387    0.045053
     80         12           0      -17.115677   -0.872625    0.268358
     81          6           0      -17.499012    2.506350   -0.933889
     82          6           0      -15.750041    0.513740    3.185610
     83          6           0      -16.867874   -3.933094    1.431122
     84          6           0      -18.210745   -2.052620   -2.834796
     85          7           0      -16.666380    1.330898    0.989133
     86          6           0      -17.095275    2.498327    0.441038
     87          6           0      -16.974409    3.661478    1.412077
     88          6           0      -16.072420    3.063645    2.630330
     89          6           0      -16.135945    1.556482    2.248540
     90          6           0      -14.660236    3.686219    2.765731
     91          6           0      -18.366283    4.208553    1.876809
     92          6           0      -18.574594    5.719683    1.597945
     93          1           0      -18.741551    6.622193    2.952235
     94          7           0      -16.434054   -1.583445    2.008867
     95          6           0      -15.859993   -0.901500    3.134726
     96          6           0      -15.477240   -1.810332    4.241092
     97          6           0      -15.871067   -3.084229    3.715161
     98          6           0      -16.410061   -2.898779    2.357413
     99          6           0      -14.817548   -1.371526    5.549996
    100          6           0      -15.698321   -4.424209    4.322485
    101          8           0      -16.251648   -5.453578    3.951020
    102          6           0      -14.863801   -4.527599    5.614226
    103          7           0      -17.646407   -2.671118   -0.521446
    104          6           0      -17.418662   -3.825894    0.145003
    105          6           0      -17.590025   -5.045290   -0.717572
    106          6           0      -18.066805   -4.487051   -2.081045
    107          6           0      -18.038619   -2.965359   -1.813202
    108          6           0      -16.384781   -5.960692   -0.768184
    109          6           0      -19.589362   -4.998406   -2.414815
    110          6           0      -19.786798   -5.733067   -3.849932
    111          7           0      -17.484727    0.004731   -1.633017
    112          6           0      -18.007875   -0.639521   -2.779970
    113          6           0      -18.309684    0.396735   -3.774066
    114          6           0      -18.247886    1.599400   -3.022096
    115          6           0      -17.637927    1.321069   -1.797982
    116          6           0      -18.683218    0.261912   -5.247202
    117          6           0      -18.309639    3.077102   -3.204730
    118          8           0      -18.558798    3.854712   -4.167377
    119          6           0      -17.938657    3.676131   -1.793197
    120          6           0      -16.849048    4.690487   -1.979405
    121          8           0      -15.887227    4.528772   -2.675924
    122          8           0      -17.187362    5.848048   -1.335168
    123          6           0      -16.340672    6.996087   -1.747088
    124          1           0      -15.211341    0.985692    4.009688
    125          1           0      -16.808026   -4.973636    1.757828
    126          1           0      -18.590938   -2.396609   -3.798696
    127          1           0      -16.382314    4.419350    0.899028
    128          1           0      -16.571812    3.140955    3.596484
    129          1           0      -13.887618    2.945533    2.557387
    130          1           0      -14.519537    4.097642    3.766095
    131          1           0      -14.466716    4.565160    2.150775
    132          1           0      -18.515507    4.073809    2.948420
    133          1           0      -19.187266    3.700756    1.369917
    134          1           0      -19.534437    5.940254    1.130153
    135          1           0      -17.848497    6.172068    0.923227
    136          1           0      -14.888848   -0.315379    5.811853
    137          1           0      -13.773447   -1.660694    5.669311
    138          1           0      -15.357059   -1.913263    6.327534
    139          1           0      -13.838605   -4.206353    5.430373
    140          1           0      -14.891965   -5.527997    6.047414
    141          1           0      -15.309120   -3.859750    6.351616
    142          1           0      -18.341883   -5.682576   -0.250124
    143          1           0      -17.362412   -4.729747   -2.876131
    144          1           0      -16.522681   -6.892028   -0.218229
    145          1           0      -15.481077   -5.561436   -0.307876
    146          1           0      -16.157958   -6.156346   -1.816420
    147          1           0      -20.337587   -4.206814   -2.390751
    148          1           0      -19.954545   -5.722962   -1.687445
    149          1           0      -18.792528   -6.073319   -4.140008
    150          1           0      -20.208242   -5.058991   -4.596795
    151          1           0      -20.350939   -6.659707   -3.747437
    152          1           0      -19.351550    1.057124   -5.576886
    153          1           0      -19.299237   -0.632868   -5.343885
    154          1           0      -17.720953    0.117463   -5.738618
    155          1           0      -18.814804    4.241622   -1.476897
    156          1           0      -15.301674    6.700261   -1.603203
    157          1           0      -16.557437    7.751907   -0.992363
    158          1           0      -16.406646    7.366882   -2.769919
 ---------------------------------------------------------------------

 SCF Done:  E(RPBE1PBE) =  -4067.39752099     A.U. after   16 cycles

 Excitation energies and oscillator strengths:

 Excited State   1:      Singlet-A      1.8271 eV  678.60 nm  f=0.3612  <S**2>=0.000
     310 -> 315       -0.18276
     312 -> 314        0.69120
     312 <- 314       -0.10663
 This state for optimization and/or second-order correction.
 Total Energy, E(TD-HF/TD-DFT) =  -4067.33037748
 Copying the excited state density for this state as the 1-particle RhoCI density.

 Excited State   2:      Singlet-A      1.8459 eV  671.67 nm  f=0.3536  <S**2>=0.000
     309 -> 316        0.17452
     311 -> 313        0.69207
     311 <- 313       -0.10442

 Excited State   3:      Singlet-A      1.8891 eV  656.33 nm  f=0.0000  <S**2>=0.000
     312 -> 313        0.70710

 Excited State   4:      Singlet-A      2.0181 eV  614.37 nm  f=0.0000  <S**2>=0.000
     311 -> 314        0.70710

 Excited State   5:      Singlet-A      2.1728 eV  570.63 nm  f=0.1302  <S**2>=0.000
     310 -> 314        0.65738
     312 -> 315        0.25555

 The electronic state is 1-A.
 Alpha  occ. eigenvalues --  -46.91925 -46.91416 -19.26249 -19.24923 -19.19913
 Alpha  occ. eigenvalues --  -19.19784 -19.19187 -19.19016 -19.18994 -19.18893
 Alpha  occ. eigenvalues --  -14.42154 -14.41911 -14.41549 -14.41219 -14.40264
 Alpha  occ. eigenvalues --  -14.39747 -14.39227 -14.38970 -10.36206 -10.35798
 Alpha  occ. eigenvalues --  -10.32387 -10.32304 -10.32071 -10.31826 -10.29405
 Alpha  occ. eigenvalues --  -10.29102 -10.29101 -10.29047 -10.29041 -10.29019
 Alpha  occ. eigenvalues --  -10.28998 -10.28818 -10.28788 -10.28649 -10.28501
 Alpha  occ. eigenvalues --  -10.28440 -10.28404 -10.28334 -10.28044 -10.27898
 Alpha  occ. eigenvalues --  -10.27126 -10.26906 -10.26869 -10.26830 -10.26804
 Alpha  occ. eigenvalues --  -10.26753 -10.26403 -10.26384 -10.26358 -10.26024
 Alpha  occ. eigenvalues --  -10.25986 -10.25875 -10.25868 -10.25801 -10.25752
 Alpha  occ. eigenvalues --  -10.25646 -10.25632 -10.25568 -10.25500 -10.25458
 Alpha  occ. eigenvalues --  -10.25423 -10.25421 -10.25268 -10.25153 -10.24967
 Alpha  occ. eigenvalues --  -10.24928 -10.24902 -10.24897 -10.24621 -10.24516
 Alpha  occ. eigenvalues --  -10.24509 -10.24116 -10.23949 -10.23945 -10.23870
 Alpha  occ. eigenvalues --  -10.23642 -10.23610 -10.23479 -10.23398 -10.23395
 Alpha  occ. eigenvalues --  -10.23320 -10.23247 -10.23174 -10.23044 -10.22953
 Alpha  occ. eigenvalues --  -10.22786  -3.14144  -3.13688  -1.86983  -1.86542
 Alpha  occ. eigenvalues --   -1.86518  -1.86388  -1.86055  -1.85932  -1.11681
 Alpha  occ. eigenvalues --   -1.08283  -1.05578  -1.04522  -1.03759  -1.03464
 Alpha  occ. eigenvalues --   -1.01852  -1.00759  -0.99815  -0.98755  -0.98616
 Alpha  occ. eigenvalues --   -0.98179  -0.97811  -0.97209  -0.96863  -0.96586
 Alpha  occ. eigenvalues --   -0.86633  -0.85903  -0.83587  -0.83254  -0.82857
 Alpha  occ. eigenvalues --   -0.82727  -0.82668  -0.82288  -0.82044  -0.81761
 Alpha  occ. eigenvalues --   -0.81673  -0.81197  -0.80760  -0.80041  -0.78567
 Alpha  occ. eigenvalues --   -0.78200  -0.77442  -0.77397  -0.76489  -0.76037
 Alpha  occ. eigenvalues --   -0.75741  -0.75450  -0.74963  -0.74614  -0.74315
 Alpha  occ. eigenvalues --   -0.73932  -0.73218  -0.72860  -0.71675  -0.71435
 Alpha  occ. eigenvalues --   -0.71205  -0.71070  -0.70282  -0.70227  -0.69547
 Alpha  occ. eigenvalues --   -0.69429  -0.67669  -0.66999  -0.66071  -0.65809
 Alpha  occ. eigenvalues --   -0.63850  -0.63449  -0.63391  -0.63121  -0.62609
 Alpha  occ. eigenvalues --   -0.61925  -0.61682  -0.61478  -0.60338  -0.60207
 Alpha  occ. eigenvalues --   -0.59977  -0.59747  -0.59497  -0.59257  -0.58952
 Alpha  occ. eigenvalues --   -0.58520  -0.56909  -0.56087  -0.55243  -0.54812
 Alpha  occ. eigenvalues --   -0.54288  -0.53959  -0.53822  -0.53279  -0.53255
 Alpha  occ. eigenvalues --   -0.52914  -0.52439  -0.52433  -0.51897  -0.51692
 Alpha  occ. eigenvalues --   -0.50840  -0.50652  -0.49834  -0.49557  -0.49436
 Alpha  occ. eigenvalues --   -0.49234  -0.49026  -0.48637  -0.48354  -0.47921
 Alpha  occ. eigenvalues --   -0.47870  -0.47741  -0.47393  -0.47237  -0.47069
 Alpha  occ. eigenvalues --   -0.46857  -0.46855  -0.46768  -0.46682  -0.46618
 Alpha  occ. eigenvalues --   -0.46236  -0.46235  -0.46010  -0.45959  -0.45782
 Alpha  occ. eigenvalues --   -0.45417  -0.45304  -0.45046  -0.44686  -0.44664
 Alpha  occ. eigenvalues --   -0.44495  -0.44462  -0.44318  -0.44209  -0.43897
 Alpha  occ. eigenvalues --   -0.43861  -0.43856  -0.43682  -0.43650  -0.43233
 Alpha  occ. eigenvalues --   -0.43183  -0.43048  -0.42912  -0.42879  -0.42758
 Alpha  occ. eigenvalues --   -0.42598  -0.42389  -0.42262  -0.42228  -0.42026
 Alpha  occ. eigenvalues --   -0.41917  -0.41800  -0.41679  -0.41658  -0.41584
 Alpha  occ. eigenvalues --   -0.41538  -0.41171  -0.40887  -0.40684  -0.40513
 Alpha  occ. eigenvalues --   -0.40289  -0.40006  -0.39871  -0.39699  -0.39605
 Alpha  occ. eigenvalues --   -0.39524  -0.39472  -0.39301  -0.39205  -0.38916
 Alpha  occ. eigenvalues --   -0.38857  -0.38845  -0.38745  -0.38708  -0.38418
 Alpha  occ. eigenvalues --   -0.38293  -0.38062  -0.37957  -0.37793  -0.37651
 Alpha  occ. eigenvalues --   -0.37584  -0.37409  -0.37054  -0.37049  -0.36869
 Alpha  occ. eigenvalues --   -0.36759  -0.36727  -0.36511  -0.36352  -0.36220
 Alpha  occ. eigenvalues --   -0.36107  -0.35740  -0.35641  -0.35558  -0.35325
 Alpha  occ. eigenvalues --   -0.35111  -0.35098  -0.34743  -0.34445  -0.34426
 Alpha  occ. eigenvalues --   -0.33624  -0.33524  -0.33205  -0.32827  -0.32470
 Alpha  occ. eigenvalues --   -0.32312  -0.32206  -0.32069  -0.31409  -0.31264
 Alpha  occ. eigenvalues --   -0.30804  -0.30602  -0.29737  -0.29712  -0.29321
 Alpha  occ. eigenvalues --   -0.29209  -0.28598  -0.28541  -0.27093  -0.27022
 Alpha  occ. eigenvalues --   -0.26057  -0.25954  -0.25732  -0.25652  -0.25524
 Alpha  occ. eigenvalues --   -0.25520  -0.25109  -0.24971  -0.21131  -0.20802
 Alpha  occ. eigenvalues --   -0.19163  -0.18880
 Alpha virt. eigenvalues --   -0.11560  -0.11356  -0.05274  -0.05259  -0.04029
 Alpha virt. eigenvalues --   -0.04003  -0.02335  -0.02061  -0.00022   0.00035
 Alpha virt. eigenvalues --    0.00739   0.01054   0.01115   0.01298   0.01329

 Mulliken charges:
               1
     1  Mg  12.000017
     2  C    5.999262
     3  C    5.999991
     4  C    6.000480
     5  C    6.000017
     6  N    6.999612
     7  C    6.000911
     8  C    5.999706
     9  C    6.000328
    10  C    5.999349
    11  C    6.000129
    12  C    5.999931
    13  C    6.000015
    14  H    1.000017
    15  N    7.000217
    16  C    5.999117
    17  C    5.999467
    18  C    5.999543
    19  C    5.999305
    20  C    6.000141
    21  C    5.999732
    22  O    7.999176
    23  C    6.000066
    24  N    7.000174
    25  C    5.999343
    26  C    6.000044
    27  C    5.999916
    28  C    6.000579
    29  C    6.000065
    30  C    5.999877
    31  C    6.000042
    32  N    7.000021
    33  C    6.000811
    34  C    6.000745
    35  C    6.000114
    36  C    6.000771
    37  C    5.999982
    38  C    6.000433
    39  O    8.000911
    40  C    6.000173
    41  C    6.000108
    42  O    8.000030
    43  O    8.000100
    44  C    5.999971
    45  H    0.999610
    46  H    0.999911
    47  H    1.000359
    48  H    0.999898
    49  H    0.999924
    50  H    0.999578
    51  H    1.000016
    52  H    0.999874
    53  H    1.000272
    54  H    0.999863
    55  H    1.000095
    56  H    0.999931
    57  H    0.999470
    58  H    0.999561
    59  H    0.999557
    60  H    0.999733
    61  H    0.999615
    62  H    0.999886
    63  H    1.000118
    64  H    0.999955
    65  H    0.999767
    66  H    1.000004
    67  H    1.000116
    68  H    0.999921
    69  H    1.000288
    70  H    0.999983
    71  H    1.000171
    72  H    1.000083
    73  H    1.000527
    74  H    1.000384
    75  H    1.000358
    76  H    1.000231
    77  H    0.999981
    78  H    1.000092
    79  H    1.000135
    80  Mg  12.004077
    81  C    5.975335
    82  C    5.997550
    83  C    6.028964
    84  C    5.997412
    85  N    6.982576
    86  C    6.032175
    87  C    5.990257
    88  C    6.011132
    89  C    5.972968
    90  C    6.002353
    91  C    5.998789
    92  C    5.997925
    93  H    1.006458
    94  N    7.002830
    95  C    5.969628
    96  C    5.975927
    97  C    5.987405
    98  C    5.973730
    99  C    6.003154
   100  C    5.988306
   101  O    7.968958
   102  C    6.003793
   103  N    7.008734
   104  C    5.964278
   105  C    6.008657
   106  C    5.989414
   107  C    6.028603
   108  C    6.000571
   109  C    5.995494
   110  C    5.999273
   111  N    6.998061
   112  C    6.036613
   113  C    6.030431
   114  C    6.002263
   115  C    6.028413
   116  C    6.001564
   117  C    6.011786
   118  O    8.029006
   119  C    6.003546
   120  C    6.006926
   121  O    8.000029
   122  O    8.001723
   123  C    5.998401
   124  H    0.986825
   125  H    0.998458
   126  H    1.012374
   127  H    0.997496
   128  H    0.999163
   129  H    1.000542
   130  H    0.996613
   131  H    0.987179
   132  H    1.007967
   133  H    0.995460
   134  H    0.997080
   135  H    0.998131
   136  H    0.985373
   137  H    0.981806
   138  H    0.985246
   139  H    0.992660
   140  H    0.986365
   141  H    0.994932
   142  H    1.001743
   143  H    1.003383
   144  H    1.002664
   145  H    1.005386
   146  H    0.991371
   147  H    0.999221
   148  H    1.011595
   149  H    1.003709
   150  H    0.997492
   151  H    1.006024
   152  H    1.013842
   153  H    1.014997
   154  H    1.015827
   155  H    1.004519
   156  H    1.004278
   157  H    1.004715
   158  H    1.000073
 Sum of Mulliken charges = 624.00000

 Dipole moment (field-independent basis, Debye):
    X=             -3.7610    Y=              2.7747    Z=             -9.0779  Tot=             10.2104
 Quadrupole moment (field-independent basis, Debye-Ang):
   XX=            107.7657   YY=             -1.9723   ZZ=             -5.1034
   XY=            -44.5809   XZ=            152.5171   YZ=              9.0120

 Normal termination of Gaussian 16 at Fri Oct 15 11:27:45 2021.
