 Gaussian 16, Revision A.03,
 Gaussian 16:  ES64L-G16RevA.03 25-Dec-2016

 --------------------------------------------------------
 #p PBE1PBE/Def2SVP td=(nstates=5) density=(transition=1)
 --------------------------------------------------------

 --------------------------------
 TDDFT excited states in gaussian
 --------------------------------
 Symbolic Z-matrix:
 Charge =  0 Multiplicity = 1

                         Standard orientation:
 ---------------------------------------------------------------------
 Center     Atomic      Atomic             Coordinates (Angstroms)
 Number     Number       Type             X           Y           Z
 ---------------------------------------------------------------------
      1         12           0      -23.748075   -0.681839   -0.078405
      2          6           0      -22.513396    2.591553   -0.861630
      3          6           0      -24.373093    0.450548    3.118248
      4          6           0      -24.267046   -3.796586    0.760777
      5          6           0      -22.825729   -1.618136   -3.285125
      6          7           0      -23.201235    1.285522    1.111446
      7          6           0      -22.825803    2.449108    0.496437
      8          6           0      -23.024837    3.638571    1.473658
      9          6           0      -23.571294    2.948187    2.792773
     10          6           0      -23.726032    1.440802    2.373474
     11          6           0      -22.692489    3.062936    4.108724
     12          6           0      -23.985006    4.750672    0.973541
     13          6           0      -23.562641    6.165154    1.154944
     14          1           0      -22.450411    6.617167    2.176618
     15          7           0      -24.256567   -1.612432    1.735688
     16          6           0      -24.611059   -0.984632    2.929505
     17          6           0      -24.923582   -2.017680    3.935605
     18          6           0      -25.002010   -3.261919    3.199579
     19          6           0      -24.494137   -2.934705    1.847000
     20          6           0      -25.186819   -1.780059    5.391785
     21          6           0      -25.452635   -4.675035    3.638763
     22          8           0      -25.769941   -5.599412    2.860858
     23          6           0      -25.686906   -4.896954    5.078882
     24          7           0      -23.511477   -2.389024   -1.086721
     25          6           0      -23.745746   -3.590605   -0.454998
     26          6           0      -23.750557   -4.766750   -1.470425
     27          6           0      -23.646414   -3.971716   -2.846640
     28          6           0      -23.320910   -2.558244   -2.396005
     29          6           0      -22.656043   -5.899126   -1.309074
     30          6           0      -24.869783   -3.988514   -3.749375
     31          6           0      -24.692488   -4.712411   -5.100526
     32          7           0      -23.034440    0.292823   -1.813228
     33          6           0      -22.680085   -0.232877   -3.033151
     34          6           0      -22.107700    0.817644   -3.885238
     35          6           0      -22.090657    1.936342   -3.071237
     36          6           0      -22.656767    1.577568   -1.827573
     37          6           0      -21.578993    0.717661   -5.277999
     38          6           0      -21.743004    3.311651   -3.090382
     39          8           0      -21.347511    4.073681   -4.017970
     40          6           0      -21.982469    3.783578   -1.718992
     41          6           0      -20.750685    4.459591   -1.180366
     42          8           0      -19.744079    3.913535   -0.881700
     43          8           0      -20.981132    5.762631   -1.020833
     44          6           0      -19.884280    6.647662   -0.820483
     45          1           0      -24.590413    0.721600    4.153661
     46          1           0      -24.447246   -4.867589    0.882007
     47          1           0      -22.467231   -1.940846   -4.263984
     48          1           0      -22.033344    4.067046    1.624732
     49          1           0      -24.562589    3.333596    3.029403
     50          1           0      -21.843681    3.743241    4.045264
     51          1           0      -22.248965    2.080075    4.274541
     52          1           0      -23.320402    3.307985    4.965869
     53          1           0      -24.960284    4.718808    1.460659
     54          1           0      -24.179030    4.689838   -0.096939
     55          1           0      -24.405947    6.757128    1.511904
     56          1           0      -23.265915    6.540440    0.175941
     57          1           0      -24.518722   -2.402964    5.986145
     58          1           0      -26.214119   -2.097130    5.571311
     59          1           0      -25.210212   -0.715492    5.626991
     60          1           0      -24.734239   -4.759121    5.590377
     61          1           0      -25.946926   -5.951428    5.168260
     62          1           0      -26.541795   -4.330714    5.447528
     63          1           0      -24.747603   -5.202884   -1.401089
     64          1           0      -22.818647   -4.413990   -3.400895
     65          1           0      -22.020957   -5.686632   -0.449811
     66          1           0      -22.097567   -6.089203   -2.226432
     67          1           0      -23.188133   -6.837416   -1.151445
     68          1           0      -25.372858   -3.034669   -3.908731
     69          1           0      -25.631428   -4.568366   -3.229123
     70          1           0      -25.101021   -4.219804   -5.982648
     71          1           0      -25.347049   -5.583962   -5.072723
     72          1           0      -23.667627   -4.971307   -5.363033
     73          1           0      -21.922218   -0.179768   -5.793499
     74          1           0      -20.501212    0.556907   -5.257104
     75          1           0      -21.770041    1.681598   -5.749456
     76          1           0      -22.797167    4.503581   -1.791616
     77          1           0      -19.392592    6.745090   -1.789422
     78          1           0      -19.130993    6.195535   -0.175146
     79          1           0      -20.227030    7.639556   -0.524721
     80         12           0       23.585305   -0.653018   -0.094895
     81          6           0       21.058971    1.614873    0.505330
     82          6           0       25.621704    2.161466   -0.966475
     83          6           0       25.955618   -2.695647   -1.023576
     84          6           0       21.412955   -3.289294    0.449305
     85          7           0       23.246813    1.660591   -0.406519
     86          6           0       22.219817    2.304010    0.122811
     87          6           0       22.552381    3.808549    0.331037
     88          6           0       23.755375    3.955304   -0.665062
     89          6           0       24.291250    2.515694   -0.719659
     90          6           0       23.304871    4.479559   -2.074827
     91          6           0       22.939324    3.959453    1.819094
     92          6           0       23.174707    5.389435    2.324242
     93          1           0       23.273577    6.538643    1.341210
     94          7           0       25.535166   -0.409946   -0.773777
     95          6           0       26.185591    0.845966   -1.029850
     96          6           0       27.583332    0.526737   -1.286499
     97          6           0       27.708441   -0.894724   -1.194069
     98          6           0       26.355899   -1.422770   -1.021367
     99          6           0       28.713864    1.590129   -1.549703
    100          6           0       29.030607   -1.729881   -1.238120
    101          8           0       28.941010   -2.926707   -1.266441
    102          6           0       30.359480   -1.048114   -1.283328
    103          7           0       23.697683   -2.730921   -0.175663
    104          6           0       24.805752   -3.380933   -0.597472
    105          6           0       24.628255   -4.897485   -0.661159
    106          6           0       23.217269   -5.078368   -0.054988
    107          6           0       22.732707   -3.578171    0.085149
    108          6           0       24.771768   -5.540599   -2.089361
    109          6           0       23.094331   -5.952356    1.167054
    110          6           0       24.060987   -5.799280    2.366102
    111          7           0       21.635018   -0.891823    0.364902
    112          6           0       20.872083   -2.005690    0.569654
    113          6           0       19.574169   -1.555301    1.026184
    114          6           0       19.564984   -0.118453    1.062354
    115          6           0       20.874583    0.220577    0.624730
    116          6           0       18.446394   -2.473348    1.381070
    117          6           0       18.797631    1.060358    1.286576
    118          8           0       17.608203    1.251097    1.621550
    119          6           0       19.725187    2.230216    0.645360
    120          6           0       19.551888    3.458982    1.539617
    121          8           0       19.705987    3.484877    2.700586
    122          8           0       19.144786    4.497713    0.751628
    123          6           0       19.258333    5.840127    1.283666
    124          1           0       26.214206    3.017850   -1.293723
    125          1           0       26.694101   -3.421794   -1.369759
    126          1           0       20.673619   -4.074116    0.617794
    127          1           0       21.746577    4.460084   -0.006702
    128          1           0       24.436582    4.625161   -0.139772
    129          1           0       23.583758    5.527676   -2.176105
    130          1           0       22.226335    4.340724   -2.151997
    131          1           0       23.804968    3.980370   -2.904824
    132          1           0       23.895759    3.455657    1.956398
    133          1           0       22.273787    3.398609    2.474591
    134          1           0       23.910174    5.445108    3.127106
    135          1           0       22.300778    5.599355    2.941198
    136          1           0       29.295436    1.364756   -2.444109
    137          1           0       29.312035    1.610365   -0.638866
    138          1           0       28.270252    2.584807   -1.607858
    139          1           0       31.002768   -1.784740   -0.801499
    140          1           0       30.404785   -0.171592   -0.637999
    141          1           0       30.703165   -0.562460   -2.196590
    142          1           0       25.402573   -5.297380   -0.006852
    143          1           0       22.490301   -5.455244   -0.774385
    144          1           0       24.057654   -6.363393   -2.110427
    145          1           0       25.800415   -5.901502   -2.076419
    146          1           0       24.681618   -4.777220   -2.862102
    147          1           0       23.441923   -6.898805    0.754273
    148          1           0       22.105511   -6.060346    1.614041
    149          1           0       24.694257   -6.645465    2.629322
    150          1           0       23.516174   -5.691338    3.303958
    151          1           0       24.733367   -4.962062    2.178256
    152          1           0       17.606204   -1.822742    1.622070
    153          1           0       18.687950   -3.026995    2.289381
    154          1           0       18.232105   -3.253169    0.650868
    155          1           0       19.353151    2.351732   -0.372163
    156          1           0       18.208718    6.040733    1.068327
    157          1           0       20.040137    6.435852    0.812021
    158          1           0       19.402336    5.886617    2.363425
 ---------------------------------------------------------------------

 SCF Done:  E(RPBE1PBE) =  -4067.36828349     A.U. after   16 cycles

 Excitation energies and oscillator strengths:

 Excited State   1:      Singlet-A      1.8640 eV  665.15 nm  f=0.4074  <S**2>=0.000
     309 -> 316        0.17336
     311 -> 313        0.69404
     311 <- 313       -0.11114
 This state for optimization and/or second-order correction.
 Total Energy, E(TD-HF/TD-DFT) =  -4067.29978240
 Copying the excited state density for this state as the 1-particle RhoCI density.

 Excited State   2:      Singlet-A      1.8859 eV  657.44 nm  f=0.3637  <S**2>=0.000
     310 -> 315        0.19006
     312 -> 314        0.68805
     312 <- 314       -0.10014

 Excited State   3:      Singlet-A      1.9268 eV  643.47 nm  f=0.0000  <S**2>=0.000
     312 -> 313        0.70711

 Excited State   4:      Singlet-A      2.0952 eV  591.76 nm  f=0.0000  <S**2>=0.000
     311 -> 314        0.70711

 Excited State   5:      Singlet-A      2.2041 eV  562.53 nm  f=0.1198  <S**2>=0.000
     309 -> 313        0.66065
     311 -> 316       -0.24059

 The electronic state is 1-A.
 Alpha  occ. eigenvalues --  -46.92283 -46.91646 -19.25508 -19.25005 -19.20380
 Alpha  occ. eigenvalues --  -19.19707 -19.19336 -19.19179 -19.19003 -19.18968
 Alpha  occ. eigenvalues --  -14.41511 -14.41234 -14.41157 -14.41136 -14.39319
 Alpha  occ. eigenvalues --  -14.39199 -14.38997 -14.38906 -10.35886 -10.35850
 Alpha  occ. eigenvalues --  -10.32446 -10.32277 -10.32138 -10.31556 -10.29238
 Alpha  occ. eigenvalues --  -10.28860 -10.28647 -10.28610 -10.28525 -10.28361
 Alpha  occ. eigenvalues --  -10.28355 -10.28272 -10.28234 -10.28232 -10.28140
 Alpha  occ. eigenvalues --  -10.27936 -10.27560 -10.27455 -10.27206 -10.26918
 Alpha  occ. eigenvalues --  -10.26721 -10.26698 -10.26679 -10.26263 -10.26244
 Alpha  occ. eigenvalues --  -10.26151 -10.26112 -10.26068 -10.26056 -10.25856
 Alpha  occ. eigenvalues --  -10.25837 -10.25786 -10.25635 -10.25616 -10.25607
 Alpha  occ. eigenvalues --  -10.25400 -10.25388 -10.25303 -10.25267 -10.25263
 Alpha  occ. eigenvalues --  -10.25234 -10.25097 -10.25090 -10.24975 -10.24583
 Alpha  occ. eigenvalues --  -10.24314 -10.24301 -10.24276 -10.24269 -10.24171
 Alpha  occ. eigenvalues --  -10.24065 -10.23800 -10.23790 -10.23739 -10.23666
 Alpha  occ. eigenvalues --  -10.23527 -10.23422 -10.23415 -10.23365 -10.23137
 Alpha  occ. eigenvalues --  -10.22991 -10.22900 -10.22846 -10.22672 -10.22622
 Alpha  occ. eigenvalues --  -10.22574  -3.14440  -3.13861  -1.87263  -1.86829
 Alpha  occ. eigenvalues --   -1.86702  -1.86662  -1.86251  -1.86075  -1.13284
 Alpha  occ. eigenvalues --   -1.12326  -1.06313  -1.04594  -1.04402  -1.03200
 Alpha  occ. eigenvalues --   -1.02655  -1.02519  -0.99859  -0.99321  -0.98640
 Alpha  occ. eigenvalues --   -0.98342  -0.97667  -0.97218  -0.96801  -0.96514
 Alpha  occ. eigenvalues --   -0.87759  -0.87320  -0.83644  -0.83452  -0.83035
 Alpha  occ. eigenvalues --   -0.82751  -0.82715  -0.82675  -0.81875  -0.81635
 Alpha  occ. eigenvalues --   -0.81273  -0.80688  -0.80608  -0.79932  -0.78819
 Alpha  occ. eigenvalues --   -0.78340  -0.77985  -0.77781  -0.76849  -0.76700
 Alpha  occ. eigenvalues --   -0.76327  -0.76009  -0.75945  -0.75714  -0.74833
 Alpha  occ. eigenvalues --   -0.74590  -0.72662  -0.72316  -0.71979  -0.71652
 Alpha  occ. eigenvalues --   -0.71435  -0.71058  -0.70583  -0.70162  -0.69880
 Alpha  occ. eigenvalues --   -0.69590  -0.67525  -0.67080  -0.66435  -0.65949
 Alpha  occ. eigenvalues --   -0.64618  -0.63712  -0.63372  -0.63277  -0.62485
 Alpha  occ. eigenvalues --   -0.61847  -0.60744  -0.60668  -0.60342  -0.59643
 Alpha  occ. eigenvalues --   -0.59423  -0.59403  -0.59225  -0.58945  -0.58803
 Alpha  occ. eigenvalues --   -0.58613  -0.57492  -0.56870  -0.55063  -0.54717
 Alpha  occ. eigenvalues --   -0.54460  -0.54179  -0.53890  -0.53701  -0.53468
 Alpha  occ. eigenvalues --   -0.53359  -0.52778  -0.52711  -0.52358  -0.52348
 Alpha  occ. eigenvalues --   -0.50856  -0.50743  -0.50717  -0.50568  -0.50227
 Alpha  occ. eigenvalues --   -0.49836  -0.49624  -0.49480  -0.48771  -0.48305
 Alpha  occ. eigenvalues --   -0.48261  -0.48054  -0.47960  -0.47734  -0.47649
 Alpha  occ. eigenvalues --   -0.47616  -0.47291  -0.46979  -0.46947  -0.46723
 Alpha  occ. eigenvalues --   -0.46583  -0.46243  -0.46185  -0.46109  -0.45915
 Alpha  occ. eigenvalues --   -0.45802  -0.45346  -0.45243  -0.44753  -0.44732
 Alpha  occ. eigenvalues --   -0.44612  -0.44590  -0.44355  -0.44252  -0.44100
 Alpha  occ. eigenvalues --   -0.43920  -0.43887  -0.43859  -0.43690  -0.43384
 Alpha  occ. eigenvalues --   -0.43333  -0.43240  -0.42957  -0.42914  -0.42899
 Alpha  occ. eigenvalues --   -0.42775  -0.42615  -0.42384  -0.42289  -0.42081
 Alpha  occ. eigenvalues --   -0.41528  -0.41522  -0.41479  -0.41404  -0.41236
 Alpha  occ. eigenvalues --   -0.40910  -0.40876  -0.40665  -0.40628  -0.40597
 Alpha  occ. eigenvalues --   -0.40427  -0.40219  -0.40044  -0.39918  -0.39676
 Alpha  occ. eigenvalues --   -0.39521  -0.39506  -0.39254  -0.39073  -0.38681
 Alpha  occ. eigenvalues --   -0.38440  -0.38295  -0.38174  -0.38148  -0.37989
 Alpha  occ. eigenvalues --   -0.37769  -0.37699  -0.37584  -0.37575  -0.37403
 Alpha  occ. eigenvalues --   -0.37204  -0.36929  -0.36826  -0.36804  -0.36658
 Alpha  occ. eigenvalues --   -0.36578  -0.36486  -0.36383  -0.36289  -0.36278
 Alpha  occ. eigenvalues --   -0.36105  -0.35816  -0.35804  -0.35172  -0.35082
 Alpha  occ. eigenvalues --   -0.34935  -0.34617  -0.34432  -0.34400  -0.33916
 Alpha  occ. eigenvalues --   -0.33313  -0.33180  -0.32847  -0.32787  -0.32519
 Alpha  occ. eigenvalues --   -0.32152  -0.31971  -0.31349  -0.31273  -0.31222
 Alpha  occ. eigenvalues --   -0.30877  -0.30864  -0.30116  -0.29463  -0.29230
 Alpha  occ. eigenvalues --   -0.29112  -0.28813  -0.28473  -0.27072  -0.26943
 Alpha  occ. eigenvalues --   -0.26105  -0.26020  -0.26005  -0.25656  -0.25607
 Alpha  occ. eigenvalues --   -0.25301  -0.25224  -0.24972  -0.20987  -0.20736
 Alpha  occ. eigenvalues --   -0.18910  -0.18716
 Alpha virt. eigenvalues --   -0.11354  -0.10926  -0.05331  -0.05024  -0.04335
 Alpha virt. eigenvalues --   -0.03993  -0.02367  -0.01792  -0.00492   0.00295
 Alpha virt. eigenvalues --    0.01201   0.01306   0.01494   0.01680   0.01759

 Mulliken charges:
               1
     1  Mg  11.999889
     2  C    6.019853
     3  C    5.996581
     4  C    5.972943
     5  C    6.003060
     6  N    7.006238
     7  C    5.970991
     8  C    6.009507
     9  C    5.994129
    10  C    6.024890
    11  C    5.997850
    12  C    6.002155
    13  C    6.000903
    14  H    0.995095
    15  N    6.996473
    16  C    6.039750
    17  C    6.019644
    18  C    6.013576
    19  C    6.032994
    20  C    5.997395
    21  C    6.014966
    22  O    8.029486
    23  C    5.992682
    24  N    6.992595
    25  C    6.035970
    26  C    5.987986
    27  C    6.008270
    28  C    5.972325
    29  C    6.000909
    30  C    6.008315
    31  C    6.001286
    32  N    7.002285
    33  C    5.969314
    34  C    5.965492
    35  C    6.000626
    36  C    5.970084
    37  C    6.002467
    38  C    5.982640
    39  O    7.970145
    40  C    6.005125
    41  C    5.994546
    42  O    7.995051
    43  O    7.998296
    44  C    6.001355
    45  H    1.009914
    46  H    1.004941
    47  H    0.988031
    48  H    1.000576
    49  H    1.001418
    50  H    1.011518
    51  H    0.996074
    52  H    1.000846
    53  H    0.991683
    54  H    1.007090
    55  H    0.996660
    56  H    1.004993
    57  H    1.017073
    58  H    1.017373
    59  H    1.016383
    60  H    1.007496
    61  H    1.014333
    62  H    1.007079
    63  H    0.999051
    64  H    0.998273
    65  H    0.996964
    66  H    1.009149
    67  H    0.999072
    68  H    1.001741
    69  H    0.986687
    70  H    1.000236
    71  H    0.993630
    72  H    0.999410
    73  H    0.982262
    74  H    0.978140
    75  H    0.985404
    76  H    0.990208
    77  H    1.000057
    78  H    0.995289
    79  H    0.994812
    80  Mg  12.000002
    81  C    6.000069
    82  C    6.000100
    83  C    5.999953
    84  C    5.999911
    85  N    7.000055
    86  C    6.000085
    87  C    5.999982
    88  C    6.000033
    89  C    5.999847
    90  C    6.000008
    91  C    5.999974
    92  C    6.000002
    93  H    1.000056
    94  N    7.000015
    95  C    5.999778
    96  C    5.999971
    97  C    5.999906
    98  C    5.999938
    99  C    6.000006
   100  C    5.999900
   101  O    7.999867
   102  C    6.000035
   103  N    6.999952
   104  C    5.999902
   105  C    6.000051
   106  C    5.999967
   107  C    6.000149
   108  C    6.000012
   109  C    5.999980
   110  C    5.999997
   111  N    7.000023
   112  C    6.000160
   113  C    6.000114
   114  C    6.000030
   115  C    6.000024
   116  C    6.000003
   117  C    6.000115
   118  O    8.000186
   119  C    5.999975
   120  C    6.000033
   121  O    8.000004
   122  O    8.000023
   123  C    5.999987
   124  H    0.999962
   125  H    0.999960
   126  H    1.000021
   127  H    1.000017
   128  H    0.999981
   129  H    0.999993
   130  H    0.999953
   131  H    1.000035
   132  H    1.000047
   133  H    0.999945
   134  H    0.999996
   135  H    0.999984
   136  H    0.999927
   137  H    0.999906
   138  H    0.999921
   139  H    0.999901
   140  H    0.999954
   141  H    0.999948
   142  H    0.999973
   143  H    0.999996
   144  H    0.999936
   145  H    0.999994
   146  H    1.000019
   147  H    1.000028
   148  H    0.999960
   149  H    0.999992
   150  H    0.999956
   151  H    1.000056
   152  H    1.000074
   153  H    1.000084
   154  H    1.000125
   155  H    1.000083
   156  H    1.000051
   157  H    1.000045
   158  H    0.999998
 Sum of Mulliken charges = 624.00000

 Dipole moment (field-independent basis, Debye):
    X=             -3.5235    Y=             -4.5680    Z=              9.0539  Tot=             10.7357
 Quadrupole moment (field-independent basis, Debye-Ang):
   XX=            159.8134   YY=              4.1901   ZZ=              0.4600
   XY=            108.5638   XZ=           -212.9769   YZ=             -7.1625

 Normal termination of Gaussian 16 at Fri Oct 15 09:50:51 2021.
