 Gaussian 16, Revision A.03,
 Gaussian 16:  ES64L-G16RevA.03 25-Dec-2016

 --------------------------------------------------------
 #p PBE1PBE/Def2SVP td=(nstates=5) density=(transition=1)
 --------------------------------------------------------

 --------------------------------
 TDDFT excited states in gaussian
 --------------------------------
 Symbolic Z-matrix:
 Charge =  0 Multiplicity = 1

                         Standard orientation:
 ---------------------------------------------------------------------
 Center     Atomic      Atomic             Coordinates (Angstroms)
 Number     Number       Type             X           Y           Z
 ---------------------------------------------------------------------
      1         12           0       30.454591    0.617350   -0.254728
      2          6           0       28.646152   -2.312790   -0.244216
      3          6           0       27.618378    2.289200    0.653629
      4          6           0       32.412394    3.009162    0.911015
      5          6           0       33.280476   -1.265536   -1.147250
      6          7           0       28.494691   -0.089472    0.596303
      7          6           0       27.912192   -1.271965    0.270085
      8          6           0       26.446055   -1.303436    0.586105
      9          6           0       26.109373    0.216158    0.442840
     10          6           0       27.489011    0.855992    0.490824
     11          6           0       25.270102    0.537587   -0.826931
     12          6           0       26.155711   -1.833747    2.078892
     13          6           0       24.821419   -2.697414    2.252785
     14          1           0       23.932466   -1.984468    3.241477
     15          7           0       30.042782    2.485753    0.475156
     16          6           0       28.858430    2.999843    0.873376
     17          6           0       29.036519    4.337591    1.423741
     18          6           0       30.426246    4.571023    1.472681
     19          6           0       31.022613    3.314114    0.939385
     20          6           0       27.824809    5.179265    1.892373
     21          6           0       31.030098    5.760881    2.165131
     22          8           0       30.309393    6.603034    2.633752
     23          6           0       32.540687    5.978196    2.376061
     24          7           0       32.585435    0.939621   -0.234386
     25          6           0       33.103019    1.956406    0.296715
     26          6           0       34.583334    1.891810    0.379178
     27          6           0       34.901143    0.503762   -0.303662
     28          6           0       33.546333    0.015452   -0.582566
     29          6           0       35.255094    3.161072   -0.245748
     30          6           0       35.718334   -0.469818    0.665882
     31          6           0       36.484876   -1.671420    0.007181
     32          7           0       30.918471   -1.341821   -0.708423
     33          6           0       32.088611   -1.929155   -1.154206
     34          6           0       31.855542   -3.294414   -1.535922
     35          6           0       30.461646   -3.487756   -1.235915
     36          6           0       29.990852   -2.327725   -0.651716
     37          6           0       32.835627   -4.267285   -2.108029
     38          6           0       29.401191   -4.432674   -1.308195
     39          8           0       29.297868   -5.605768   -1.689283
     40          6           0       28.234384   -3.781545   -0.494184
     41          6           0       26.988703   -3.998986   -1.286762
     42          8           0       26.204789   -4.945183   -1.127385
     43          8           0       26.876898   -3.031942   -2.247301
     44          6           0       25.654530   -3.293916   -3.057888
     45          1           0       26.754882    2.939787    0.809580
     46          1           0       33.031885    3.789074    1.357457
     47          1           0       34.177353   -1.872561   -1.292523
     48          1           0       26.014341   -1.876385   -0.233564
     49          1           0       25.476705    0.519414    1.277190
     50          1           0       24.295037    0.919758   -0.526166
     51          1           0       25.078967   -0.409941   -1.331740
     52          1           0       25.862845    1.206875   -1.449692
     53          1           0       26.194119   -1.087173    2.872003
     54          1           0       26.962044   -2.487225    2.410343
     55          1           0       25.163727   -3.619848    2.722109
     56          1           0       24.267905   -3.022521    1.371786
     57          1           0       27.849586    5.476139    2.940807
     58          1           0       26.857672    4.719007    1.687087
     59          1           0       27.800417    6.068789    1.263767
     60          1           0       33.091859    6.102914    1.444563
     61          1           0       33.015466    5.202606    2.977540
     62          1           0       32.600244    6.830139    3.054054
     63          1           0       34.769296    1.827995    1.451217
     64          1           0       35.380474    0.504513   -1.282318
     65          1           0       35.851601    3.621061    0.541786
     66          1           0       34.517199    3.860465   -0.639175
     67          1           0       36.050862    2.940099   -0.956933
     68          1           0       35.050762   -0.897756    1.414055
     69          1           0       36.426020    0.174848    1.185061
     70          1           0       37.565519   -1.771452    0.104927
     71          1           0       36.360728   -1.655989   -1.074753
     72          1           0       36.078438   -2.617680    0.364291
     73          1           0       33.805598   -3.867866   -2.403558
     74          1           0       32.248537   -4.627466   -2.951873
     75          1           0       32.827403   -5.021848   -1.321369
     76          1           0       28.116315   -4.176797    0.515309
     77          1           0       25.807059   -4.188010   -3.661557
     78          1           0       25.499681   -2.550104   -3.839498
     79          1           0       24.809632   -3.346241   -2.370905
     80         12           0      -29.998241   -0.541608    0.497022
     81          6           0      -29.956841    2.065309   -2.015078
     82          6           0      -29.679315   -2.618827   -1.956716
     83          6           0      -30.334744   -2.769723    2.902187
     84          6           0      -31.154732    1.863173    2.964652
     85          7           0      -29.711045   -0.252101   -1.763839
     86          6           0      -29.728858    0.849183   -2.594323
     87          6           0      -29.574513    0.429865   -4.011794
     88          6           0      -29.978498   -1.066822   -3.993059
     89          6           0      -29.829270   -1.349008   -2.479422
     90          6           0      -31.423105   -1.343354   -4.464160
     91          6           0      -28.079051    0.551342   -4.435781
     92          6           0      -27.799870    1.188058   -5.852205
     93          1           0      -26.374028    1.783664   -6.184250
     94          7           0      -29.950420   -2.532618    0.437106
     95          6           0      -29.699083   -3.235667   -0.634920
     96          6           0      -29.588181   -4.629035   -0.246452
     97          6           0      -29.658109   -4.605053    1.166425
     98          6           0      -30.017432   -3.264957    1.543633
     99          6           0      -29.260918   -5.716805   -1.285519
    100          6           0      -29.463790   -5.776358    2.088537
    101          8           0      -29.579169   -5.637153    3.269500
    102          6           0      -29.025939   -7.086816    1.520322
    103          7           0      -30.954547   -0.446532    2.620971
    104          6           0      -30.766654   -1.535075    3.364211
    105          6           0      -30.969439   -1.266630    4.808134
    106          6           0      -31.434697    0.223295    4.762687
    107          6           0      -31.182767    0.631951    3.335363
    108          6           0      -31.890271   -2.249354    5.617189
    109          6           0      -30.667737    1.092369    5.834312
    110          6           0      -31.406069    1.557386    7.120416
    111          7           0      -30.461702    1.440442    0.559262
    112          6           0      -30.835599    2.322743    1.597432
    113          6           0      -30.922944    3.698194    1.064931
    114          6           0      -30.577710    3.609395   -0.276994
    115          6           0      -30.353686    2.275373   -0.572455
    116          6           0      -31.456758    4.924482    1.844256
    117          6           0      -30.400038    4.456648   -1.499927
    118          8           0      -30.468283    5.644005   -1.713679
    119          6           0      -30.153428    3.452860   -2.734565
    120          6           0      -29.109655    3.904377   -3.579597
    121          8           0      -27.934802    3.542968   -3.424211
    122          8           0      -29.456890    4.812997   -4.574504
    123          6           0      -28.444264    5.168833   -5.615385
    124          1           0      -29.528883   -3.420583   -2.681815
    125          1           0      -30.383605   -3.499037    3.713344
    126          1           0      -31.491945    2.599247    3.696048
    127          1           0      -30.308583    0.943848   -4.632879
    128          1           0      -29.366887   -1.743211   -4.589844
    129          1           0      -31.421582   -1.996313   -5.337445
    130          1           0      -31.862459   -0.379271   -4.718616
    131          1           0      -32.074398   -1.776565   -3.704531
    132          1           0      -27.710585   -0.474635   -4.442205
    133          1           0      -27.585943    1.092882   -3.628769
    134          1           0      -28.561145    1.948079   -6.025971
    135          1           0      -27.988285    0.346895   -6.520385
    136          1           0      -28.277464   -6.127939   -1.054057
    137          1           0      -29.316436   -5.411760   -2.329927
    138          1           0      -29.902459   -6.584436   -1.134112
    139          1           0      -28.046663   -7.029207    1.045860
    140          1           0      -29.613981   -7.485013    0.693506
    141          1           0      -28.910684   -7.800132    2.336792
    142          1           0      -29.991177   -1.298655    5.287816
    143          1           0      -32.518632    0.264587    4.871998
    144          1           0      -32.137227   -3.063476    4.936571
    145          1           0      -32.762644   -1.823722    6.114329
    146          1           0      -31.317758   -2.639025    6.459075
    147          1           0      -30.334698    2.017889    5.363843
    148          1           0      -29.708153    0.590102    5.956829
    149          1           0      -30.775147    1.384305    7.992090
    150          1           0      -32.352474    1.023612    7.208701
    151          1           0      -31.605012    2.629101    7.083160
    152          1           0      -31.191538    4.790677    2.892620
    153          1           0      -32.546712    4.914026    1.821148
    154          1           0      -31.052752    5.861863    1.461199
    155          1           0      -31.078403    3.396648   -3.307712
    156          1           0      -28.166895    4.295701   -6.207674
    157          1           0      -27.649330    5.790023   -5.204455
    158          1           0      -28.977893    5.726522   -6.384907
 ---------------------------------------------------------------------

 SCF Done:  E(RPBE1PBE) =  -4067.33420035     A.U. after   17 cycles

 Excitation energies and oscillator strengths:

 Excited State   1:      Singlet-A      1.7987 eV  689.31 nm  f=0.3462  <S**2>=0.000
     309 -> 315       -0.16139
     312 -> 314        0.69481
     312 <- 314       -0.10915
 This state for optimization and/or second-order correction.
 Total Energy, E(TD-HF/TD-DFT) =  -4067.26810073
 Copying the excited state density for this state as the 1-particle RhoCI density.

 Excited State   2:      Singlet-A      1.8807 eV  659.24 nm  f=0.3667  <S**2>=0.000
     310 -> 316       -0.15921
     311 -> 313        0.69581
     311 <- 313       -0.11003

 Excited State   3:      Singlet-A      1.9326 eV  641.56 nm  f=0.0000  <S**2>=0.000
     312 -> 313        0.70711

 Excited State   4:      Singlet-A      2.0647 eV  600.48 nm  f=0.0000  <S**2>=0.000
     311 -> 314        0.70711

 Excited State   5:      Singlet-A      2.1989 eV  563.84 nm  f=0.1030  <S**2>=0.000
     309 -> 314        0.65388
     312 -> 315        0.25106

 The electronic state is 1-A.
 Alpha  occ. eigenvalues --  -46.92834 -46.92579 -19.26294 -19.24664 -19.20073
 Alpha  occ. eigenvalues --  -19.19438 -19.19409 -19.19231 -19.18794 -19.18460
 Alpha  occ. eigenvalues --  -14.41503 -14.41461 -14.41188 -14.39736 -14.39735
 Alpha  occ. eigenvalues --  -14.39685 -14.39231 -14.38441 -10.35829 -10.35518
 Alpha  occ. eigenvalues --  -10.33332 -10.32605 -10.32022 -10.31479 -10.29760
 Alpha  occ. eigenvalues --  -10.29010 -10.29006 -10.28889 -10.28507 -10.28506
 Alpha  occ. eigenvalues --  -10.28303 -10.28185 -10.28105 -10.28005 -10.27939
 Alpha  occ. eigenvalues --  -10.27925 -10.27876 -10.27518 -10.27463 -10.26656
 Alpha  occ. eigenvalues --  -10.26642 -10.26619 -10.26512 -10.26475 -10.26352
 Alpha  occ. eigenvalues --  -10.26151 -10.26141 -10.26090 -10.25987 -10.25944
 Alpha  occ. eigenvalues --  -10.25919 -10.25819 -10.25754 -10.25654 -10.25413
 Alpha  occ. eigenvalues --  -10.25410 -10.25348 -10.25336 -10.25331 -10.25218
 Alpha  occ. eigenvalues --  -10.25132 -10.25078 -10.24679 -10.24619 -10.24615
 Alpha  occ. eigenvalues --  -10.24605 -10.24522 -10.24434 -10.24419 -10.24342
 Alpha  occ. eigenvalues --  -10.23930 -10.23911 -10.23830 -10.23759 -10.23758
 Alpha  occ. eigenvalues --  -10.23711 -10.23709 -10.23657 -10.23614 -10.23472
 Alpha  occ. eigenvalues --  -10.23411 -10.23259 -10.23174 -10.23138 -10.23012
 Alpha  occ. eigenvalues --  -10.22549  -3.14938  -3.14731  -1.87764  -1.87558
 Alpha  occ. eigenvalues --   -1.87318  -1.87162  -1.87120  -1.86946  -1.10812
 Alpha  occ. eigenvalues --   -1.08959  -1.06702  -1.06408  -1.05814  -1.03115
 Alpha  occ. eigenvalues --   -1.01673  -1.01370  -1.00902  -1.00495  -0.99616
 Alpha  occ. eigenvalues --   -0.99479  -0.99067  -0.98531  -0.97690  -0.95927
 Alpha  occ. eigenvalues --   -0.87066  -0.85707  -0.84094  -0.83544  -0.83245
 Alpha  occ. eigenvalues --   -0.82931  -0.82522  -0.82297  -0.81972  -0.81782
 Alpha  occ. eigenvalues --   -0.81635  -0.81196  -0.80795  -0.79731  -0.78660
 Alpha  occ. eigenvalues --   -0.78509  -0.78194  -0.77392  -0.76534  -0.76327
 Alpha  occ. eigenvalues --   -0.76056  -0.75866  -0.75320  -0.75169  -0.74719
 Alpha  occ. eigenvalues --   -0.74699  -0.72937  -0.72821  -0.71957  -0.71456
 Alpha  occ. eigenvalues --   -0.71099  -0.71073  -0.70513  -0.70350  -0.69783
 Alpha  occ. eigenvalues --   -0.69741  -0.67368  -0.67213  -0.66621  -0.65536
 Alpha  occ. eigenvalues --   -0.64897  -0.63641  -0.63519  -0.63217  -0.62583
 Alpha  occ. eigenvalues --   -0.62403  -0.62033  -0.61689  -0.61343  -0.60484
 Alpha  occ. eigenvalues --   -0.60074  -0.59790  -0.59604  -0.59434  -0.59051
 Alpha  occ. eigenvalues --   -0.58826  -0.57070  -0.55887  -0.55643  -0.54929
 Alpha  occ. eigenvalues --   -0.54689  -0.54216  -0.53732  -0.53661  -0.53386
 Alpha  occ. eigenvalues --   -0.52578  -0.52566  -0.52203  -0.51798  -0.51436
 Alpha  occ. eigenvalues --   -0.51283  -0.51058  -0.50776  -0.50332  -0.50297
 Alpha  occ. eigenvalues --   -0.50124  -0.49537  -0.48824  -0.48566  -0.48442
 Alpha  occ. eigenvalues --   -0.48274  -0.47942  -0.47542  -0.47367  -0.47150
 Alpha  occ. eigenvalues --   -0.47108  -0.47006  -0.46798  -0.46659  -0.46456
 Alpha  occ. eigenvalues --   -0.46357  -0.46287  -0.45974  -0.45924  -0.45782
 Alpha  occ. eigenvalues --   -0.45368  -0.44960  -0.44925  -0.44801  -0.44762
 Alpha  occ. eigenvalues --   -0.44631  -0.44505  -0.44452  -0.44292  -0.44133
 Alpha  occ. eigenvalues --   -0.44036  -0.43877  -0.43856  -0.43640  -0.43542
 Alpha  occ. eigenvalues --   -0.43386  -0.43313  -0.43001  -0.42966  -0.42494
 Alpha  occ. eigenvalues --   -0.42429  -0.42373  -0.42367  -0.42232  -0.42116
 Alpha  occ. eigenvalues --   -0.42017  -0.41582  -0.41429  -0.41138  -0.41043
 Alpha  occ. eigenvalues --   -0.41021  -0.40950  -0.40659  -0.40600  -0.40529
 Alpha  occ. eigenvalues --   -0.40380  -0.40233  -0.40060  -0.39781  -0.39676
 Alpha  occ. eigenvalues --   -0.39622  -0.39476  -0.39394  -0.39214  -0.39120
 Alpha  occ. eigenvalues --   -0.39079  -0.38917  -0.38799  -0.38706  -0.38320
 Alpha  occ. eigenvalues --   -0.38265  -0.38181  -0.38035  -0.37948  -0.37665
 Alpha  occ. eigenvalues --   -0.37560  -0.37458  -0.37319  -0.37158  -0.37043
 Alpha  occ. eigenvalues --   -0.36902  -0.36802  -0.36736  -0.36243  -0.36233
 Alpha  occ. eigenvalues --   -0.36123  -0.35916  -0.35748  -0.35430  -0.35302
 Alpha  occ. eigenvalues --   -0.35109  -0.34975  -0.34846  -0.34774  -0.34601
 Alpha  occ. eigenvalues --   -0.33625  -0.33295  -0.33241  -0.32672  -0.32660
 Alpha  occ. eigenvalues --   -0.32063  -0.31913  -0.31807  -0.31549  -0.31501
 Alpha  occ. eigenvalues --   -0.31186  -0.30695  -0.30198  -0.29083  -0.28800
 Alpha  occ. eigenvalues --   -0.28382  -0.28353  -0.27711  -0.27247  -0.26842
 Alpha  occ. eigenvalues --   -0.26578  -0.26285  -0.26141  -0.26103  -0.26022
 Alpha  occ. eigenvalues --   -0.25502  -0.25341  -0.24746  -0.21038  -0.20532
 Alpha  occ. eigenvalues --   -0.19125  -0.18751
 Alpha virt. eigenvalues --   -0.11432  -0.11319  -0.05332  -0.04030  -0.03992
 Alpha virt. eigenvalues --   -0.03325  -0.02272  -0.01806  -0.00806  -0.00476
 Alpha virt. eigenvalues --   -0.00058   0.00244   0.01029   0.01194   0.02201

 Mulliken charges:
               1
     1  Mg  11.999378
     2  C    5.986964
     3  C    6.007457
     4  C    6.015140
     5  C    5.996743
     6  N    6.991732
     7  C    6.033969
     8  C    5.989617
     9  C    6.013758
    10  C    5.968108
    11  C    6.003013
    12  C    6.001069
    13  C    5.997803
    14  H    1.008886
    15  N    7.004693
    16  C    5.964500
    17  C    5.977682
    18  C    5.986665
    19  C    5.970561
    20  C    6.003772
    21  C    5.990840
    22  O    7.981028
    23  C    6.001591
    24  N    6.999351
    25  C    5.970928
    26  C    6.008311
    27  C    5.989918
    28  C    6.034322
    29  C    6.002665
    30  C    5.993686
    31  C    5.998643
    32  N    7.000279
    33  C    6.026829
    34  C    6.031593
    35  C    5.999766
    36  C    6.024541
    37  C    6.000898
    38  C    6.015763
    39  O    8.028936
    40  C    5.998605
    41  C    6.003998
    42  O    8.006829
    43  O    7.999097
    44  C    5.999183
    45  H    0.989666
    46  H    0.993801
    47  H    1.008347
    48  H    0.997154
    49  H    0.994839
    50  H    0.996588
    51  H    0.984990
    52  H    1.000417
    53  H    1.010651
    54  H    0.995046
    55  H    0.997941
    56  H    0.999545
    57  H    0.982731
    58  H    0.982767
    59  H    0.983078
    60  H    0.989419
    61  H    0.988997
    62  H    0.989238
    63  H    1.001973
    64  H    1.001624
    65  H    1.000005
    66  H    1.005840
    67  H    0.991218
    68  H    1.002777
    69  H    1.011850
    70  H    1.005712
    71  H    0.998504
    72  H    0.996466
    73  H    1.017227
    74  H    1.015024
    75  H    1.017027
    76  H    1.008338
    77  H    0.999951
    78  H    1.006286
    79  H    1.005857
    80  Mg  12.000007
    81  C    6.000038
    82  C    5.999970
    83  C    5.999961
    84  C    6.000036
    85  N    6.999988
    86  C    5.999987
    87  C    5.999989
    88  C    6.000005
    89  C    5.999998
    90  C    6.000012
    91  C    5.999996
    92  C    5.999993
    93  H    1.000017
    94  N    7.000006
    95  C    5.999958
    96  C    6.000016
    97  C    5.999996
    98  C    5.999966
    99  C    5.999993
   100  C    5.999998
   101  O    7.999945
   102  C    6.000010
   103  N    6.999995
   104  C    5.999978
   105  C    6.000012
   106  C    5.999987
   107  C    6.000015
   108  C    6.000007
   109  C    5.999994
   110  C    6.000001
   111  N    7.000006
   112  C    6.000054
   113  C    6.000043
   114  C    5.999994
   115  C    5.999998
   116  C    6.000019
   117  C    5.999959
   118  O    8.000117
   119  C    5.999990
   120  C    6.000008
   121  O    8.000017
   122  O    8.000010
   123  C    5.999992
   124  H    0.999972
   125  H    0.999996
   126  H    1.000019
   127  H    0.999996
   128  H    0.999991
   129  H    0.999986
   130  H    0.999976
   131  H    0.999999
   132  H    1.000018
   133  H    1.000001
   134  H    0.999998
   135  H    0.999999
   136  H    0.999959
   137  H    0.999963
   138  H    0.999957
   139  H    0.999978
   140  H    0.999979
   141  H    0.999958
   142  H    1.000005
   143  H    1.000003
   144  H    1.000002
   145  H    0.999985
   146  H    0.999999
   147  H    0.999998
   148  H    1.000016
   149  H    1.000013
   150  H    0.999999
   151  H    1.000004
   152  H    1.000036
   153  H    1.000034
   154  H    1.000042
   155  H    1.000015
   156  H    1.000003
   157  H    1.000017
   158  H    1.000009
 Sum of Mulliken charges = 624.00000

 Dipole moment (field-independent basis, Debye):
    X=              2.1541    Y=             -9.3153    Z=             -3.1762  Tot=             10.0748
 Quadrupole moment (field-independent basis, Debye-Ang):
   XX=            133.6871   YY=             -9.2499   ZZ=              0.3369
   XY=           -282.2045   XZ=            -97.7095   YZ=             -2.5925

 Normal termination of Gaussian 16 at Fri Oct 15 08:10:06 2021.
