 Gaussian 16, Revision A.03,
 Gaussian 16:  ES64L-G16RevA.03 25-Dec-2016

 --------------------------------------------------------
 #p PBE1PBE/Def2SVP td=(nstates=5) density=(transition=1)
 --------------------------------------------------------

 --------------------------------
 TDDFT excited states in gaussian
 --------------------------------
 Symbolic Z-matrix:
 Charge =  0 Multiplicity = 1

                         Standard orientation:
 ---------------------------------------------------------------------
 Center     Atomic      Atomic             Coordinates (Angstroms)
 Number     Number       Type             X           Y           Z
 ---------------------------------------------------------------------
      1         12           0       24.833137    0.010433    0.153814
      2          6           0       21.687905   -1.250625   -0.173678
      3          6           0       25.123433   -0.193047   -3.296341
      4          6           0       27.773954    1.603514    0.447554
      5          6           0       24.186634    0.791825    3.523863
      6          7           0       23.430846   -0.413320   -1.562574
      7          6           0       22.207750   -0.953893   -1.391717
      8          6           0       21.489865   -1.155646   -2.675973
      9          6           0       22.790608   -1.162215   -3.696034
     10          6           0       23.892398   -0.544047   -2.809776
     11          6           0       23.111991   -2.578925   -4.256960
     12          6           0       20.556277    0.016815   -2.931924
     13          6           0       21.148554    1.501720   -2.931872
     14          1           0       20.666643    2.524137   -3.953549
     15          7           0       26.249172    0.622386   -1.214343
     16          6           0       26.258846    0.323960   -2.600389
     17          6           0       27.543098    0.690382   -3.096959
     18          6           0       28.316822    1.251850   -2.088766
     19          6           0       27.506249    1.158479   -0.862865
     20          6           0       27.836049    0.443708   -4.562947
     21          6           0       29.675196    1.897847   -2.221932
     22          8           0       30.158555    1.912763   -3.381398
     23          6           0       30.345268    2.656777   -1.219903
     24          7           0       25.727584    1.240231    1.725695
     25          6           0       26.994815    1.729312    1.602278
     26          6           0       27.446022    2.450974    2.894685
     27          6           0       26.256468    2.169082    3.873196
     28          6           0       25.288034    1.416385    2.976545
     29          6           0       28.793811    1.988676    3.405861
     30          6           0       25.658079    3.547345    4.481358
     31          6           0       25.320327    3.476669    5.974981
     32          7           0       23.249921   -0.169766    1.521464
     33          6           0       23.179687   -0.011997    2.868616
     34          6           0       21.975374   -0.665578    3.303743
     35          6           0       21.315699   -1.237076    2.161066
     36          6           0       22.133257   -0.874109    1.103567
     37          6           0       21.364839   -0.532481    4.656814
     38          6           0       20.176923   -1.913553    1.628515
     39          8           0       19.248521   -2.365607    2.310478
     40          6           0       20.395619   -1.975350    0.128107
     41          6           0       20.402525   -3.398446   -0.289678
     42          8           0       19.437308   -4.093988   -0.041593
     43          8           0       21.494863   -3.772997   -1.010847
     44          6           0       21.502099   -5.170122   -1.448915
     45          1           0       25.319721   -0.508444   -4.323092
     46          1           0       28.817959    1.899050    0.569306
     47          1           0       23.985969    0.836597    4.596627
     48          1           0       20.873130   -2.047594   -2.786739
     49          1           0       22.559907   -0.635351   -4.622850
     50          1           0       23.070097   -2.566455   -5.345471
     51          1           0       22.324035   -3.243831   -3.902232
     52          1           0       24.066256   -2.993350   -3.929209
     53          1           0       19.717974   -0.088743   -2.242990
     54          1           0       20.070730   -0.279091   -3.861785
     55          1           0       22.228823    1.580208   -3.054892
     56          1           0       20.806120    1.871786   -1.965931
     57          1           0       27.441715    1.314934   -5.086321
     58          1           0       27.276394   -0.431053   -4.891762
     59          1           0       28.882194    0.289810   -4.829208
     60          1           0       30.981918    3.428392   -1.653937
     61          1           0       30.848539    2.043824   -0.471058
     62          1           0       29.558621    3.245955   -0.750523
     63          1           0       27.463791    3.499657    2.595906
     64          1           0       26.573634    1.452951    4.631016
     65          1           0       29.305491    1.292853    2.741479
     66          1           0       28.919431    1.631333    4.427575
     67          1           0       29.413462    2.874399    3.262742
     68          1           0       24.749866    3.890785    3.985969
     69          1           0       26.325120    4.392586    4.312815
     70          1           0       26.066572    4.057313    6.516587
     71          1           0       25.453214    2.446080    6.304802
     72          1           0       24.324725    3.856432    6.204979
     73          1           0       21.880318   -1.006756    5.491077
     74          1           0       20.357364   -0.937437    4.554208
     75          1           0       21.287561    0.508297    4.971500
     76          1           0       19.539366   -1.472815   -0.322718
     77          1           0       20.601958   -5.336976   -2.041224
     78          1           0       21.601359   -5.881592   -0.628967
     79          1           0       22.419569   -5.397581   -1.991499
     80         12           0      -24.906737    0.716779    0.084600
     81          6           0      -22.073530   -1.671751    0.369871
     82          6           0      -26.833673   -2.041760    0.402879
     83          6           0      -27.233264    2.800256   -0.457638
     84          6           0      -22.485478    3.085134   -1.011902
     85          7           0      -24.467543   -1.564719    0.299912
     86          6           0      -23.284461   -2.230857    0.571478
     87          6           0      -23.460444   -3.681265    1.035555
     88          6           0      -24.941289   -3.891393    0.592509
     89          6           0      -25.488191   -2.423674    0.403536
     90          6           0      -25.126362   -4.711777   -0.645079
     91          6           0      -23.144532   -3.995958    2.536246
     92          6           0      -22.634375   -5.356385    2.876389
     93          1           0      -23.136353   -5.929701    4.197806
     94          7           0      -26.841798    0.441431    0.026217
     95          6           0      -27.503316   -0.785598    0.242120
     96          6           0      -28.909413   -0.513477    0.324023
     97          6           0      -28.989515    0.943448    0.225944
     98          6           0      -27.682728    1.412607   -0.063929
     99          6           0      -30.020018   -1.579851    0.648444
    100          6           0      -30.238455    1.753426    0.394480
    101          8           0      -30.251531    2.998437    0.235790
    102          6           0      -31.538717    1.167420    0.808620
    103          7           0      -24.938544    2.601336   -0.774155
    104          6           0      -26.064153    3.310219   -0.881101
    105          6           0      -25.852466    4.756157   -1.433837
    106          6           0      -24.311424    4.897465   -1.145420
    107          6           0      -23.849103    3.421177   -1.006262
    108          6           0      -26.165085    4.856904   -2.961554
    109          6           0      -24.019633    5.687751    0.198833
    110          6           0      -24.643879    7.083344    0.408672
    111          7           0      -22.730314    0.754846   -0.218968
    112          6           0      -21.925433    1.821624   -0.602223
    113          6           0      -20.549173    1.389643   -0.673057
    114          6           0      -20.558984    0.049410   -0.266014
    115          6           0      -21.915018   -0.335300   -0.078544
    116          6           0      -19.357432    2.239586   -0.960602
    117          6           0      -19.702894   -1.100854   -0.007359
    118          8           0      -18.492102   -1.279094   -0.020353
    119          6           0      -20.733727   -2.231298    0.513101
    120          6           0      -20.448851   -3.414395   -0.280524
    121          8           0      -20.572198   -3.534800   -1.509576
    122          8           0      -19.620893   -4.215740    0.452176
    123          6           0      -19.129880   -5.427056   -0.122351
    124          1           0      -27.389798   -2.946598    0.657443
    125          1           0      -28.002309    3.550582   -0.651703
    126          1           0      -21.788485    3.859621   -1.339915
    127          1           0      -22.814576   -4.297418    0.409644
    128          1           0      -25.537063   -4.275652    1.419928
    129          1           0      -25.408415   -4.023913   -1.442219
    130          1           0      -25.965648   -5.394047   -0.510918
    131          1           0      -24.270485   -5.288098   -0.995855
    132          1           0      -24.082569   -3.896615    3.081688
    133          1           0      -22.478345   -3.212766    2.897060
    134          1           0      -21.555625   -5.214045    2.937496
    135          1           0      -22.686164   -6.046331    2.034022
    136          1           0      -30.444466   -1.526504    1.650553
    137          1           0      -29.675154   -2.590782    0.432871
    138          1           0      -30.771898   -1.335870   -0.103084
    139          1           0      -31.963761    0.641719   -0.046794
    140          1           0      -32.165808    2.014646    1.087563
    141          1           0      -31.335281    0.554317    1.685954
    142          1           0      -26.512008    5.396889   -0.847574
    143          1           0      -23.721726    5.351871   -1.941003
    144          1           0      -27.053741    5.482046   -3.052164
    145          1           0      -26.279407    3.909888   -3.487995
    146          1           0      -25.293131    5.402790   -3.324629
    147          1           0      -22.947875    5.874699    0.261429
    148          1           0      -24.251200    4.996752    1.009193
    149          1           0      -25.234919    6.985410    1.319142
    150          1           0      -25.307953    7.207175   -0.447245
    151          1           0      -23.893848    7.863992    0.534842
    152          1           0      -19.730624    3.260734   -0.879277
    153          1           0      -19.067473    2.012166   -1.986383
    154          1           0      -18.496891    2.029611   -0.325426
    155          1           0      -20.560354   -2.422292    1.571984
    156          1           0      -19.526003   -5.589048   -1.125063
    157          1           0      -19.514919   -6.219285    0.519814
    158          1           0      -18.044980   -5.488366   -0.049503
 ---------------------------------------------------------------------

 SCF Done:  E(RPBE1PBE) =  -4067.37305420     A.U. after   16 cycles

 Excitation energies and oscillator strengths:

 Excited State   1:      Singlet-A      1.8204 eV  681.09 nm  f=0.3679  <S**2>=0.000
     309 -> 316       -0.15130
     311 -> 313        0.70055
     311 <- 313       -0.12602
 This state for optimization and/or second-order correction.
 Total Energy, E(TD-HF/TD-DFT) =  -4067.30615660
 Copying the excited state density for this state as the 1-particle RhoCI density.

 Excited State   2:      Singlet-A      1.8908 eV  655.72 nm  f=0.3764  <S**2>=0.000
     310 -> 315       -0.16977
     312 -> 314        0.69196
     312 <- 314       -0.10820

 Excited State   3:      Singlet-A      1.9044 eV  651.03 nm  f=0.0000  <S**2>=0.000
     312 -> 313        0.70711

 Excited State   4:      Singlet-A      2.0284 eV  611.24 nm  f=0.0000  <S**2>=0.000
     311 -> 314        0.70711

 Excited State   5:      Singlet-A      2.2081 eV  561.51 nm  f=0.1161  <S**2>=0.000
     310 -> 314        0.66027
     312 -> 315        0.22061

 The electronic state is 1-A.
 Alpha  occ. eigenvalues --  -46.92462 -46.92309 -19.27042 -19.25351 -19.20012
 Alpha  occ. eigenvalues --  -19.19743 -19.19525 -19.18670 -19.18240 -19.17777
 Alpha  occ. eigenvalues --  -14.41648 -14.41562 -14.41472 -14.41066 -14.39388
 Alpha  occ. eigenvalues --  -14.39374 -14.39194 -14.38371 -10.36502 -10.36010
 Alpha  occ. eigenvalues --  -10.33024 -10.31811 -10.31716 -10.31211 -10.29963
 Alpha  occ. eigenvalues --  -10.29230 -10.29099 -10.28727 -10.28671 -10.28550
 Alpha  occ. eigenvalues --  -10.28419 -10.28353 -10.28318 -10.28298 -10.28254
 Alpha  occ. eigenvalues --  -10.28014 -10.27972 -10.27860 -10.27631 -10.27126
 Alpha  occ. eigenvalues --  -10.26837 -10.26692 -10.26567 -10.26368 -10.26251
 Alpha  occ. eigenvalues --  -10.26234 -10.26209 -10.26133 -10.26057 -10.26041
 Alpha  occ. eigenvalues --  -10.26005 -10.25993 -10.25864 -10.25747 -10.25711
 Alpha  occ. eigenvalues --  -10.25682 -10.25680 -10.25483 -10.25436 -10.25230
 Alpha  occ. eigenvalues --  -10.25103 -10.25009 -10.24967 -10.24898 -10.24890
 Alpha  occ. eigenvalues --  -10.24876 -10.24859 -10.24670 -10.24572 -10.24549
 Alpha  occ. eigenvalues --  -10.24477 -10.24031 -10.23977 -10.23773 -10.23651
 Alpha  occ. eigenvalues --  -10.23558 -10.23469 -10.23448 -10.23162 -10.23130
 Alpha  occ. eigenvalues --  -10.23071 -10.23062 -10.22854 -10.22847 -10.22554
 Alpha  occ. eigenvalues --  -10.22452  -3.14546  -3.14497  -1.87356  -1.87313
 Alpha  occ. eigenvalues --   -1.86917  -1.86890  -1.86792  -1.86702  -1.12197
 Alpha  occ. eigenvalues --   -1.11195  -1.04865  -1.03884  -1.02946  -1.02874
 Alpha  occ. eigenvalues --   -1.02262  -1.01687  -0.99649  -0.99550  -0.99134
 Alpha  occ. eigenvalues --   -0.98582  -0.98328  -0.97541  -0.97145  -0.95969
 Alpha  occ. eigenvalues --   -0.88529  -0.87953  -0.83729  -0.83520  -0.83310
 Alpha  occ. eigenvalues --   -0.83112  -0.83031  -0.82358  -0.82076  -0.81784
 Alpha  occ. eigenvalues --   -0.81141  -0.80522  -0.80510  -0.80169  -0.79384
 Alpha  occ. eigenvalues --   -0.78967  -0.78442  -0.78287  -0.77498  -0.77400
 Alpha  occ. eigenvalues --   -0.77044  -0.76349  -0.75781  -0.75453  -0.75251
 Alpha  occ. eigenvalues --   -0.75087  -0.72969  -0.72879  -0.72237  -0.71725
 Alpha  occ. eigenvalues --   -0.71586  -0.71376  -0.70530  -0.70427  -0.69809
 Alpha  occ. eigenvalues --   -0.69271  -0.67748  -0.66993  -0.66540  -0.65346
 Alpha  occ. eigenvalues --   -0.64412  -0.63631  -0.63619  -0.63228  -0.63020
 Alpha  occ. eigenvalues --   -0.62538  -0.61528  -0.61392  -0.60964  -0.60070
 Alpha  occ. eigenvalues --   -0.59813  -0.59744  -0.59573  -0.59482  -0.58957
 Alpha  occ. eigenvalues --   -0.58894  -0.58396  -0.56557  -0.55390  -0.54773
 Alpha  occ. eigenvalues --   -0.54330  -0.54220  -0.53951  -0.53832  -0.53296
 Alpha  occ. eigenvalues --   -0.53218  -0.52993  -0.52877  -0.52664  -0.52341
 Alpha  occ. eigenvalues --   -0.51281  -0.51127  -0.50410  -0.50380  -0.50122
 Alpha  occ. eigenvalues --   -0.49710  -0.49402  -0.49187  -0.49129  -0.48863
 Alpha  occ. eigenvalues --   -0.48718  -0.48420  -0.48219  -0.47823  -0.47784
 Alpha  occ. eigenvalues --   -0.47686  -0.47290  -0.47026  -0.46994  -0.46955
 Alpha  occ. eigenvalues --   -0.46474  -0.46435  -0.46418  -0.46004  -0.45998
 Alpha  occ. eigenvalues --   -0.45775  -0.45751  -0.45528  -0.45510  -0.44876
 Alpha  occ. eigenvalues --   -0.44740  -0.44529  -0.44381  -0.44334  -0.44189
 Alpha  occ. eigenvalues --   -0.44039  -0.44014  -0.43841  -0.43786  -0.43424
 Alpha  occ. eigenvalues --   -0.43355  -0.43347  -0.43178  -0.42969  -0.42785
 Alpha  occ. eigenvalues --   -0.42753  -0.42496  -0.42269  -0.42251  -0.41933
 Alpha  occ. eigenvalues --   -0.41752  -0.41477  -0.41237  -0.41119  -0.41030
 Alpha  occ. eigenvalues --   -0.41002  -0.40867  -0.40740  -0.40705  -0.40515
 Alpha  occ. eigenvalues --   -0.40419  -0.40070  -0.39971  -0.39902  -0.39612
 Alpha  occ. eigenvalues --   -0.39568  -0.39505  -0.39468  -0.39430  -0.39295
 Alpha  occ. eigenvalues --   -0.39240  -0.38769  -0.38472  -0.38400  -0.38318
 Alpha  occ. eigenvalues --   -0.38123  -0.37859  -0.37661  -0.37621  -0.37496
 Alpha  occ. eigenvalues --   -0.37375  -0.37138  -0.37089  -0.37018  -0.36831
 Alpha  occ. eigenvalues --   -0.36761  -0.36637  -0.36357  -0.36112  -0.36079
 Alpha  occ. eigenvalues --   -0.36011  -0.35797  -0.35684  -0.35503  -0.35256
 Alpha  occ. eigenvalues --   -0.34677  -0.34502  -0.34346  -0.34197  -0.34108
 Alpha  occ. eigenvalues --   -0.33652  -0.33536  -0.33088  -0.32795  -0.32747
 Alpha  occ. eigenvalues --   -0.32672  -0.32455  -0.32224  -0.31943  -0.31476
 Alpha  occ. eigenvalues --   -0.31019  -0.30654  -0.29813  -0.29758  -0.29175
 Alpha  occ. eigenvalues --   -0.29064  -0.28642  -0.28548  -0.27361  -0.27193
 Alpha  occ. eigenvalues --   -0.26247  -0.25726  -0.25577  -0.25475  -0.25421
 Alpha  occ. eigenvalues --   -0.25348  -0.24798  -0.24698  -0.21218  -0.21190
 Alpha  occ. eigenvalues --   -0.19284  -0.19246
 Alpha virt. eigenvalues --   -0.11976  -0.11561  -0.05397  -0.04403  -0.04028
 Alpha virt. eigenvalues --   -0.03906  -0.02346  -0.02215  -0.01372  -0.00999
 Alpha virt. eigenvalues --   -0.00443   0.00533   0.00957   0.01324   0.01545

 Mulliken charges:
               1
     1  Mg  11.999995
     2  C    6.000094
     3  C    5.999907
     4  C    5.999934
     5  C    6.000092
     6  N    6.999983
     7  C    5.999927
     8  C    6.000086
     9  C    5.999938
    10  C    6.000091
    11  C    5.999991
    12  C    6.000054
    13  C    6.000061
    14  H    0.999889
    15  N    6.999834
    16  C    6.000233
    17  C    5.999934
    18  C    6.000080
    19  C    6.000298
    20  C    5.999971
    21  C    6.000047
    22  O    8.000114
    23  C    5.999977
    24  N    7.000010
    25  C    6.000054
    26  C    5.999946
    27  C    6.000060
    28  C    5.999866
    29  C    5.999989
    30  C    6.000020
    31  C    6.000002
    32  N    7.000110
    33  C    5.999850
    34  C    5.999909
    35  C    5.999909
    36  C    5.999832
    37  C    6.000017
    38  C    5.999913
    39  O    7.999788
    40  C    6.000033
    41  C    5.999948
    42  O    7.999926
    43  O    8.000062
    44  C    5.999978
    45  H    1.000110
    46  H    1.000113
    47  H    0.999915
    48  H    0.999957
    49  H    1.000029
    50  H    1.000009
    51  H    1.000052
    52  H    1.000036
    53  H    0.999964
    54  H    0.999924
    55  H    0.999968
    56  H    1.000019
    57  H    1.000127
    58  H    1.000142
    59  H    1.000134
    60  H    1.000125
    61  H    1.000089
    62  H    1.000023
    63  H    1.000002
    64  H    0.999982
    65  H    1.000020
    66  H    1.000056
    67  H    1.000037
    68  H    0.999963
    69  H    0.999962
    70  H    1.000012
    71  H    1.000019
    72  H    0.999988
    73  H    0.999881
    74  H    0.999892
    75  H    0.999841
    76  H    0.999890
    77  H    0.999947
    78  H    1.000009
    79  H    1.000013
    80  Mg  11.998078
    81  C    5.969147
    82  C    5.978736
    83  C    6.033498
    84  C    6.012378
    85  N    6.972219
    86  C    6.030528
    87  C    5.987428
    88  C    6.001515
    89  C    5.987328
    90  C    6.003441
    91  C    5.998076
    92  C    6.001294
    93  H    1.003428
    94  N    7.003569
    95  C    5.970634
    96  C    5.980777
    97  C    5.986681
    98  C    5.971988
    99  C    5.999455
   100  C    5.989080
   101  O    7.965157
   102  C    6.004455
   103  N    7.024773
   104  C    5.966452
   105  C    6.004787
   106  C    5.995401
   107  C    6.017437
   108  C    5.999972
   109  C    5.995619
   110  C    6.000968
   111  N    6.998685
   112  C    6.026235
   113  C    6.032713
   114  C    5.996474
   115  C    6.037825
   116  C    5.998215
   117  C    6.014020
   118  O    8.023800
   119  C    6.006616
   120  C    6.006184
   121  O    8.003281
   122  O    8.000422
   123  C    5.997134
   124  H    0.979772
   125  H    1.001916
   126  H    1.016406
   127  H    0.998566
   128  H    0.999445
   129  H    1.000015
   130  H    0.998396
   131  H    0.984951
   132  H    1.010185
   133  H    0.993694
   134  H    0.994709
   135  H    1.001670
   136  H    0.982474
   137  H    0.987877
   138  H    0.985819
   139  H    0.992112
   140  H    0.986101
   141  H    0.995491
   142  H    1.005638
   143  H    1.001973
   144  H    1.004743
   145  H    1.003281
   146  H    0.993284
   147  H    0.998368
   148  H    1.006300
   149  H    1.007371
   150  H    1.005294
   151  H    1.002448
   152  H    1.012477
   153  H    1.020118
   154  H    1.018089
   155  H    1.005159
   156  H    1.003427
   157  H    1.005648
   158  H    1.000882
 Sum of Mulliken charges = 624.00000

 Dipole moment (field-independent basis, Debye):
    X=              9.8065    Y=              2.9813    Z=             -1.2373  Tot=             10.3241
 Quadrupole moment (field-independent basis, Debye-Ang):
   XX=           -481.8323   YY=              6.1343   ZZ=              0.9296
   XY=            -69.1094   XZ=             28.3615   YZ=             -2.1567

 Normal termination of Gaussian 16 at Thu Oct 14 21:55:29 2021.
