 Gaussian 16, Revision A.03,
 Gaussian 16:  ES64L-G16RevA.03 25-Dec-2016

 --------------------------------------------------------
 #p PBE1PBE/Def2SVP td=(nstates=5) density=(transition=1)
 --------------------------------------------------------

 --------------------------------
 TDDFT excited states in gaussian
 --------------------------------
 Symbolic Z-matrix:
 Charge =  0 Multiplicity = 1

                         Standard orientation:
 ---------------------------------------------------------------------
 Center     Atomic      Atomic             Coordinates (Angstroms)
 Number     Number       Type             X           Y           Z
 ---------------------------------------------------------------------
      1         12           0      -32.701467   -0.228592   -0.529826
      2          6           0      -29.447197    1.070863   -0.262735
      3          6           0      -31.428862   -3.354176    0.128465
      4          6           0      -35.821460   -1.217992   -0.047870
      5          6           0      -33.914576    3.084762   -0.939577
      6          7           0      -30.732389   -0.983551    0.127795
      7          6           0      -29.506220   -0.270847    0.168649
      8          6           0      -28.330594   -1.157293    0.214913
      9          6           0      -28.998280   -2.599629    0.240699
     10          6           0      -30.487199   -2.314466    0.122878
     11          6           0      -28.380942   -3.559069   -0.805431
     12          6           0      -27.497505   -1.028715    1.453604
     13          6           0      -28.249430   -0.781004    2.769814
     14          1           0      -27.750167   -1.402851    4.131882
     15          7           0      -33.561658   -2.060179   -0.057835
     16          6           0      -32.867688   -3.209964    0.042478
     17          6           0      -33.804831   -4.296866    0.178013
     18          6           0      -35.095474   -3.725359    0.056906
     19          6           0      -34.889095   -2.272533   -0.056030
     20          6           0      -33.454646   -5.738454    0.431903
     21          6           0      -36.415311   -4.496095    0.058567
     22          8           0      -36.435169   -5.705245    0.181149
     23          6           0      -37.803153   -3.927395    0.033936
     24          7           0      -34.569341    0.807437   -0.242186
     25          6           0      -35.762102    0.148985   -0.103912
     26          6           0      -36.975835    1.108195   -0.334695
     27          6           0      -36.293057    2.509098   -0.304378
     28          6           0      -34.846523    2.124939   -0.526110
     29          6           0      -37.744753    0.901404   -1.661991
     30          6           0      -36.297148    3.263348    1.108243
     31          6           0      -36.682059    4.698423    1.101404
     32          7           0      -31.931362    1.634360   -0.694115
     33          6           0      -32.518604    2.789221   -1.035669
     34          6           0      -31.482077    3.771642   -1.530987
     35          6           0      -30.261986    3.069106   -1.273560
     36          6           0      -30.584968    1.839988   -0.631980
     37          6           0      -31.641096    5.170463   -2.109155
     38          6           0      -28.838044    3.242213   -1.262078
     39          8           0      -28.150905    4.199511   -1.581397
     40          6           0      -28.253245    1.917651   -0.624717
     41          6           0      -27.625993    2.305110    0.698366
     42          8           0      -28.176998    2.677592    1.681035
     43          8           0      -26.274663    2.043791    0.618702
     44          6           0      -25.586634    2.098312    1.912521
     45          1           0      -31.000552   -4.358421    0.139396
     46          1           0      -36.860861   -1.549826   -0.068192
     47          1           0      -34.358840    4.047128   -1.202088
     48          1           0      -27.716283   -0.935527   -0.657745
     49          1           0      -28.999333   -3.109336    1.204127
     50          1           0      -28.206863   -4.438674   -0.185424
     51          1           0      -27.470520   -3.084983   -1.172316
     52          1           0      -29.079275   -3.835509   -1.595628
     53          1           0      -26.638035   -0.367187    1.341807
     54          1           0      -26.922156   -1.918377    1.710624
     55          1           0      -29.271857   -1.103437    2.569987
     56          1           0      -28.274129    0.307997    2.813146
     57          1           0      -34.076936   -6.159208    1.222423
     58          1           0      -32.387469   -5.829628    0.633827
     59          1           0      -33.687439   -6.234997   -0.510396
     60          1           0      -38.090851   -3.354887    0.915145
     61          1           0      -38.400212   -4.835934    0.113958
     62          1           0      -38.083799   -3.521187   -0.938420
     63          1           0      -37.679026    0.954054    0.483658
     64          1           0      -36.638829    3.176995   -1.093760
     65          1           0      -37.576051    1.769994   -2.298283
     66          1           0      -38.765056    0.559078   -1.489863
     67          1           0      -37.297967    0.060718   -2.191567
     68          1           0      -35.338694    3.151186    1.614559
     69          1           0      -37.026196    2.705132    1.695847
     70          1           0      -37.516788    4.919143    1.766372
     71          1           0      -36.914013    5.082493    0.107764
     72          1           0      -35.877964    5.334200    1.470984
     73          1           0      -31.074276    5.837121   -1.459224
     74          1           0      -32.706781    5.348605   -2.258162
     75          1           0      -31.094308    5.157538   -3.051912
     76          1           0      -27.538183    1.422910   -1.281619
     77          1           0      -26.229349    1.824473    2.749086
     78          1           0      -25.282643    3.142077    1.992164
     79          1           0      -24.659971    1.541328    1.776760
     80         12           0       32.398557    0.562808   -0.568053
     81          6           0       30.514106   -2.228921    0.607016
     82          6           0       30.593838    2.400665    1.524138
     83          6           0       34.711710    3.013646   -0.821461
     84          6           0       34.665391   -1.850590   -1.886071
     85          7           0       30.728360    0.168182    0.753445
     86          6           0       30.035866   -1.029142    1.036079
     87          6           0       28.861437   -0.834934    2.046203
     88          6           0       28.903373    0.703997    2.265145
     89          6           0       30.094326    1.157265    1.394432
     90          6           0       27.517960    1.260210    1.896397
     91          6           0       28.925903   -1.639028    3.415918
     92          6           0       27.858355   -2.704484    3.636522
     93          1           0       26.993037   -2.590121    4.908141
     94          7           0       32.599040    2.443330    0.131688
     95          6           0       31.707410    3.035368    1.025975
     96          6           0       32.033117    4.389782    1.223782
     97          6           0       33.140904    4.681519    0.449506
     98          6           0       33.557784    3.412003   -0.110769
     99          6           0       31.297429    5.461752    2.110644
    100          6           0       33.726239    6.069878    0.339347
    101          8           0       33.226222    7.049266    0.807255
    102          6           0       35.030935    6.197406   -0.590809
    103          7           0       34.431641    0.583422   -1.186329
    104          6           0       35.147737    1.748508   -1.229259
    105          6           0       36.626461    1.365679   -1.646537
    106          6           0       36.610010   -0.102716   -2.103008
    107          6           0       35.145058   -0.511747   -1.689239
    108          6           0       37.292702    2.337613   -2.578446
    109          6           0       37.609110   -0.902784   -1.276484
    110          6           0       38.129865   -2.183641   -1.872471
    111          7           0       32.462171   -1.598666   -0.861619
    112          6           0       33.422938   -2.401386   -1.428875
    113          6           0       32.992907   -3.752368   -1.434132
    114          6           0       31.784271   -3.794543   -0.699533
    115          6           0       31.591299   -2.447934   -0.280267
    116          6           0       33.726798   -4.928524   -1.940901
    117          6           0       30.684558   -4.585198   -0.130406
    118          8           0       30.450988   -5.793555   -0.267663
    119          6           0       29.786651   -3.612445    0.726429
    120          6           0       28.513151   -3.451271    0.076902
    121          8           0       28.394790   -2.742698   -0.950662
    122          8           0       27.622146   -4.207660    0.747591
    123          6           0       26.178641   -4.077315    0.408000
    124          1           0       29.994989    3.043135    2.173570
    125          1           0       35.405775    3.848131   -0.942271
    126          1           0       35.261031   -2.620362   -2.380504
    127          1           0       27.918709   -1.102329    1.568951
    128          1           0       29.140797    0.991798    3.288853
    129          1           0       27.606344    2.346235    1.894207
    130          1           0       26.702118    0.990377    2.566854
    131          1           0       27.194231    0.943816    0.904199
    132          1           0       28.688199   -0.887312    4.168624
    133          1           0       29.929721   -2.034727    3.570802
    134          1           0       28.360619   -3.672379    3.622891
    135          1           0       27.144910   -2.671151    2.812367
    136          1           0       32.066244    5.881331    2.759795
    137          1           0       30.512078    5.016691    2.721384
    138          1           0       30.736084    6.223130    1.569138
    139          1           0       35.243556    7.264356   -0.650950
    140          1           0       34.707363    5.741020   -1.526586
    141          1           0       35.758243    5.603391   -0.037474
    142          1           0       37.173895    1.438417   -0.706127
    143          1           0       36.814150   -0.293207   -3.156595
    144          1           0       38.009119    1.788767   -3.189079
    145          1           0       37.781221    3.074146   -1.940194
    146          1           0       36.604154    2.936507   -3.173397
    147          1           0       37.242745   -1.144185   -0.278263
    148          1           0       38.484542   -0.312572   -1.005695
    149          1           0       37.874901   -2.296263   -2.926073
    150          1           0       37.690552   -3.011256   -1.315181
    151          1           0       39.191432   -2.305599   -1.657514
    152          1           0       34.399712   -4.663070   -2.756883
    153          1           0       32.960137   -5.621031   -2.289261
    154          1           0       34.319886   -5.283578   -1.097806
    155          1           0       29.714686   -3.869169    1.783329
    156          1           0       25.850532   -5.102854    0.583621
    157          1           0       25.991138   -3.716088   -0.602738
    158          1           0       25.633301   -3.536272    1.182025
 ---------------------------------------------------------------------

 SCF Done:  E(RPBE1PBE) =  -4067.36671319     A.U. after   15 cycles

 Excitation energies and oscillator strengths:

 Excited State   1:      Singlet-A      1.8294 eV  677.74 nm  f=0.3603  <S**2>=0.000
     309 -> 315        0.16648
     312 -> 314        0.69542
     312 <- 314       -0.11482
 This state for optimization and/or second-order correction.
 Total Energy, E(TD-HF/TD-DFT) =  -4067.29948504
 Copying the excited state density for this state as the 1-particle RhoCI density.

 Excited State   2:      Singlet-A      1.8689 eV  663.41 nm  f=0.3706  <S**2>=0.000
     310 -> 316       -0.16693
     311 -> 313        0.69418
     311 <- 313       -0.10955

 Excited State   3:      Singlet-A      1.9761 eV  627.40 nm  f=0.0000  <S**2>=0.000
     312 -> 313        0.70711

 Excited State   4:      Singlet-A      2.0236 eV  612.69 nm  f=0.0000  <S**2>=0.000
     311 -> 314        0.70711

 Excited State   5:      Singlet-A      2.2657 eV  547.22 nm  f=0.1130  <S**2>=0.000
     310 -> 313        0.64680
     311 -> 316        0.26715

 The electronic state is 1-A.
 Alpha  occ. eigenvalues --  -46.91965 -46.91945 -19.27165 -19.25260 -19.20593
 Alpha  occ. eigenvalues --  -19.19938 -19.19731 -19.19361 -19.19147 -19.18426
 Alpha  occ. eigenvalues --  -14.41972 -14.41885 -14.41778 -14.41412 -14.39251
 Alpha  occ. eigenvalues --  -14.39121 -14.39098 -14.38249 -10.36514 -10.36241
 Alpha  occ. eigenvalues --  -10.32706 -10.32511 -10.32139 -10.31728 -10.30073
 Alpha  occ. eigenvalues --  -10.29484 -10.29250 -10.29000 -10.28667 -10.28617
 Alpha  occ. eigenvalues --  -10.28505 -10.28492 -10.28447 -10.28439 -10.28354
 Alpha  occ. eigenvalues --  -10.28068 -10.27977 -10.27588 -10.27076 -10.27041
 Alpha  occ. eigenvalues --  -10.26686 -10.26525 -10.26491 -10.26330 -10.26180
 Alpha  occ. eigenvalues --  -10.26148 -10.26120 -10.25936 -10.25936 -10.25934
 Alpha  occ. eigenvalues --  -10.25869 -10.25798 -10.25669 -10.25649 -10.25643
 Alpha  occ. eigenvalues --  -10.25631 -10.25398 -10.25353 -10.25076 -10.25064
 Alpha  occ. eigenvalues --  -10.25043 -10.25035 -10.24732 -10.24721 -10.24548
 Alpha  occ. eigenvalues --  -10.24447 -10.24351 -10.24124 -10.24082 -10.24056
 Alpha  occ. eigenvalues --  -10.24043 -10.23970 -10.23847 -10.23599 -10.23592
 Alpha  occ. eigenvalues --  -10.23559 -10.23446 -10.23441 -10.23269 -10.23039
 Alpha  occ. eigenvalues --  -10.22915 -10.22898 -10.22837 -10.22798 -10.22781
 Alpha  occ. eigenvalues --  -10.22654  -3.14186  -3.14116  -1.86988  -1.86933
 Alpha  occ. eigenvalues --   -1.86566  -1.86471  -1.86427  -1.86366  -1.11996
 Alpha  occ. eigenvalues --   -1.11427  -1.06609  -1.05119  -1.04704  -1.03782
 Alpha  occ. eigenvalues --   -1.03552  -1.02203  -0.99213  -0.98683  -0.98683
 Alpha  occ. eigenvalues --   -0.97913  -0.97875  -0.97487  -0.97262  -0.96383
 Alpha  occ. eigenvalues --   -0.87539  -0.86634  -0.84145  -0.83975  -0.83740
 Alpha  occ. eigenvalues --   -0.83571  -0.82979  -0.82700  -0.81843  -0.81648
 Alpha  occ. eigenvalues --   -0.81029  -0.80835  -0.80636  -0.80109  -0.79055
 Alpha  occ. eigenvalues --   -0.79008  -0.78579  -0.78462  -0.77537  -0.76997
 Alpha  occ. eigenvalues --   -0.76162  -0.75893  -0.75504  -0.75156  -0.74806
 Alpha  occ. eigenvalues --   -0.74519  -0.72293  -0.72095  -0.71797  -0.71656
 Alpha  occ. eigenvalues --   -0.71132  -0.70913  -0.70574  -0.70356  -0.69507
 Alpha  occ. eigenvalues --   -0.69443  -0.67267  -0.67170  -0.66175  -0.66091
 Alpha  occ. eigenvalues --   -0.63938  -0.63549  -0.63289  -0.63034  -0.63030
 Alpha  occ. eigenvalues --   -0.62227  -0.61626  -0.61524  -0.60293  -0.60077
 Alpha  occ. eigenvalues --   -0.60004  -0.59621  -0.59522  -0.59156  -0.59061
 Alpha  occ. eigenvalues --   -0.58901  -0.56855  -0.56657  -0.54652  -0.54517
 Alpha  occ. eigenvalues --   -0.54230  -0.54076  -0.53911  -0.53521  -0.53406
 Alpha  occ. eigenvalues --   -0.53033  -0.52829  -0.52691  -0.52009  -0.51830
 Alpha  occ. eigenvalues --   -0.51112  -0.50943  -0.50567  -0.50533  -0.49967
 Alpha  occ. eigenvalues --   -0.49668  -0.49583  -0.49288  -0.49196  -0.48896
 Alpha  occ. eigenvalues --   -0.48686  -0.48439  -0.47760  -0.47612  -0.47567
 Alpha  occ. eigenvalues --   -0.47448  -0.46939  -0.46888  -0.46770  -0.46748
 Alpha  occ. eigenvalues --   -0.46621  -0.46258  -0.46255  -0.46110  -0.45944
 Alpha  occ. eigenvalues --   -0.45846  -0.45773  -0.45534  -0.45186  -0.45047
 Alpha  occ. eigenvalues --   -0.44819  -0.44618  -0.44492  -0.44358  -0.44227
 Alpha  occ. eigenvalues --   -0.43996  -0.43938  -0.43760  -0.43575  -0.43523
 Alpha  occ. eigenvalues --   -0.43423  -0.43197  -0.43072  -0.43071  -0.42948
 Alpha  occ. eigenvalues --   -0.42697  -0.42227  -0.42211  -0.42004  -0.41888
 Alpha  occ. eigenvalues --   -0.41806  -0.41668  -0.41602  -0.41455  -0.41123
 Alpha  occ. eigenvalues --   -0.41100  -0.41009  -0.40783  -0.40695  -0.40600
 Alpha  occ. eigenvalues --   -0.40318  -0.40248  -0.40047  -0.39973  -0.39909
 Alpha  occ. eigenvalues --   -0.39571  -0.39503  -0.39478  -0.39165  -0.39104
 Alpha  occ. eigenvalues --   -0.38886  -0.38843  -0.38699  -0.38416  -0.38393
 Alpha  occ. eigenvalues --   -0.38319  -0.38124  -0.38033  -0.37903  -0.37667
 Alpha  occ. eigenvalues --   -0.37657  -0.37376  -0.37376  -0.37170  -0.37165
 Alpha  occ. eigenvalues --   -0.37039  -0.37004  -0.36818  -0.36718  -0.36592
 Alpha  occ. eigenvalues --   -0.36527  -0.36066  -0.35655  -0.35533  -0.35270
 Alpha  occ. eigenvalues --   -0.35196  -0.35096  -0.34791  -0.34082  -0.34034
 Alpha  occ. eigenvalues --   -0.33423  -0.33389  -0.33172  -0.32836  -0.32622
 Alpha  occ. eigenvalues --   -0.32251  -0.32207  -0.32090  -0.31771  -0.31455
 Alpha  occ. eigenvalues --   -0.31067  -0.30744  -0.29907  -0.29421  -0.29410
 Alpha  occ. eigenvalues --   -0.29111  -0.28667  -0.28587  -0.27392  -0.26999
 Alpha  occ. eigenvalues --   -0.26153  -0.26087  -0.25778  -0.25519  -0.25505
 Alpha  occ. eigenvalues --   -0.25250  -0.25131  -0.24753  -0.21225  -0.21173
 Alpha  occ. eigenvalues --   -0.18876  -0.18703
 Alpha virt. eigenvalues --   -0.11237  -0.11237  -0.05318  -0.05252  -0.04001
 Alpha virt. eigenvalues --   -0.03717  -0.01906  -0.01683  -0.01328  -0.00520
 Alpha virt. eigenvalues --    0.00003   0.00558   0.00882   0.01014   0.01387

 Mulliken charges:
               1
     1  Mg  12.001952
     2  C    6.027399
     3  C    5.992277
     4  C    5.978597
     5  C    6.007005
     6  N    7.006641
     7  C    5.960340
     8  C    6.013919
     9  C    5.991654
    10  C    6.028989
    11  C    5.998101
    12  C    6.003501
    13  C    6.005571
    14  H    0.991558
    15  N    6.992156
    16  C    6.039677
    17  C    6.022191
    18  C    6.005392
    19  C    6.042502
    20  C    5.997294
    21  C    6.010788
    22  O    8.018442
    23  C    5.996393
    24  N    6.996618
    25  C    6.032693
    26  C    5.993527
    27  C    6.005375
    28  C    5.976709
    29  C    6.000167
    30  C    6.007182
    31  C    6.000275
    32  N    7.001087
    33  C    5.965808
    34  C    5.961032
    35  C    6.005314
    36  C    5.962882
    37  C    6.000403
    38  C    5.984977
    39  O    7.975026
    40  C    5.998034
    41  C    5.997191
    42  O    7.996350
    43  O    7.997978
    44  C    6.001226
    45  H    1.012246
    46  H    1.007556
    47  H    0.988902
    48  H    0.998688
    49  H    0.998101
    50  H    1.000130
    51  H    1.012225
    52  H    0.998181
    53  H    1.003505
    54  H    0.991439
    55  H    0.990529
    56  H    1.006647
    57  H    1.015832
    58  H    1.017078
    59  H    1.017397
    60  H    1.010466
    61  H    1.010675
    62  H    1.011118
    63  H    0.999645
    64  H    1.000296
    65  H    1.012063
    66  H    1.000106
    67  H    0.995359
    68  H    1.000792
    69  H    0.986123
    70  H    0.994723
    71  H    0.999424
    72  H    1.002962
    73  H    0.981719
    74  H    0.982671
    75  H    0.981365
    76  H    0.990292
    77  H    0.996039
    78  H    0.998632
    79  H    0.994884
    80  Mg  12.000008
    81  C    5.999994
    82  C    6.000051
    83  C    5.999990
    84  C    5.999950
    85  N    7.000008
    86  C    5.999994
    87  C    6.000015
    88  C    5.999973
    89  C    6.000024
    90  C    5.999980
    91  C    6.000008
    92  C    5.999990
    93  H    0.999992
    94  N    7.000003
    95  C    6.000064
    96  C    6.000076
    97  C    6.000017
    98  C    6.000085
    99  C    5.999971
   100  C    6.000013
   101  O    8.000063
   102  C    5.999995
   103  N    6.999986
   104  C    6.000031
   105  C    5.999980
   106  C    6.000017
   107  C    5.999976
   108  C    6.000007
   109  C    6.000022
   110  C    6.000005
   111  N    6.999982
   112  C    5.999943
   113  C    5.999937
   114  C    5.999984
   115  C    5.999958
   116  C    6.000018
   117  C    5.999924
   118  O    7.999925
   119  C    6.000023
   120  C    5.999987
   121  O    8.000001
   122  O    7.999993
   123  C    6.000009
   124  H    1.000039
   125  H    1.000005
   126  H    0.999975
   127  H    1.000004
   128  H    1.000010
   129  H    0.999999
   130  H    1.000044
   131  H    1.000036
   132  H    0.999982
   133  H    1.000000
   134  H    1.000005
   135  H    1.000011
   136  H    1.000041
   137  H    1.000051
   138  H    1.000067
   139  H    1.000037
   140  H    1.000023
   141  H    1.000017
   142  H    0.999996
   143  H    0.999988
   144  H    1.000013
   145  H    0.999984
   146  H    0.999997
   147  H    0.999993
   148  H    0.999960
   149  H    0.999999
   150  H    1.000010
   151  H    0.999974
   152  H    0.999950
   153  H    0.999955
   154  H    0.999927
   155  H    0.999963
   156  H    0.999986
   157  H    0.999998
   158  H    0.999989
 Sum of Mulliken charges = 624.00000

 Dipole moment (field-independent basis, Debye):
    X=             -4.2814    Y=             -9.1608    Z=              1.2772  Tot=             10.1923
 Quadrupole moment (field-independent basis, Debye-Ang):
   XX=            277.5690   YY=              4.8070   ZZ=             -3.3393
   XY=            302.4429   XZ=            -39.8593   YZ=              5.6575

 Normal termination of Gaussian 16 at Thu Oct 14 00:08:24 2021.
