 Gaussian 16, Revision A.03,
 Gaussian 16:  ES64L-G16RevA.03 25-Dec-2016

 --------------------------------------------------------
 #p PBE1PBE/Def2SVP td=(nstates=5) density=(transition=1)
 --------------------------------------------------------

 --------------------------------
 TDDFT excited states in gaussian
 --------------------------------
 Symbolic Z-matrix:
 Charge =  0 Multiplicity = 1

                         Standard orientation:
 ---------------------------------------------------------------------
 Center     Atomic      Atomic             Coordinates (Angstroms)
 Number     Number       Type             X           Y           Z
 ---------------------------------------------------------------------
      1         12           0       16.339589    0.604548   -0.228079
      2          6           0       15.740675   -2.097196    1.913538
      3          6           0       13.733581    2.299141    1.192374
      4          6           0       16.749344    2.966218   -2.507512
      5          6           0       18.913312   -1.355143   -1.748599
      6          7           0       14.873986    0.099636    1.355857
      7          6           0       14.826505   -1.014703    2.163748
      8          6           0       13.875595   -0.789549    3.324795
      9          6           0       13.070495    0.494951    2.880100
     10          6           0       14.039463    1.035084    1.773706
     11          6           0       11.682056    0.187017    2.334084
     12          6           0       14.674396   -0.778916    4.678930
     13          6           0       13.816132   -0.343461    5.898965
     14          1           0       12.337136   -0.664283    5.839062
     15          7           0       15.416715    2.333397   -0.580049
     16          6           0       14.281303    2.840348    0.039360
     17          6           0       13.848159    4.110014   -0.570165
     18          6           0       14.779036    4.306588   -1.636238
     19          6           0       15.694062    3.168584   -1.607457
     20          6           0       12.719254    4.918196   -0.049454
     21          6           0       14.789262    5.461638   -2.604082
     22          8           0       15.678739    5.581695   -3.491619
     23          6           0       13.779981    6.573193   -2.504721
     24          7           0       17.702986    0.797616   -1.873521
     25          6           0       17.627757    1.891658   -2.631771
     26          6           0       18.615392    1.772850   -3.874584
     27          6           0       19.308664    0.315715   -3.648587
     28          6           0       18.600367   -0.120026   -2.365166
     29          6           0       17.766454    1.901222   -5.205269
     30          6           0       20.877256    0.364815   -3.403110
     31          6           0       21.763262    0.367619   -4.681872
     32          7           0       17.139937   -1.306893   -0.065697
     33          6           0       18.258897   -1.951180   -0.656505
     34          6           0       18.469382   -3.314251    0.001519
     35          6           0       17.469385   -3.450253    0.959129
     36          6           0       16.735993   -2.159073    0.929811
     37          6           0       19.555976   -4.306542   -0.271575
     38          6           0       16.917586   -4.276012    2.007614
     39          8           0       17.219582   -5.398976    2.423721
     40          6           0       15.871785   -3.353001    2.809171
     41          6           0       14.554278   -4.048331    3.065133
     42          8           0       13.636646   -4.057624    2.289799
     43          8           0       14.455279   -4.473925    4.409108
     44          6           0       13.108183   -4.748627    4.931215
     45          1           0       12.853870    2.685736    1.711830
     46          1           0       16.869460    3.741998   -3.266789
     47          1           0       19.610075   -2.045386   -2.228949
     48          1           0       13.210551   -1.650857    3.373267
     49          1           0       12.982182    1.279286    3.632539
     50          1           0       10.991262    0.764420    2.948318
     51          1           0       11.542988   -0.893829    2.336195
     52          1           0       11.501829    0.639704    1.359341
     53          1           0       15.583453   -0.255411    4.384504
     54          1           0       14.998135   -1.808580    4.827109
     55          1           0       13.987055    0.732043    5.946480
     56          1           0       14.220633   -0.831539    6.785563
     57          1           0       12.007379    4.880982   -0.873865
     58          1           0       13.009923    5.927644    0.240226
     59          1           0       12.154798    4.559205    0.812090
     60          1           0       13.919830    7.093199   -1.558013
     61          1           0       12.874376    5.972482   -2.597883
     62          1           0       13.762505    7.287916   -3.327034
     63          1           0       19.294265    2.597156   -3.652617
     64          1           0       18.996116   -0.498064   -4.304320
     65          1           0       16.694215    2.017580   -5.048523
     66          1           0       17.898854    1.007616   -5.815809
     67          1           0       18.094910    2.830897   -5.669005
     68          1           0       21.199111   -0.342302   -2.639119
     69          1           0       21.068159    1.327398   -2.929782
     70          1           0       22.402636    1.247213   -4.615798
     71          1           0       21.110513    0.333375   -5.554233
     72          1           0       22.416091   -0.504291   -4.729344
     73          1           0       20.228237   -4.261476    0.585518
     74          1           0       20.066729   -4.060320   -1.203278
     75          1           0       19.278568   -5.357951   -0.344042
     76          1           0       16.366377   -3.081143    3.741229
     77          1           0       12.854932   -5.733276    4.539140
     78          1           0       12.429030   -3.927564    4.700746
     79          1           0       13.199828   -4.749069    6.017026
     80         12           0      -16.126077    0.489214    0.567289
     81          6           0      -16.337530   -2.505651   -1.397471
     82          6           0      -12.617443    0.334469   -0.084949
     83          6           0      -15.744724    3.714007    1.429926
     84          6           0      -19.531589    0.754783    0.399150
     85          7           0      -14.717451   -0.905625   -0.627982
     86          6           0      -15.017239   -2.049983   -1.307727
     87          6           0      -13.738704   -2.711262   -1.931099
     88          6           0      -12.579343   -1.959479   -1.117773
     89          6           0      -13.339218   -0.729354   -0.647685
     90          6           0      -12.034949   -2.728615    0.064058
     91          6           0      -13.711693   -2.662248   -3.449815
     92          6           0      -13.277470   -3.948002   -4.200353
     93          1           0      -11.795661   -4.098635   -4.782944
     94          7           0      -14.363224    1.866998    0.767309
     95          6           0      -13.013214    1.536666    0.526685
     96          6           0      -12.176158    2.687925    0.885915
     97          6           0      -13.106368    3.683095    1.384009
     98          6           0      -14.436663    3.170031    1.136605
     99          6           0      -10.707597    2.811258    0.726101
    100          6           0      -12.714397    4.986008    2.034586
    101          8           0      -11.546982    5.161969    2.301809
    102          6           0      -13.684530    6.088865    2.390395
    103          7           0      -17.443266    1.965517    0.734135
    104          6           0      -17.032820    3.183683    1.268356
    105          6           0      -18.281119    4.053633    1.433371
    106          6           0      -19.473863    3.036346    1.309161
    107          6           0      -18.764892    1.817977    0.821912
    108          6           0      -18.358851    5.015695    2.675220
    109          6           0      -20.710541    3.454685    0.456001
    110          6           0      -22.056540    3.406419    1.102473
    111          7           0      -17.658048   -0.648162   -0.181102
    112          6           0      -19.027964   -0.462866   -0.114817
    113          6           0      -19.742097   -1.679761   -0.547061
    114          6           0      -18.674785   -2.474148   -1.120593
    115          6           0      -17.483006   -1.786249   -0.872577
    116          6           0      -21.211225   -2.009600   -0.515147
    117          6           0      -18.402219   -3.771165   -1.807225
    118          8           0      -19.154345   -4.603340   -2.227992
    119          6           0      -16.904166   -3.746752   -2.092921
    120          6           0      -16.308395   -4.997088   -1.518078
    121          8           0      -16.314056   -5.147993   -0.315235
    122          8           0      -15.683031   -5.878854   -2.449984
    123          6           0      -14.908261   -7.018991   -1.872830
    124          1           0      -11.533965    0.297235   -0.217097
    125          1           0      -15.796411    4.759263    1.739212
    126          1           0      -20.612800    0.796014    0.544560
    127          1           0      -13.617254   -3.743963   -1.605439
    128          1           0      -11.792232   -1.604546   -1.782933
    129          1           0      -12.720739   -2.601435    0.901368
    130          1           0      -11.029931   -2.352330    0.254474
    131          1           0      -11.935428   -3.811783   -0.013581
    132          1           0      -12.974396   -1.903861   -3.711330
    133          1           0      -14.655440   -2.232280   -3.785225
    134          1           0      -13.988724   -3.999931   -5.025034
    135          1           0      -13.414002   -4.857266   -3.614820
    136          1           0      -10.277030    2.587270    1.701615
    137          1           0      -10.454416    3.856825    0.550361
    138          1           0      -10.185505    2.228522   -0.033752
    139          1           0      -13.230087    7.011938    2.749748
    140          1           0      -14.299161    5.685038    3.195009
    141          1           0      -14.420754    6.410522    1.654705
    142          1           0      -18.171801    4.746219    0.598317
    143          1           0      -19.759139    2.727418    2.314344
    144          1           0      -17.669536    4.692391    3.455696
    145          1           0      -19.385382    5.094825    3.032630
    146          1           0      -18.108254    6.033628    2.377501
    147          1           0      -20.741428    2.836642   -0.441252
    148          1           0      -20.498378    4.445058    0.053418
    149          1           0      -22.612163    2.557522    0.704580
    150          1           0      -22.612013    4.311406    0.856781
    151          1           0      -22.092408    3.305883    2.187019
    152          1           0      -21.371485   -3.086842   -0.554460
    153          1           0      -21.657279   -1.508550   -1.374723
    154          1           0      -21.642865   -1.518137    0.356968
    155          1           0      -16.780164   -3.600368   -3.166011
    156          1           0      -15.601195   -7.805230   -1.572726
    157          1           0      -14.386443   -6.714945   -0.965685
    158          1           0      -14.172318   -7.387693   -2.587097
 ---------------------------------------------------------------------

 SCF Done:  E(RPBE1PBE) =  -4067.38900393     A.U. after   16 cycles

 Excitation energies and oscillator strengths:

 Excited State   1:      Singlet-A      1.7200 eV  720.85 nm  f=0.0000  <S**2>=0.000
     312 -> 313        0.70710
 This state for optimization and/or second-order correction.
 Total Energy, E(TD-HF/TD-DFT) =  -4067.32579603
 Copying the excited state density for this state as the 1-particle RhoCI density.

 Excited State   2:      Singlet-A      1.8361 eV  675.24 nm  f=0.3828  <S**2>=0.000
     309 -> 316       -0.16404
     311 -> 313        0.69593
     311 <- 313       -0.11938

 Excited State   3:      Singlet-A      1.8621 eV  665.82 nm  f=0.3751  <S**2>=0.000
     310 -> 315        0.19110
     312 -> 314        0.68740
     312 <- 314       -0.10005

 Excited State   4:      Singlet-A      2.1549 eV  575.36 nm  f=0.0000  <S**2>=0.000
     311 -> 314        0.70710

 Excited State   5:      Singlet-A      2.2360 eV  554.49 nm  f=0.1175  <S**2>=0.000
     308 -> 313        0.10031
     309 -> 313        0.64821
     311 -> 316        0.25653

 The electronic state is 1-A.
 Alpha  occ. eigenvalues --  -46.92757 -46.91490 -19.25872 -19.24628 -19.20874
 Alpha  occ. eigenvalues --  -19.20461 -19.19849 -19.19408 -19.18581 -19.18265
 Alpha  occ. eigenvalues --  -14.42147 -14.41593 -14.41378 -14.41131 -14.39642
 Alpha  occ. eigenvalues --  -14.39511 -14.39022 -14.38846 -10.37194 -10.36406
 Alpha  occ. eigenvalues --  -10.32680 -10.32491 -10.32326 -10.31717 -10.29466
 Alpha  occ. eigenvalues --  -10.29148 -10.29042 -10.28963 -10.28761 -10.28580
 Alpha  occ. eigenvalues --  -10.28505 -10.28447 -10.28206 -10.28074 -10.28066
 Alpha  occ. eigenvalues --  -10.27966 -10.27941 -10.27905 -10.27745 -10.27302
 Alpha  occ. eigenvalues --  -10.27280 -10.27132 -10.26847 -10.26808 -10.26758
 Alpha  occ. eigenvalues --  -10.26716 -10.26410 -10.26384 -10.26370 -10.26268
 Alpha  occ. eigenvalues --  -10.26170 -10.26165 -10.26104 -10.25944 -10.25940
 Alpha  occ. eigenvalues --  -10.25784 -10.25592 -10.25584 -10.25502 -10.25479
 Alpha  occ. eigenvalues --  -10.25224 -10.24947 -10.24805 -10.24772 -10.24739
 Alpha  occ. eigenvalues --  -10.24484 -10.24464 -10.24356 -10.24344 -10.24244
 Alpha  occ. eigenvalues --  -10.24128 -10.24090 -10.24060 -10.23950 -10.23759
 Alpha  occ. eigenvalues --  -10.23671 -10.23636 -10.23526 -10.23259 -10.23235
 Alpha  occ. eigenvalues --  -10.23228 -10.23198 -10.23071 -10.22881 -10.22861
 Alpha  occ. eigenvalues --  -10.22841  -3.14903  -3.13748  -1.87689  -1.87284
 Alpha  occ. eigenvalues --   -1.87132  -1.86595  -1.86108  -1.86003  -1.10186
 Alpha  occ. eigenvalues --   -1.10029  -1.06421  -1.05031  -1.03846  -1.02652
 Alpha  occ. eigenvalues --   -1.02593  -1.02443  -0.99259  -0.98919  -0.98215
 Alpha  occ. eigenvalues --   -0.98093  -0.97443  -0.97395  -0.96220  -0.96069
 Alpha  occ. eigenvalues --   -0.87052  -0.85948  -0.83747  -0.83161  -0.83153
 Alpha  occ. eigenvalues --   -0.82825  -0.82807  -0.82095  -0.81922  -0.81861
 Alpha  occ. eigenvalues --   -0.81042  -0.80656  -0.80571  -0.79983  -0.78782
 Alpha  occ. eigenvalues --   -0.78500  -0.78296  -0.77233  -0.76786  -0.76318
 Alpha  occ. eigenvalues --   -0.76169  -0.76051  -0.75043  -0.74867  -0.74536
 Alpha  occ. eigenvalues --   -0.74329  -0.73204  -0.72515  -0.71816  -0.71759
 Alpha  occ. eigenvalues --   -0.71270  -0.71115  -0.70616  -0.70075  -0.69624
 Alpha  occ. eigenvalues --   -0.68902  -0.67127  -0.66522  -0.66249  -0.65905
 Alpha  occ. eigenvalues --   -0.63933  -0.63708  -0.63328  -0.62977  -0.62771
 Alpha  occ. eigenvalues --   -0.62365  -0.61480  -0.61160  -0.60422  -0.59930
 Alpha  occ. eigenvalues --   -0.59645  -0.59537  -0.59160  -0.58862  -0.58461
 Alpha  occ. eigenvalues --   -0.58283  -0.56889  -0.55846  -0.55184  -0.54375
 Alpha  occ. eigenvalues --   -0.54061  -0.54008  -0.53814  -0.53490  -0.53257
 Alpha  occ. eigenvalues --   -0.53020  -0.52266  -0.52196  -0.52176  -0.51352
 Alpha  occ. eigenvalues --   -0.51137  -0.50745  -0.50307  -0.50217  -0.50075
 Alpha  occ. eigenvalues --   -0.49154  -0.48818  -0.48734  -0.48466  -0.48458
 Alpha  occ. eigenvalues --   -0.47961  -0.47920  -0.47845  -0.47747  -0.47507
 Alpha  occ. eigenvalues --   -0.47138  -0.46907  -0.46778  -0.46499  -0.46354
 Alpha  occ. eigenvalues --   -0.46343  -0.46274  -0.45970  -0.45911  -0.45735
 Alpha  occ. eigenvalues --   -0.45591  -0.45495  -0.45340  -0.45103  -0.45035
 Alpha  occ. eigenvalues --   -0.44583  -0.44509  -0.44457  -0.44329  -0.44090
 Alpha  occ. eigenvalues --   -0.44033  -0.43959  -0.43881  -0.43810  -0.43635
 Alpha  occ. eigenvalues --   -0.43515  -0.43342  -0.43302  -0.43158  -0.42841
 Alpha  occ. eigenvalues --   -0.42780  -0.42693  -0.42405  -0.42014  -0.41861
 Alpha  occ. eigenvalues --   -0.41686  -0.41524  -0.41135  -0.41050  -0.40921
 Alpha  occ. eigenvalues --   -0.40896  -0.40838  -0.40764  -0.40713  -0.40631
 Alpha  occ. eigenvalues --   -0.40458  -0.40320  -0.39975  -0.39973  -0.39858
 Alpha  occ. eigenvalues --   -0.39680  -0.39653  -0.39427  -0.39404  -0.38971
 Alpha  occ. eigenvalues --   -0.38808  -0.38627  -0.38462  -0.38300  -0.38281
 Alpha  occ. eigenvalues --   -0.38149  -0.37975  -0.37824  -0.37819  -0.37722
 Alpha  occ. eigenvalues --   -0.37521  -0.37472  -0.37451  -0.37192  -0.37168
 Alpha  occ. eigenvalues --   -0.37026  -0.36831  -0.36425  -0.36265  -0.36066
 Alpha  occ. eigenvalues --   -0.36050  -0.35751  -0.35673  -0.35549  -0.35275
 Alpha  occ. eigenvalues --   -0.35231  -0.35066  -0.34255  -0.34126  -0.34049
 Alpha  occ. eigenvalues --   -0.33463  -0.33460  -0.33241  -0.32995  -0.32708
 Alpha  occ. eigenvalues --   -0.32368  -0.32057  -0.31749  -0.31584  -0.31191
 Alpha  occ. eigenvalues --   -0.30925  -0.30872  -0.29804  -0.29578  -0.29385
 Alpha  occ. eigenvalues --   -0.29358  -0.28853  -0.28686  -0.26872  -0.26831
 Alpha  occ. eigenvalues --   -0.26384  -0.26365  -0.25757  -0.25590  -0.25346
 Alpha  occ. eigenvalues --   -0.25263  -0.25186  -0.24429  -0.21227  -0.20882
 Alpha  occ. eigenvalues --   -0.18804  -0.18154
 Alpha virt. eigenvalues --   -0.11422  -0.10473  -0.05534  -0.05048  -0.04399
 Alpha virt. eigenvalues --   -0.03569  -0.02186  -0.01984  -0.01573  -0.00227
 Alpha virt. eigenvalues --   -0.00188   0.00225   0.00615   0.01102   0.01226

 Mulliken charges:
               1
     1  Mg  12.000000
     2  C    6.000000
     3  C    6.000000
     4  C    6.000000
     5  C    6.000000
     6  N    7.000000
     7  C    6.000000
     8  C    6.000000
     9  C    6.000000
    10  C    6.000000
    11  C    6.000000
    12  C    6.000000
    13  C    6.000000
    14  H    1.000000
    15  N    7.000000
    16  C    6.000000
    17  C    6.000000
    18  C    6.000000
    19  C    6.000000
    20  C    6.000000
    21  C    6.000000
    22  O    8.000000
    23  C    6.000000
    24  N    7.000000
    25  C    6.000000
    26  C    6.000000
    27  C    6.000000
    28  C    6.000000
    29  C    6.000000
    30  C    6.000000
    31  C    6.000000
    32  N    7.000000
    33  C    6.000000
    34  C    6.000000
    35  C    6.000000
    36  C    6.000000
    37  C    6.000000
    38  C    6.000000
    39  O    8.000000
    40  C    6.000000
    41  C    6.000000
    42  O    8.000000
    43  O    8.000000
    44  C    6.000000
    45  H    1.000000
    46  H    1.000000
    47  H    1.000000
    48  H    1.000000
    49  H    1.000000
    50  H    1.000000
    51  H    1.000000
    52  H    1.000000
    53  H    1.000000
    54  H    1.000000
    55  H    1.000000
    56  H    1.000000
    57  H    1.000000
    58  H    1.000000
    59  H    1.000000
    60  H    1.000000
    61  H    1.000000
    62  H    1.000000
    63  H    1.000000
    64  H    1.000000
    65  H    1.000000
    66  H    1.000000
    67  H    1.000000
    68  H    1.000000
    69  H    1.000000
    70  H    1.000000
    71  H    1.000000
    72  H    1.000000
    73  H    1.000000
    74  H    1.000000
    75  H    1.000000
    76  H    1.000000
    77  H    1.000000
    78  H    1.000000
    79  H    1.000000
    80  Mg  12.000000
    81  C    6.000000
    82  C    6.000000
    83  C    6.000000
    84  C    6.000000
    85  N    7.000000
    86  C    6.000000
    87  C    6.000000
    88  C    6.000000
    89  C    6.000000
    90  C    6.000000
    91  C    6.000000
    92  C    6.000000
    93  H    1.000000
    94  N    7.000000
    95  C    6.000000
    96  C    6.000000
    97  C    6.000000
    98  C    6.000000
    99  C    6.000000
   100  C    6.000000
   101  O    8.000000
   102  C    6.000000
   103  N    7.000000
   104  C    6.000000
   105  C    6.000000
   106  C    6.000000
   107  C    6.000000
   108  C    6.000000
   109  C    6.000000
   110  C    6.000000
   111  N    7.000000
   112  C    6.000000
   113  C    6.000000
   114  C    6.000000
   115  C    6.000000
   116  C    6.000000
   117  C    6.000000
   118  O    8.000000
   119  C    6.000000
   120  C    6.000000
   121  O    8.000000
   122  O    8.000000
   123  C    6.000000
   124  H    1.000000
   125  H    1.000000
   126  H    1.000000
   127  H    1.000000
   128  H    1.000000
   129  H    1.000000
   130  H    1.000000
   131  H    1.000000
   132  H    1.000000
   133  H    1.000000
   134  H    1.000000
   135  H    1.000000
   136  H    1.000000
   137  H    1.000000
   138  H    1.000000
   139  H    1.000000
   140  H    1.000000
   141  H    1.000000
   142  H    1.000000
   143  H    1.000000
   144  H    1.000000
   145  H    1.000000
   146  H    1.000000
   147  H    1.000000
   148  H    1.000000
   149  H    1.000000
   150  H    1.000000
   151  H    1.000000
   152  H    1.000000
   153  H    1.000000
   154  H    1.000000
   155  H    1.000000
   156  H    1.000000
   157  H    1.000000
   158  H    1.000000
 Sum of Mulliken charges = 624.00000

 Dipole moment (field-independent basis, Debye):
    X=             -0.0000    Y=             -0.0000    Z=             -0.0000  Tot=              0.0000
 Quadrupole moment (field-independent basis, Debye-Ang):
   XX=              0.0000   YY=              0.0000   ZZ=              0.0000
   XY=              0.0000   XZ=              0.0000   YZ=              0.0000

 Normal termination of Gaussian 16 at Thu Oct 14 18:29:17 2021.
