 Gaussian 16, Revision A.03,
 Gaussian 16:  ES64L-G16RevA.03 25-Dec-2016

 --------------------------------------------------------
 #p PBE1PBE/Def2SVP td=(nstates=5) density=(transition=1)
 --------------------------------------------------------

 --------------------------------
 TDDFT excited states in gaussian
 --------------------------------
 Symbolic Z-matrix:
 Charge =  0 Multiplicity = 1

                         Standard orientation:
 ---------------------------------------------------------------------
 Center     Atomic      Atomic             Coordinates (Angstroms)
 Number     Number       Type             X           Y           Z
 ---------------------------------------------------------------------
      1         12           0       22.469849   -0.750302    0.367117
      2          6           0       21.926648    2.141404   -1.819288
      3          6           0       22.193655    1.490865    3.046075
      4          6           0       23.296275   -3.193606    2.360824
      5          6           0       22.521702   -2.783673   -2.394159
      6          7           0       22.314203    1.546420    0.577947
      7          6           0       21.971658    2.536001   -0.436101
      8          6           0       21.810732    3.967265    0.119600
      9          6           0       22.124651    3.672923    1.699258
     10          6           0       22.240734    2.141571    1.829843
     11          6           0       23.340731    4.408000    2.228522
     12          6           0       20.406519    4.540939   -0.239019
     13          6           0       20.018495    5.792046    0.490127
     14          1           0       19.369250    6.930603   -0.264751
     15          7           0       22.745772   -0.867808    2.450706
     16          6           0       22.580089    0.153056    3.393559
     17          6           0       22.806636   -0.376392    4.737079
     18          6           0       23.133347   -1.783799    4.565611
     19          6           0       23.076159   -2.042210    3.079321
     20          6           0       22.619511    0.436833    6.070172
     21          6           0       23.516360   -2.831509    5.547748
     22          8           0       23.739378   -4.003036    5.272909
     23          6           0       23.535715   -2.520998    6.987046
     24          7           0       22.754760   -2.670393    0.058740
     25          6           0       23.211617   -3.486898    1.010003
     26          6           0       23.436687   -4.930091    0.501220
     27          6           0       22.771703   -4.864718   -0.858031
     28          6           0       22.724516   -3.313001   -1.140120
     29          6           0       24.908438   -5.320096    0.427915
     30          6           0       21.430363   -5.488684   -1.144213
     31          6           0       20.284946   -4.892918   -0.353891
     32          7           0       22.371035   -0.429886   -1.688442
     33          6           0       22.307504   -1.409625   -2.695680
     34          6           0       22.155380   -0.756437   -3.972418
     35          6           0       21.936284    0.595289   -3.601753
     36          6           0       22.088261    0.761867   -2.212005
     37          6           0       22.030177   -1.376305   -5.333533
     38          6           0       21.576520    1.910961   -4.215502
     39          8           0       21.243469    2.205544   -5.383337
     40          6           0       21.601277    2.920929   -3.070392
     41          6           0       22.563587    4.063773   -3.400817
     42          8           0       23.818449    4.052951   -3.571350
     43          8           0       21.840089    5.218220   -3.344555
     44          6           0       22.606445    6.467598   -3.553386
     45          1           0       21.908011    2.143873    3.872207
     46          1           0       23.636059   -4.010350    3.001007
     47          1           0       22.552560   -3.364954   -3.318196
     48          1           0       22.533957    4.567215   -0.432685
     49          1           0       21.230713    3.895417    2.281935
     50          1           0       23.028471    5.036038    3.063378
     51          1           0       23.692777    5.041251    1.414951
     52          1           0       24.255858    3.833234    2.369308
     53          1           0       19.716771    3.701857   -0.141584
     54          1           0       20.388696    4.767331   -1.305171
     55          1           0       20.817913    6.347934    0.979504
     56          1           0       19.246518    5.553892    1.221296
     57          1           0       21.815512   -0.078871    6.596073
     58          1           0       22.322738    1.473052    5.908783
     59          1           0       23.570407    0.372242    6.599215
     60          1           0       23.998255   -1.563009    7.225456
     61          1           0       24.129170   -3.329354    7.412765
     62          1           0       22.483636   -2.383710    7.234955
     63          1           0       22.940498   -5.596336    1.207013
     64          1           0       23.372721   -5.343692   -1.631499
     65          1           0       25.009724   -6.348551    0.772577
     66          1           0       25.518777   -4.680402    1.064502
     67          1           0       25.233066   -5.371368   -0.611981
     68          1           0       21.530469   -6.567151   -1.018738
     69          1           0       21.107984   -5.270716   -2.162244
     70          1           0       19.642499   -5.660457    0.076109
     71          1           0       19.609421   -4.301030   -0.971902
     72          1           0       20.594033   -4.268260    0.484278
     73          1           0       21.138658   -0.992575   -5.828958
     74          1           0       21.982821   -2.458930   -5.450669
     75          1           0       22.905418   -1.063323   -5.903211
     76          1           0       20.616850    3.385673   -3.008492
     77          1           0       22.813531    6.937115   -2.591960
     78          1           0       21.909468    6.978782   -4.217491
     79          1           0       23.502420    6.311418   -4.155534
     80         12           0      -21.942993   -0.817476   -0.143683
     81          6           0      -23.250528    2.008123    1.533008
     82          6           0      -20.070367    1.310469   -2.065713
     83          6           0      -21.231144   -3.379555   -2.117726
     84          6           0      -24.271745   -2.789771    1.570500
     85          7           0      -21.816656    1.424546   -0.357054
     86          6           0      -22.372798    2.350245    0.529810
     87          6           0      -21.718708    3.738450    0.321729
     88          6           0      -20.710802    3.488309   -0.858945
     89          6           0      -20.808259    1.960695   -1.126119
     90          6           0      -20.783451    4.434633   -2.044567
     91          6           0      -21.055296    4.375738    1.552582
     92          6           0      -21.576533    5.801534    1.881981
     93          1           0      -20.518341    6.879807    1.956356
     94          7           0      -20.725560   -0.995894   -1.814084
     95          6           0      -20.056341   -0.022735   -2.496380
     96          6           0      -19.229457   -0.670997   -3.486228
     97          6           0      -19.676245   -2.055490   -3.613531
     98          6           0      -20.598644   -2.150225   -2.492443
     99          6           0      -18.236177    0.150469   -4.460454
    100          6           0      -19.542011   -3.031280   -4.702128
    101          8           0      -19.938821   -4.161513   -4.721324
    102          6           0      -18.825415   -2.536756   -5.955107
    103          7           0      -22.832770   -2.774018   -0.371227
    104          6           0      -22.298138   -3.662157   -1.231795
    105          6           0      -22.830053   -5.070512   -0.956257
    106          6           0      -23.497414   -4.918291    0.420038
    107          6           0      -23.518226   -3.416708    0.599435
    108          6           0      -23.862895   -5.534877   -2.082860
    109          6           0      -22.544253   -5.599862    1.528403
    110          6           0      -21.240799   -4.825131    1.864599
    111          7           0      -23.407149   -0.569841    1.364612
    112          6           0      -24.237421   -1.450972    1.945526
    113          6           0      -25.031879   -0.746465    2.915596
    114          6           0      -24.645929    0.577396    2.820387
    115          6           0      -23.686276    0.677928    1.809374
    116          6           0      -26.101797   -1.282074    3.847893
    117          6           0      -24.977749    1.891100    3.378397
    118          8           0      -25.781585    2.372001    4.126426
    119          6           0      -24.033589    2.865903    2.626255
    120          6           0      -24.924548    3.850680    1.963855
    121          8           0      -25.812271    3.500042    1.227681
    122          8           0      -24.683845    5.160072    2.347884
    123          6           0      -25.723982    6.170443    1.959281
    124          1           0      -19.331353    1.972044   -2.522741
    125          1           0      -20.943400   -4.282576   -2.660856
    126          1           0      -24.868891   -3.348138    2.294486
    127          1           0      -22.469141    4.419924   -0.079491
    128          1           0      -19.708781    3.719092   -0.496762
    129          1           0      -21.719941    4.990410   -2.048119
    130          1           0      -20.649516    3.942671   -3.008295
    131          1           0      -20.006712    5.180085   -1.875919
    132          1           0      -19.977297    4.535264    1.528124
    133          1           0      -21.200216    3.752256    2.434543
    134          1           0      -22.227242    5.796851    2.756366
    135          1           0      -22.210964    6.116194    1.054353
    136          1           0      -17.270789   -0.355449   -4.453447
    137          1           0      -18.012578    1.175711   -4.167958
    138          1           0      -18.538331    0.320710   -5.493782
    139          1           0      -17.825346   -2.297974   -5.592485
    140          1           0      -19.381264   -1.650397   -6.259248
    141          1           0      -18.709517   -3.285200   -6.739620
    142          1           0      -22.044693   -5.817724   -0.837455
    143          1           0      -24.525970   -5.245807    0.573008
    144          1           0      -23.798526   -6.621788   -2.140095
    145          1           0      -23.719780   -5.175778   -3.102572
    146          1           0      -24.834683   -5.245324   -1.683299
    147          1           0      -22.275390   -6.626417    1.280178
    148          1           0      -23.033630   -5.560619    2.501676
    149          1           0      -20.520745   -5.364465    2.479106
    150          1           0      -21.526502   -3.930150    2.417537
    151          1           0      -20.786406   -4.523496    0.920296
    152          1           0      -25.741167   -2.008306    4.575985
    153          1           0      -26.798053   -1.782245    3.175230
    154          1           0      -26.672951   -0.490217    4.332471
    155          1           0      -23.488352    3.354605    3.433514
    156          1           0      -25.060750    6.964307    1.615769
    157          1           0      -26.312888    6.524394    2.805252
    158          1           0      -26.468839    5.929348    1.201298
 ---------------------------------------------------------------------

 SCF Done:  E(RPBE1PBE) =  -4067.39493129     A.U. after   16 cycles

 Excitation energies and oscillator strengths:

 Excited State   1:      Singlet-A      1.8175 eV  682.18 nm  f=0.3813  <S**2>=0.000
     309 -> 315       -0.16207
     312 -> 313        0.69596
     312 <- 313       -0.11404
 This state for optimization and/or second-order correction.
 Total Energy, E(TD-HF/TD-DFT) =  -4067.32814063
 Copying the excited state density for this state as the 1-particle RhoCI density.

 Excited State   2:      Singlet-A      1.9554 eV  634.08 nm  f=0.0000  <S**2>=0.000
     311 -> 313        0.70711

 Excited State   3:      Singlet-A      1.9696 eV  629.48 nm  f=0.0000  <S**2>=0.000
     312 -> 314        0.70711

 Excited State   4:      Singlet-A      2.1799 eV  568.77 nm  f=0.1279  <S**2>=0.000
     309 -> 313        0.66145
     312 -> 315        0.23367

 Excited State   5:      Singlet-A      2.4826 eV  499.42 nm  f=0.0000  <S**2>=0.000
     310 -> 313        0.70711

 The electronic state is 1-A.
 Alpha  occ. eigenvalues --  -46.92948 -46.91195 -19.26545 -19.25783 -19.20040
 Alpha  occ. eigenvalues --  -19.19796 -19.19474 -19.18933 -19.18805 -19.18650
 Alpha  occ. eigenvalues --  -14.42119 -14.41708 -14.41690 -14.41400 -14.39551
 Alpha  occ. eigenvalues --  -14.39452 -14.38883 -14.38705 -10.37126 -10.35792
 Alpha  occ. eigenvalues --  -10.32289 -10.32020 -10.31643 -10.31512 -10.29945
 Alpha  occ. eigenvalues --  -10.29248 -10.29239 -10.29080 -10.29036 -10.28827
 Alpha  occ. eigenvalues --  -10.28681 -10.28605 -10.28553 -10.28526 -10.28478
 Alpha  occ. eigenvalues --  -10.28175 -10.27983 -10.27886 -10.27724 -10.27438
 Alpha  occ. eigenvalues --  -10.27346 -10.27017 -10.26867 -10.26835 -10.26819
 Alpha  occ. eigenvalues --  -10.26603 -10.26588 -10.26545 -10.26494 -10.26357
 Alpha  occ. eigenvalues --  -10.25863 -10.25860 -10.25849 -10.25839 -10.25755
 Alpha  occ. eigenvalues --  -10.25740 -10.25567 -10.25508 -10.25399 -10.25348
 Alpha  occ. eigenvalues --  -10.25156 -10.25126 -10.24901 -10.24874 -10.24772
 Alpha  occ. eigenvalues --  -10.24737 -10.24729 -10.24502 -10.24233 -10.24219
 Alpha  occ. eigenvalues --  -10.24127 -10.23956 -10.23723 -10.23581 -10.23580
 Alpha  occ. eigenvalues --  -10.23505 -10.23452 -10.23366 -10.23290 -10.23091
 Alpha  occ. eigenvalues --  -10.23053 -10.22953 -10.22755 -10.22722 -10.22378
 Alpha  occ. eigenvalues --  -10.22009  -3.14936  -3.13512  -1.87758  -1.87323
 Alpha  occ. eigenvalues --   -1.87151  -1.86359  -1.85899  -1.85737  -1.10903
 Alpha  occ. eigenvalues --   -1.10413  -1.06415  -1.05859  -1.04929  -1.02729
 Alpha  occ. eigenvalues --   -1.02435  -1.00687  -0.99833  -0.99692  -0.98982
 Alpha  occ. eigenvalues --   -0.98552  -0.97736  -0.96759  -0.96628  -0.95186
 Alpha  occ. eigenvalues --   -0.86798  -0.86709  -0.84025  -0.83200  -0.83159
 Alpha  occ. eigenvalues --   -0.83090  -0.82984  -0.82595  -0.82098  -0.81651
 Alpha  occ. eigenvalues --   -0.81111  -0.80875  -0.80625  -0.80370  -0.79049
 Alpha  occ. eigenvalues --   -0.78729  -0.78438  -0.77775  -0.77254  -0.76777
 Alpha  occ. eigenvalues --   -0.76338  -0.75843  -0.75502  -0.75201  -0.74440
 Alpha  occ. eigenvalues --   -0.74436  -0.72693  -0.72688  -0.71716  -0.71652
 Alpha  occ. eigenvalues --   -0.71236  -0.71060  -0.70465  -0.70359  -0.69839
 Alpha  occ. eigenvalues --   -0.69604  -0.67568  -0.67326  -0.66362  -0.66247
 Alpha  occ. eigenvalues --   -0.64618  -0.63849  -0.63708  -0.63649  -0.62527
 Alpha  occ. eigenvalues --   -0.62088  -0.61658  -0.61647  -0.59925  -0.59854
 Alpha  occ. eigenvalues --   -0.59663  -0.59615  -0.59262  -0.59073  -0.58786
 Alpha  occ. eigenvalues --   -0.58410  -0.56853  -0.56614  -0.55033  -0.54699
 Alpha  occ. eigenvalues --   -0.54287  -0.53870  -0.53826  -0.53741  -0.53372
 Alpha  occ. eigenvalues --   -0.52946  -0.52630  -0.52317  -0.52173  -0.51980
 Alpha  occ. eigenvalues --   -0.50847  -0.50631  -0.50482  -0.50019  -0.49913
 Alpha  occ. eigenvalues --   -0.49817  -0.49723  -0.49383  -0.49237  -0.48977
 Alpha  occ. eigenvalues --   -0.48679  -0.48032  -0.47890  -0.47576  -0.47525
 Alpha  occ. eigenvalues --   -0.47377  -0.47111  -0.47104  -0.46953  -0.46839
 Alpha  occ. eigenvalues --   -0.46714  -0.46558  -0.46140  -0.45854  -0.45735
 Alpha  occ. eigenvalues --   -0.45449  -0.45345  -0.45199  -0.45033  -0.44840
 Alpha  occ. eigenvalues --   -0.44660  -0.44526  -0.44404  -0.44081  -0.44047
 Alpha  occ. eigenvalues --   -0.43973  -0.43934  -0.43667  -0.43542  -0.43507
 Alpha  occ. eigenvalues --   -0.43250  -0.43081  -0.42971  -0.42951  -0.42783
 Alpha  occ. eigenvalues --   -0.42575  -0.42453  -0.42277  -0.42189  -0.42053
 Alpha  occ. eigenvalues --   -0.41766  -0.41678  -0.41514  -0.41359  -0.41115
 Alpha  occ. eigenvalues --   -0.40933  -0.40912  -0.40793  -0.40737  -0.40613
 Alpha  occ. eigenvalues --   -0.40527  -0.40327  -0.40231  -0.40104  -0.39825
 Alpha  occ. eigenvalues --   -0.39725  -0.39332  -0.39283  -0.39178  -0.39118
 Alpha  occ. eigenvalues --   -0.38930  -0.38875  -0.38517  -0.38390  -0.38173
 Alpha  occ. eigenvalues --   -0.38115  -0.37941  -0.37823  -0.37729  -0.37510
 Alpha  occ. eigenvalues --   -0.37384  -0.37354  -0.37156  -0.37078  -0.36995
 Alpha  occ. eigenvalues --   -0.36883  -0.36721  -0.36514  -0.36333  -0.36314
 Alpha  occ. eigenvalues --   -0.36114  -0.35766  -0.35752  -0.35386  -0.35255
 Alpha  occ. eigenvalues --   -0.34879  -0.34691  -0.34233  -0.34032  -0.34011
 Alpha  occ. eigenvalues --   -0.33879  -0.33316  -0.33067  -0.32837  -0.32365
 Alpha  occ. eigenvalues --   -0.32208  -0.32117  -0.31848  -0.31615  -0.31374
 Alpha  occ. eigenvalues --   -0.31218  -0.31210  -0.29613  -0.29565  -0.29162
 Alpha  occ. eigenvalues --   -0.29133  -0.28761  -0.28649  -0.27256  -0.27112
 Alpha  occ. eigenvalues --   -0.26167  -0.26012  -0.25885  -0.25816  -0.25767
 Alpha  occ. eigenvalues --   -0.25416  -0.25130  -0.25046  -0.21193  -0.21146
 Alpha  occ. eigenvalues --   -0.19208  -0.19138
 Alpha virt. eigenvalues --   -0.11728  -0.11604  -0.05267  -0.05016  -0.03904
 Alpha virt. eigenvalues --   -0.03704  -0.02235  -0.01948  -0.01143  -0.00357
 Alpha virt. eigenvalues --    0.00061   0.00797   0.01140   0.01440   0.01911

 Mulliken charges:
               1
     1  Mg  11.997857
     2  C    6.016097
     3  C    5.993682
     4  C    5.985644
     5  C    6.009695
     6  N    7.005675
     7  C    5.968556
     8  C    6.010487
     9  C    5.992374
    10  C    6.024498
    11  C    5.993263
    12  C    6.002979
    13  C    5.999600
    14  H    0.999535
    15  N    6.995594
    16  C    6.035442
    17  C    6.022143
    18  C    6.015112
    19  C    6.029060
    20  C    6.001487
    21  C    6.012113
    22  O    8.030068
    23  C    5.996810
    24  N    7.001492
    25  C    6.033243
    26  C    5.992578
    27  C    6.001651
    28  C    5.967414
    29  C    5.998365
    30  C    6.007001
    31  C    6.005025
    32  N    7.001263
    33  C    5.960631
    34  C    5.978407
    35  C    5.994027
    36  C    5.967281
    37  C    6.002796
    38  C    5.980869
    39  O    7.969304
    40  C    6.002091
    41  C    5.997421
    42  O    7.994167
    43  O    7.998312
    44  C    6.001070
    45  H    1.010799
    46  H    1.006261
    47  H    0.990690
    48  H    1.000072
    49  H    0.999926
    50  H    1.001297
    51  H    1.012792
    52  H    0.997951
    53  H    0.997587
    54  H    1.005783
    55  H    0.995356
    56  H    0.994883
    57  H    1.015251
    58  H    1.016863
    59  H    1.014824
    60  H    1.006836
    61  H    1.013811
    62  H    1.007845
    63  H    0.998467
    64  H    0.999694
    65  H    1.002399
    66  H    0.994697
    67  H    1.012503
    68  H    0.989948
    69  H    1.004431
    70  H    0.994263
    71  H    1.005491
    72  H    0.985252
    73  H    0.985678
    74  H    0.982557
    75  H    0.983266
    76  H    0.991879
    77  H    0.993480
    78  H    0.997110
    79  H    0.997882
    80  Mg  11.999986
    81  C    6.000215
    82  C    5.999971
    83  C    5.999833
    84  C    5.999992
    85  N    7.000088
    86  C    5.999688
    87  C    6.000106
    88  C    5.999914
    89  C    6.000192
    90  C    5.999967
    91  C    6.000006
    92  C    6.000023
    93  H    0.999932
    94  N    6.999990
    95  C    6.000304
    96  C    6.000189
    97  C    6.000260
    98  C    6.000214
    99  C    5.999948
   100  C    6.000076
   101  O    8.000304
   102  C    5.999965
   103  N    6.999952
   104  C    6.000272
   105  C    5.999921
   106  C    6.000055
   107  C    5.999779
   108  C    5.999963
   109  C    6.000052
   110  C    6.000024
   111  N    7.000017
   112  C    5.999701
   113  C    5.999699
   114  C    6.000011
   115  C    5.999659
   116  C    6.000043
   117  C    5.999821
   118  O    7.999726
   119  C    6.000028
   120  C    5.999927
   121  O    7.999989
   122  O    7.999978
   123  C    6.000026
   124  H    1.000126
   125  H    1.000055
   126  H    0.999871
   127  H    0.999986
   128  H    1.000031
   129  H    1.000099
   130  H    0.999967
   131  H    1.000069
   132  H    0.999926
   133  H    1.000036
   134  H    1.000019
   135  H    0.999996
   136  H    1.000189
   137  H    1.000188
   138  H    1.000224
   139  H    1.000085
   140  H    1.000054
   141  H    1.000183
   142  H    1.000003
   143  H    0.999997
   144  H    1.000030
   145  H    0.999956
   146  H    1.000102
   147  H    0.999892
   148  H    0.999999
   149  H    0.999931
   150  H    1.000090
   151  H    0.999856
   152  H    0.999779
   153  H    0.999832
   154  H    0.999853
   155  H    0.999897
   156  H    0.999947
   157  H    0.999954
   158  H    0.999973
 Sum of Mulliken charges = 624.00000

 Dipole moment (field-independent basis, Debye):
    X=              1.5303    Y=             -1.4973    Z=             10.2991  Tot=             10.5193
 Quadrupole moment (field-independent basis, Debye-Ang):
   XX=             62.9052   YY=             -1.9358   ZZ=             10.6278
   XY=            -34.8475   XZ=            236.4830   YZ=             -5.8965

 Normal termination of Gaussian 16 at Thu Oct 14 09:24:18 2021.
