 Gaussian 16, Revision A.03,
 Gaussian 16:  ES64L-G16RevA.03 25-Dec-2016

 --------------------------------------------------------
 #p PBE1PBE/Def2SVP td=(nstates=5) density=(transition=1)
 --------------------------------------------------------

 --------------------------------
 TDDFT excited states in gaussian
 --------------------------------
 Symbolic Z-matrix:
 Charge =  0 Multiplicity = 1

                         Standard orientation:
 ---------------------------------------------------------------------
 Center     Atomic      Atomic             Coordinates (Angstroms)
 Number     Number       Type             X           Y           Z
 ---------------------------------------------------------------------
      1         12           0        0.726126    0.134897   -0.235187
      2          6           0       -2.741697   -0.039582   -0.352043
      3          6           0        0.704300   -3.326894   -0.447791
      4          6           0        4.067724    0.236754    0.388978
      5          6           0        0.510568    3.565270    0.141605
      6          7           0       -0.850476   -1.494532   -0.327415
      7          6           0       -2.226230   -1.338868   -0.402815
      8          6           0       -3.022596   -2.702525   -0.413450
      9          6           0       -1.841516   -3.705030   -0.113933
     10          6           0       -0.564535   -2.798488   -0.263433
     11          6           0       -1.764153   -4.460529    1.216007
     12          6           0       -3.761525   -2.896712   -1.750202
     13          6           0       -5.259710   -2.743869   -1.734680
     14          1           0       -6.062900   -3.690571   -2.644189
     15          7           0        2.239140   -1.282637   -0.239273
     16          6           0        1.992439   -2.607350   -0.423530
     17          6           0        3.308741   -3.268468   -0.330451
     18          6           0        4.274485   -2.306845    0.005418
     19          6           0        3.593966   -1.071516    0.057336
     20          6           0        3.470114   -4.690611   -0.686615
     21          6           0        5.736908   -2.466782    0.301525
     22          8           0        6.520287   -1.493864    0.484171
     23          6           0        6.388780   -3.730954    0.440797
     24          7           0        2.074034    1.643870    0.112657
     25          6           0        3.406848    1.455143    0.313986
     26          6           0        4.151092    2.707301    0.564695
     27          6           0        3.034571    3.804058    0.429299
     28          6           0        1.822957    2.962382    0.283048
     29          6           0        5.017425    2.945521    1.836406
     30          6           0        3.288681    4.911215   -0.709151
     31          6           0        2.905824    4.697466   -2.203765
     32          7           0       -0.749467    1.527408   -0.080831
     33          6           0       -0.695373    2.886969    0.030543
     34          6           0       -1.969122    3.435513   -0.142294
     35          6           0       -2.819520    2.265333   -0.207714
     36          6           0       -2.015835    1.142798   -0.193714
     37          6           0       -2.352111    4.910745   -0.244490
     38          6           0       -4.184605    1.887964   -0.437112
     39          8           0       -5.206723    2.494241   -0.686209
     40          6           0       -4.203020    0.324822   -0.303418
     41          6           0       -4.846116   -0.062630    0.967789
     42          8           0       -4.288912   -0.603769    1.948067
     43          8           0       -6.160843    0.238399    1.044845
     44          6           0       -6.984385   -0.310613    2.175625
     45          1           0        0.687743   -4.418178   -0.450318
     46          1           0        5.128414    0.333082    0.630822
     47          1           0        0.372717    4.647325    0.081547
     48          1           0       -3.603467   -2.845890    0.498270
     49          1           0       -1.854876   -4.421437   -0.935266
     50          1           0       -0.932234   -4.086282    1.813096
     51          1           0       -1.439222   -5.470299    0.969607
     52          1           0       -2.676694   -4.456956    1.813125
     53          1           0       -3.571836   -3.934086   -2.028317
     54          1           0       -3.278586   -2.268396   -2.498592
     55          1           0       -5.485781   -1.723130   -2.044161
     56          1           0       -5.730476   -2.819164   -0.754371
     57          1           0        4.143685   -4.687162   -1.542610
     58          1           0        2.592020   -5.288470   -0.934174
     59          1           0        3.960179   -5.217577    0.132029
     60          1           0        5.719268   -4.330391    1.057109
     61          1           0        7.429188   -3.600056    0.735505
     62          1           0        6.386206   -4.280077   -0.500809
     63          1           0        4.803295    2.695796   -0.308086
     64          1           0        2.921065    4.320576    1.381685
     65          1           0        6.077585    3.034024    1.598904
     66          1           0        4.941361    2.105723    2.527928
     67          1           0        4.699186    3.807801    2.422212
     68          1           0        4.375096    5.001079   -0.695644
     69          1           0        2.822822    5.780622   -0.245002
     70          1           0        2.308106    3.810201   -2.410956
     71          1           0        3.714610    4.809930   -2.926348
     72          1           0        2.304658    5.575321   -2.436896
     73          1           0       -3.091717    5.192521    0.505698
     74          1           0       -2.837388    5.056098   -1.209486
     75          1           0       -1.507517    5.600236   -0.236907
     76          1           0       -4.899125   -0.055100   -1.051410
     77          1           0       -7.960370   -0.104347    1.736073
     78          1           0       -6.833237    0.178293    3.137470
     79          1           0       -6.778617   -1.374559    2.297036
 ---------------------------------------------------------------------

 SCF Done:  E(RPBE1PBE) =  -2033.69418591     A.U. after   15 cycles

 Excitation energies and oscillator strengths:

 Excited State   1:      Singlet-A      1.8654 eV  664.63 nm  f=0.3690  <S**2>=0.000
     155 ->158        -0.16999
     156 ->157         0.69176
     156 <-157        -0.10908
 This state for optimization and/or second-order correction.
 Total Energy, E(TD-HF/TD-DFT) =  -2033.62563192
 Copying the excited state density for this state as the 1-particle RhoCI density.

 Excited State   2:      Singlet-A      2.2251 eV  557.21 nm  f=0.1307  <S**2>=0.000
     155 ->157         0.65920
     156 ->158         0.23825

 Excited State   3:      Singlet-A      2.8945 eV  428.34 nm  f=0.0009  <S**2>=0.000
     153 ->157        -0.17457
     154 ->157         0.65840
     154 ->159         0.12619

 Excited State   4:      Singlet-A      2.9977 eV  413.59 nm  f=0.0010  <S**2>=0.000
     152 ->157         0.51188
     152 ->159        -0.10123
     153 ->157        -0.42765
     154 ->157        -0.13954

 Excited State   5:      Singlet-A      3.0290 eV  409.32 nm  f=0.0046  <S**2>=0.000
     151 ->157        -0.12918
     152 ->157         0.42523
     153 ->157         0.51211
     154 ->157         0.12832

 The electronic state is 1-A.
 Alpha  occ. eigenvalues --  -46.90934 -19.24671 -19.18505 -19.18501 -19.18170
 Alpha  occ. eigenvalues --  -14.41466 -14.41402 -14.39185 -14.38056 -10.35525
 Alpha  occ. eigenvalues --  -10.31589 -10.31352 -10.29218 -10.28738 -10.28579
 Alpha  occ. eigenvalues --  -10.28252 -10.28142 -10.27788 -10.27679 -10.26380
 Alpha  occ. eigenvalues --  -10.26283 -10.25977 -10.25966 -10.25956 -10.25633
 Alpha  occ. eigenvalues --  -10.25453 -10.25309 -10.25248 -10.25107 -10.24953
 Alpha  occ. eigenvalues --  -10.24915 -10.24830 -10.24478 -10.24350 -10.24313
 Alpha  occ. eigenvalues --  -10.24265 -10.23769 -10.23495 -10.23460 -10.23414
 Alpha  occ. eigenvalues --  -10.23155 -10.22901 -10.22412  -3.13226  -1.86079
 Alpha  occ. eigenvalues --   -1.85605  -1.85454  -1.09870  -1.04322  -1.02604
 Alpha  occ. eigenvalues --   -0.99873  -0.99526  -0.98760  -0.97862  -0.96872
 Alpha  occ. eigenvalues --   -0.87483  -0.83269  -0.82729  -0.82609  -0.81834
 Alpha  occ. eigenvalues --   -0.81325  -0.80456  -0.78625  -0.77934  -0.76974
 Alpha  occ. eigenvalues --   -0.76708  -0.75299  -0.74872  -0.72882  -0.71825
 Alpha  occ. eigenvalues --   -0.71136  -0.70509  -0.69646  -0.67555  -0.65775
 Alpha  occ. eigenvalues --   -0.64490  -0.63123  -0.62435  -0.61503  -0.59673
 Alpha  occ. eigenvalues --   -0.59498  -0.59211  -0.58908  -0.56071  -0.54492
 Alpha  occ. eigenvalues --   -0.54174  -0.53716  -0.53262  -0.52247  -0.51836
 Alpha  occ. eigenvalues --   -0.50770  -0.50113  -0.49463  -0.48920  -0.48397
 Alpha  occ. eigenvalues --   -0.47829  -0.47260  -0.47097  -0.47016  -0.46587
 Alpha  occ. eigenvalues --   -0.46506  -0.45659  -0.45405  -0.44958  -0.44792
 Alpha  occ. eigenvalues --   -0.44345  -0.44200  -0.43997  -0.43600  -0.43440
 Alpha  occ. eigenvalues --   -0.43039  -0.42808  -0.42601  -0.42415  -0.41892
 Alpha  occ. eigenvalues --   -0.41429  -0.41179  -0.40987  -0.40775  -0.40426
 Alpha  occ. eigenvalues --   -0.40174  -0.40071  -0.39917  -0.39583  -0.39041
 Alpha  occ. eigenvalues --   -0.38783  -0.38574  -0.38540  -0.38179  -0.37762
 Alpha  occ. eigenvalues --   -0.37663  -0.37347  -0.36446  -0.36249  -0.35994
 Alpha  occ. eigenvalues --   -0.35635  -0.35171  -0.34804  -0.34599  -0.33820
 Alpha  occ. eigenvalues --   -0.33221  -0.32833  -0.31912  -0.31588  -0.31471
 Alpha  occ. eigenvalues --   -0.30517  -0.29529  -0.28779  -0.27563  -0.26661
 Alpha  occ. eigenvalues --   -0.25633  -0.25205  -0.25016  -0.24887  -0.20609
 Alpha  occ. eigenvalues --   -0.18704
 Alpha virt. eigenvalues --   -0.11082  -0.04877  -0.03511  -0.02028   0.00617
 Alpha virt. eigenvalues --    0.00842   0.01441   0.01929   0.03065   0.04197
 Alpha virt. eigenvalues --    0.04444   0.05157   0.05913   0.06674   0.06931

 Mulliken charges:
               1
     1  Mg  12.000077
     2  C    6.017877
     3  C    5.985729
     4  C    5.982611
     5  C    5.996515
     6  N    7.004937
     7  C    5.973654
     8  C    6.011745
     9  C    5.994397
    10  C    6.026287
    11  C    5.998237
    12  C    6.003793
    13  C    6.002062
    14  H    0.993503
    15  N    6.996254
    16  C    6.039651
    17  C    6.029986
    18  C    6.005828
    19  C    6.032604
    20  C    5.994389
    21  C    6.011864
    22  O    8.024616
    23  C    5.995826
    24  N    6.991010
    25  C    6.038731
    26  C    5.985770
    27  C    6.012958
    28  C    5.966934
    29  C    6.001077
    30  C    6.003837
    31  C    6.001420
    32  N    7.002612
    33  C    5.975471
    34  C    5.971851
    35  C    5.996091
    36  C    5.973361
    37  C    6.001842
    38  C    5.985778
    39  O    7.972210
    40  C    5.995448
    41  C    5.999037
    42  O    7.989462
    43  O    8.001359
    44  C    6.002091
    45  H    1.009807
    46  H    1.007949
    47  H    0.987303
    48  H    0.996325
    49  H    1.000578
    50  H    0.996231
    51  H    0.999078
    52  H    1.011786
    53  H    0.991258
    54  H    0.999583
    55  H    1.005169
    56  H    1.000312
    57  H    1.020313
    58  H    1.019622
    59  H    1.021047
    60  H    1.003355
    61  H    1.013300
    62  H    1.006448
    63  H    0.999704
    64  H    0.999551
    65  H    0.999754
    66  H    0.997065
    67  H    1.009958
    68  H    0.988062
    69  H    1.001512
    70  H    1.000781
    71  H    0.991635
    72  H    1.001645
    73  H    0.982514
    74  H    0.983264
    75  H    0.984269
    76  H    0.991771
    77  H    0.997059
    78  H    0.997226
    79  H    0.993975
 Sum of Mulliken charges = 312.00000

 Dipole moment (field-independent basis, Debye):
    X=              7.3815    Y=             -7.0596    Z=              0.0931  Tot=             10.2144
 Quadrupole moment (field-independent basis, Debye-Ang):
   XX=              8.4622   YY=             -1.1008   ZZ=             -0.4868
   XY=             -7.2438   XZ=             -0.1142   YZ=              1.8192

 Normal termination of Gaussian 16 at Wed Oct 13 18:58:31 2021.
