 Gaussian 16, Revision A.03,
 Gaussian 16:  ES64L-G16RevA.03 25-Dec-2016

 --------------------------------------------------------
 #p PBE1PBE/Def2SVP td=(nstates=5) density=(transition=1)
 --------------------------------------------------------

 --------------------------------
 TDDFT excited states in gaussian
 --------------------------------
 Symbolic Z-matrix:
 Charge =  0 Multiplicity = 1

                         Standard orientation:
 ---------------------------------------------------------------------
 Center     Atomic      Atomic             Coordinates (Angstroms)
 Number     Number       Type             X           Y           Z
 ---------------------------------------------------------------------
      1         12           0      -14.108955    0.631211    0.152660
      2          6           0      -12.784737   -2.115323   -1.584599
      3          6           0      -16.309122   -1.328564    1.714729
      4          6           0      -15.249575    3.293033    1.597413
      5          6           0      -12.429849    2.674267   -2.316186
      6          7           0      -14.530287   -1.472733   -0.042747
      7          6           0      -13.810132   -2.430361   -0.640356
      8          6           0      -14.425967   -3.793941   -0.460830
      9          6           0      -15.791710   -3.456699    0.261511
     10          6           0      -15.541848   -2.022893    0.687378
     11          6           0      -17.121727   -3.628914   -0.541577
     12          6           0      -13.508130   -4.706750    0.502386
     13          6           0      -13.249220   -6.141976   -0.062274
     14          1           0      -12.083972   -6.909124    0.768429
     15          7           0      -15.364240    0.898254    1.612843
     16          6           0      -16.188898   -0.049252    2.195022
     17          6           0      -16.775934    0.521971    3.375765
     18          6           0      -16.471197    1.943220    3.437504
     19          6           0      -15.555750    2.114087    2.244981
     20          6           0      -17.727125   -0.353632    4.241151
     21          6           0      -16.823382    3.097332    4.369119
     22          8           0      -16.382295    4.259054    4.305051
     23          6           0      -17.700505    2.675241    5.494204
     24          7           0      -13.954373    2.642629   -0.449406
     25          6           0      -14.570441    3.533650    0.394266
     26          6           0      -14.462881    4.960783   -0.144155
     27          6           0      -13.323146    4.808054   -1.185346
     28          6           0      -13.253527    3.294024   -1.394081
     29          6           0      -15.878740    5.460849   -0.636522
     30          6           0      -11.917367    5.422126   -0.776360
     31          6           0      -10.968629    5.803687   -1.923926
     32          7           0      -12.823589    0.385993   -1.584564
     33          6           0      -12.258695    1.294472   -2.427513
     34          6           0      -11.364169    0.652673   -3.364644
     35          6           0      -11.506995   -0.697278   -2.994976
     36          6           0      -12.444498   -0.821309   -1.959643
     37          6           0      -10.463440    1.213556   -4.489050
     38          6           0      -11.026949   -2.015552   -3.302679
     39          8           0      -10.123691   -2.429651   -3.981086
     40          6           0      -11.994979   -3.014880   -2.480542
     41          6           0      -11.016511   -3.971493   -1.956551
     42          8           0      -10.286513   -3.879323   -0.937406
     43          8           0      -11.041418   -5.000720   -2.820800
     44          6           0      -10.129117   -6.121635   -2.589911
     45          1           0      -16.969836   -1.974569    2.296864
     46          1           0      -15.571529    4.191922    2.127691
     47          1           0      -11.872157    3.344088   -2.974041
     48          1           0      -14.558588   -4.368034   -1.378272
     49          1           0      -15.979030   -3.979364    1.199696
     50          1           0      -17.525243   -2.634089   -0.730176
     51          1           0      -17.784101   -4.180386    0.125457
     52          1           0      -17.085932   -4.120603   -1.513088
     53          1           0      -13.845225   -4.796947    1.535695
     54          1           0      -12.588606   -4.144108    0.664049
     55          1           0      -12.945515   -6.092562   -1.107739
     56          1           0      -14.088850   -6.831714    0.020219
     57          1           0      -17.124136   -0.855455    4.996654
     58          1           0      -18.097266   -1.240139    3.724709
     59          1           0      -18.664669    0.100034    4.561703
     60          1           0      -17.266031    1.922834    6.151446
     61          1           0      -18.594988    2.339792    4.967930
     62          1           0      -18.030022    3.500281    6.126365
     63          1           0      -14.164026    5.566353    0.711558
     64          1           0      -13.600153    5.333964   -2.098967
     65          1           0      -15.908706    5.494313   -1.725523
     66          1           0      -16.219569    6.449936   -0.331608
     67          1           0      -16.727586    4.807927   -0.432338
     68          1           0      -11.421306    4.578727   -0.295281
     69          1           0      -11.917211    6.277846   -0.100853
     70          1           0      -10.072422    5.182121   -1.939930
     71          1           0      -10.597459    6.826671   -1.989157
     72          1           0      -11.494242    5.521331   -2.835046
     73          1           0      -10.915810    2.160562   -4.783407
     74          1           0      -10.414155    0.524666   -5.333357
     75          1           0       -9.488431    1.394481   -4.036708
     76          1           0      -12.647846   -3.544161   -3.174832
     77          1           0      -10.717499   -6.988935   -2.290928
     78          1           0       -9.309799   -5.856352   -1.922595
     79          1           0       -9.699924   -6.412192   -3.548721
     80         12           0       14.064914    0.613947   -0.038951
     81          6           0       11.849864   -2.045325    0.627412
     82          6           0       16.623784   -1.702952    0.130717
     83          6           0       16.338430    3.107221   -0.557895
     84          6           0       11.526382    2.801373    0.161782
     85          7           0       14.213600   -1.654804    0.306761
     86          6           0       13.175627   -2.571512    0.422776
     87          6           0       13.703703   -3.986894    0.301963
     88          6           0       15.252998   -3.821316    0.510331
     89          6           0       15.362101   -2.329459    0.288535
     90          6           0       15.820713   -4.353707    1.884200
     91          6           0       13.428055   -4.621005   -1.069561
     92          6           0       13.102781   -6.118378   -1.048587
     93          1           0       14.235567   -7.117865   -0.684044
     94          7           0       16.163647    0.691079   -0.281875
     95          6           0       16.972967   -0.381830   -0.125794
     96          6           0       18.328510    0.054830   -0.213710
     97          6           0       18.342377    1.449342   -0.563254
     98          6           0       16.940745    1.803182   -0.424326
     99          6           0       19.485990   -0.884463   -0.017359
    100          6           0       19.489989    2.419603   -0.843967
    101          8           0       19.285056    3.566911   -1.298099
    102          6           0       20.942320    2.089385   -0.518763
    103          7           0       13.934696    2.625105   -0.265451
    104          6           0       15.007893    3.500242   -0.403241
    105          6           0       14.494378    4.903497   -0.402424
    106          6           0       12.931430    4.886882   -0.243748
    107          6           0       12.736915    3.364825   -0.150493
    108          6           0       15.252490    5.873922    0.552589
    109          6           0       12.136085    5.505897   -1.413534
    110          6           0       11.728073    6.972050   -1.171920
    111          7           0       12.130681    0.487522    0.353105
    112          6           0       11.128688    1.456915    0.350712
    113          6           0        9.753942    0.872912    0.571610
    114          6           0       10.062828   -0.489893    0.711213
    115          6           0       11.468800   -0.684555    0.522032
    116          6           0        8.439193    1.629797    0.620137
    117          6           0        9.426321   -1.776081    0.951937
    118          8           0        8.250296   -2.066570    1.174719
    119          6           0       10.587798   -2.844261    0.777676
    120          6           0       10.524830   -3.720373    2.044265
    121          8           0       10.322312   -3.336524    3.177767
    122          8           0       10.571138   -5.059094    1.659928
    123          6           0       10.510794   -5.981281    2.794113
    124          1           0       17.398781   -2.471769    0.111403
    125          1           0       16.973451    3.978061   -0.732213
    126          1           0       10.784164    3.583294    0.333463
    127          1           0       13.340107   -4.673963    1.065658
    128          1           0       15.869056   -4.350292   -0.216876
    129          1           0       15.106125   -4.883705    2.514593
    130          1           0       16.219458   -3.606265    2.569665
    131          1           0       16.604289   -5.092651    1.716568
    132          1           0       14.269881   -4.481248   -1.747329
    133          1           0       12.549689   -4.170980   -1.532649
    134          1           0       12.642469   -6.447701   -1.980021
    135          1           0       12.298463   -6.337935   -0.346778
    136          1           0       19.209512   -1.384127    0.911199
    137          1           0       20.470177   -0.448483    0.153493
    138          1           0       19.595981   -1.643347   -0.791682
    139          1           0       21.037671    1.722573    0.503358
    140          1           0       21.430681    3.051585   -0.672267
    141          1           0       21.323566    1.306522   -1.174401
    142          1           0       14.815881    5.350929   -1.343416
    143          1           0       12.555785    5.306175    0.690516
    144          1           0       15.995052    5.289588    1.096400
    145          1           0       14.543152    6.284803    1.270504
    146          1           0       15.715205    6.596043   -0.120951
    147          1           0       11.317937    4.823982   -1.644261
    148          1           0       12.762903    5.602536   -2.300291
    149          1           0       12.404482    7.428661   -0.449103
    150          1           0       10.750885    7.138888   -0.718362
    151          1           0       11.847822    7.512000   -2.111651
    152          1           0        8.207758    1.936902   -0.399929
    153          1           0        8.440694    2.539355    1.220479
    154          1           0        7.702909    0.914956    0.987201
    155          1           0       10.510860   -3.486564   -0.099407
    156          1           0       11.479054   -6.250137    3.217431
    157          1           0        9.988672   -6.849568    2.392400
    158          1           0        9.974771   -5.682241    3.694850
 ---------------------------------------------------------------------

 SCF Done:  E(RPBE1PBE) =  -4067.40068852     A.U. after   16 cycles

 Excitation energies and oscillator strengths:

 Excited State   1:      Singlet-A      1.8490 eV  670.53 nm  f=0.4036  <S**2>=0.000
     310 -> 316       -0.18063
     312 -> 313        0.68999
     312 <- 313       -0.10426
 This state for optimization and/or second-order correction.
 Total Energy, E(TD-HF/TD-DFT) =  -4067.33273741
 Copying the excited state density for this state as the 1-particle RhoCI density.

 Excited State   2:      Singlet-A      1.8756 eV  661.05 nm  f=0.3391  <S**2>=0.000
     309 -> 315        0.18935
     311 -> 314        0.68659

 Excited State   3:      Singlet-A      1.9632 eV  631.54 nm  f=0.0000  <S**2>=0.000
     312 -> 314        0.70710

 Excited State   4:      Singlet-A      1.9765 eV  627.31 nm  f=0.0000  <S**2>=0.000
     311 -> 313        0.70710

 Excited State   5:      Singlet-A      2.2266 eV  556.84 nm  f=0.0944  <S**2>=0.000
     310 -> 313        0.64889
     312 -> 316        0.27354

 The electronic state is 1-A.
 Alpha  occ. eigenvalues --  -46.91007 -46.90925 -19.26329 -19.25439 -19.20538
 Alpha  occ. eigenvalues --  -19.19757 -19.19288 -19.19277 -19.19224 -19.18606
 Alpha  occ. eigenvalues --  -14.42003 -14.41966 -14.41224 -14.40900 -14.39526
 Alpha  occ. eigenvalues --  -14.39058 -14.39003 -14.38030 -10.36630 -10.35480
 Alpha  occ. eigenvalues --  -10.32972 -10.32839 -10.32197 -10.31772 -10.29381
 Alpha  occ. eigenvalues --  -10.29233 -10.28923 -10.28630 -10.28427 -10.28392
 Alpha  occ. eigenvalues --  -10.28302 -10.28160 -10.28159 -10.28147 -10.28129
 Alpha  occ. eigenvalues --  -10.28093 -10.28011 -10.27661 -10.27544 -10.27011
 Alpha  occ. eigenvalues --  -10.27004 -10.26963 -10.26892 -10.26555 -10.26533
 Alpha  occ. eigenvalues --  -10.26509 -10.26392 -10.26333 -10.26158 -10.26119
 Alpha  occ. eigenvalues --  -10.26112 -10.26078 -10.26070 -10.25697 -10.25604
 Alpha  occ. eigenvalues --  -10.25547 -10.25515 -10.25488 -10.25444 -10.25137
 Alpha  occ. eigenvalues --  -10.25052 -10.24997 -10.24978 -10.24910 -10.24863
 Alpha  occ. eigenvalues --  -10.24438 -10.24381 -10.24257 -10.24066 -10.24045
 Alpha  occ. eigenvalues --  -10.23985 -10.23960 -10.23923 -10.23879 -10.23851
 Alpha  occ. eigenvalues --  -10.23716 -10.23675 -10.23557 -10.23435 -10.23433
 Alpha  occ. eigenvalues --  -10.23324 -10.23205 -10.23110 -10.22972 -10.22777
 Alpha  occ. eigenvalues --  -10.22169  -3.13363  -3.13339  -1.86204  -1.86167
 Alpha  occ. eigenvalues --   -1.85726  -1.85715  -1.85631  -1.85579  -1.10971
 Alpha  occ. eigenvalues --   -1.10631  -1.05495  -1.03969  -1.03923  -1.03485
 Alpha  occ. eigenvalues --   -1.02919  -1.00238  -0.99786  -0.99191  -0.98926
 Alpha  occ. eigenvalues --   -0.98211  -0.98175  -0.97742  -0.96976  -0.96032
 Alpha  occ. eigenvalues --   -0.87038  -0.86865  -0.83611  -0.83365  -0.83254
 Alpha  occ. eigenvalues --   -0.82522  -0.82470  -0.82296  -0.81756  -0.81732
 Alpha  occ. eigenvalues --   -0.81155  -0.81111  -0.80559  -0.80429  -0.78751
 Alpha  occ. eigenvalues --   -0.78577  -0.78056  -0.77828  -0.76632  -0.76512
 Alpha  occ. eigenvalues --   -0.76400  -0.75783  -0.75566  -0.75189  -0.74563
 Alpha  occ. eigenvalues --   -0.74323  -0.72633  -0.72401  -0.71728  -0.71576
 Alpha  occ. eigenvalues --   -0.71498  -0.71146  -0.70393  -0.70172  -0.69677
 Alpha  occ. eigenvalues --   -0.69345  -0.67186  -0.67089  -0.66536  -0.66010
 Alpha  occ. eigenvalues --   -0.63646  -0.63536  -0.63196  -0.63144  -0.62575
 Alpha  occ. eigenvalues --   -0.62241  -0.61610  -0.61560  -0.60416  -0.60111
 Alpha  occ. eigenvalues --   -0.59946  -0.59862  -0.59371  -0.58950  -0.58942
 Alpha  occ. eigenvalues --   -0.58703  -0.57076  -0.56283  -0.54830  -0.54719
 Alpha  occ. eigenvalues --   -0.54563  -0.54314  -0.53699  -0.53445  -0.53202
 Alpha  occ. eigenvalues --   -0.53096  -0.52566  -0.52209  -0.51964  -0.51492
 Alpha  occ. eigenvalues --   -0.50847  -0.50559  -0.50327  -0.49983  -0.49948
 Alpha  occ. eigenvalues --   -0.49660  -0.48983  -0.48813  -0.48430  -0.48314
 Alpha  occ. eigenvalues --   -0.48024  -0.47870  -0.47635  -0.47608  -0.47422
 Alpha  occ. eigenvalues --   -0.47394  -0.47089  -0.47030  -0.46708  -0.46627
 Alpha  occ. eigenvalues --   -0.46358  -0.46168  -0.46144  -0.45892  -0.45736
 Alpha  occ. eigenvalues --   -0.45524  -0.45166  -0.45058  -0.44972  -0.44705
 Alpha  occ. eigenvalues --   -0.44565  -0.44515  -0.44513  -0.44340  -0.43961
 Alpha  occ. eigenvalues --   -0.43933  -0.43659  -0.43629  -0.43449  -0.43446
 Alpha  occ. eigenvalues --   -0.43082  -0.43013  -0.42732  -0.42647  -0.42644
 Alpha  occ. eigenvalues --   -0.42578  -0.42130  -0.42061  -0.42041  -0.41904
 Alpha  occ. eigenvalues --   -0.41529  -0.41431  -0.41315  -0.41170  -0.41142
 Alpha  occ. eigenvalues --   -0.41039  -0.40917  -0.40565  -0.40541  -0.40417
 Alpha  occ. eigenvalues --   -0.40207  -0.40182  -0.39882  -0.39666  -0.39583
 Alpha  occ. eigenvalues --   -0.39341  -0.39230  -0.39121  -0.38968  -0.38853
 Alpha  occ. eigenvalues --   -0.38518  -0.38333  -0.38327  -0.38243  -0.38222
 Alpha  occ. eigenvalues --   -0.37888  -0.37871  -0.37861  -0.37644  -0.37596
 Alpha  occ. eigenvalues --   -0.37410  -0.37362  -0.37090  -0.36974  -0.36800
 Alpha  occ. eigenvalues --   -0.36695  -0.36626  -0.36496  -0.36348  -0.36170
 Alpha  occ. eigenvalues --   -0.36008  -0.35941  -0.35825  -0.35633  -0.35459
 Alpha  occ. eigenvalues --   -0.35389  -0.35138  -0.35113  -0.34602  -0.34454
 Alpha  occ. eigenvalues --   -0.33638  -0.33618  -0.33261  -0.32872  -0.32767
 Alpha  occ. eigenvalues --   -0.32376  -0.32157  -0.31954  -0.31789  -0.31604
 Alpha  occ. eigenvalues --   -0.30400  -0.30286  -0.30286  -0.29786  -0.29392
 Alpha  occ. eigenvalues --   -0.29117  -0.28373  -0.27794  -0.26919  -0.26636
 Alpha  occ. eigenvalues --   -0.26347  -0.26250  -0.26004  -0.25907  -0.25713
 Alpha  occ. eigenvalues --   -0.25504  -0.25468  -0.25143  -0.21046  -0.20792
 Alpha  occ. eigenvalues --   -0.18727  -0.18633
 Alpha virt. eigenvalues --   -0.10995  -0.10943  -0.05680  -0.05181  -0.04406
 Alpha virt. eigenvalues --   -0.04162  -0.02567  -0.01884   0.00241   0.00378
 Alpha virt. eigenvalues --    0.00581   0.00913   0.01021   0.01398   0.01566

 Mulliken charges:
               1
     1  Mg  11.999749
     2  C    6.000942
     3  C    5.999299
     4  C    5.999456
     5  C    6.000860
     6  N    7.000283
     7  C    5.997847
     8  C    6.000795
     9  C    5.999472
    10  C    6.002173
    11  C    5.999874
    12  C    6.000149
    13  C    6.000140
    14  H    0.999583
    15  N    6.999694
    16  C    6.002040
    17  C    6.001332
    18  C    6.001339
    19  C    6.001228
    20  C    5.999794
    21  C    6.000924
    22  O    8.002034
    23  C    5.999611
    24  N    7.000285
    25  C    6.001507
    26  C    5.999594
    27  C    6.000506
    28  C    5.997991
    29  C    5.999637
    30  C    6.000193
    31  C    6.000069
    32  N    7.000161
    33  C    5.997827
    34  C    5.998061
    35  C    5.999876
    36  C    5.998083
    37  C    5.999840
    38  C    5.998888
    39  O    7.997964
    40  C    5.999847
    41  C    5.999854
    42  O    7.999203
    43  O    8.000101
    44  C    6.000192
    45  H    1.000644
    46  H    1.000447
    47  H    0.999370
    48  H    0.999982
    49  H    0.999945
    50  H    1.000051
    51  H    1.000218
    52  H    1.000910
    53  H    0.999270
    54  H    0.999995
    55  H    1.000274
    56  H    0.999852
    57  H    1.001157
    58  H    1.001210
    59  H    1.001149
    60  H    1.000544
    61  H    1.000494
    62  H    1.001089
    63  H    0.999848
    64  H    0.999873
    65  H    1.000835
    66  H    1.000263
    67  H    0.999793
    68  H    0.999730
    69  H    0.999297
    70  H    0.999858
    71  H    0.999655
    72  H    1.000318
    73  H    0.999179
    74  H    0.999190
    75  H    0.998521
    76  H    0.999659
    77  H    0.999778
    78  H    0.999514
    79  H    0.999796
    80  Mg  11.999501
    81  C    5.982800
    82  C    6.010267
    83  C    6.017303
    84  C    5.990889
    85  N    6.993728
    86  C    6.031686
    87  C    5.990632
    88  C    6.010360
    89  C    5.968291
    90  C    6.003026
    91  C    5.996901
    92  C    5.998738
    93  H    1.009263
    94  N    7.003701
    95  C    5.965495
    96  C    5.975557
    97  C    5.986846
    98  C    5.971443
    99  C    6.002133
   100  C    5.988887
   101  O    7.973586
   102  C    6.003263
   103  N    7.005892
   104  C    5.967820
   105  C    6.008808
   106  C    5.988808
   107  C    6.030442
   108  C    6.001918
   109  C    5.996294
   110  C    5.999960
   111  N    7.000382
   112  C    6.033986
   113  C    6.032246
   114  C    5.999098
   115  C    6.029064
   116  C    6.000637
   117  C    6.016461
   118  O    8.029020
   119  C    6.000130
   120  C    6.006314
   121  O    8.002146
   122  O    8.002315
   123  C    5.997671
   124  H    0.990412
   125  H    0.993833
   126  H    1.009290
   127  H    1.000445
   128  H    0.999176
   129  H    0.986929
   130  H    1.000967
   131  H    0.997791
   132  H    1.011440
   133  H    0.993527
   134  H    1.000446
   135  H    0.996137
   136  H    0.984627
   137  H    0.985066
   138  H    0.979385
   139  H    0.993470
   140  H    0.987428
   141  H    0.992571
   142  H    0.999044
   143  H    1.001294
   144  H    1.004856
   145  H    0.989771
   146  H    0.998640
   147  H    0.994397
   148  H    1.009861
   149  H    1.005886
   150  H    0.998369
   151  H    1.004142
   152  H    1.017826
   153  H    1.017658
   154  H    1.011494
   155  H    1.007874
   156  H    1.006985
   157  H    1.003545
   158  H    1.001707
 Sum of Mulliken charges = 624.00000

 Dipole moment (field-independent basis, Debye):
    X=            -10.6092    Y=             -0.4813    Z=              1.5278  Tot=             10.7295
 Quadrupole moment (field-independent basis, Debye-Ang):
   XX=           -273.9540   YY=              2.4591   ZZ=              0.8613
   XY=            -15.0766   XZ=              5.7205   YZ=              0.5561

 Normal termination of Gaussian 16 at Thu Oct 14 19:48:30 2021.
