 Gaussian 16, Revision A.03,
 Gaussian 16:  ES64L-G16RevA.03 25-Dec-2016

 ---------------------------------------------------------
 #p PBE1PBE/Def2SVP td=(nstates=5, root=1) density=current
 ---------------------------------------------------------

 --------------------------------
 TDDFT excited states in gaussian
 --------------------------------
 Symbolic Z-matrix:
 Charge =  0 Multiplicity = 1

                         Standard orientation:
 ---------------------------------------------------------------------
 Center     Atomic      Atomic             Coordinates (Angstroms)
 Number     Number       Type             X           Y           Z
 ---------------------------------------------------------------------
      1         12           0       -0.729001   -0.036937    0.216630
      2          6           0        2.768552    0.211233   -0.202608
      3          6           0       -0.516530   -3.433356   -0.095389
      4          6           0       -4.013512   -0.103524   -0.062018
      5          6           0       -0.872536    3.503174    0.035344
      6          7           0        0.981945   -1.438120    0.001525
      7          6           0        2.250479   -1.103647   -0.129320
      8          6           0        3.095114   -2.345343    0.092447
      9          6           0        2.122053   -3.519167   -0.311365
     10          6           0        0.747316   -2.771660   -0.139581
     11          6           0        2.468592   -4.087763   -1.739777
     12          6           0        3.516826   -2.520363    1.573998
     13          6           0        4.778990   -3.456899    1.826480
     14          1           0        5.503688   -4.166374    0.679477
     15          7           0       -2.060273   -1.539569    0.166675
     16          6           0       -1.815299   -2.935772    0.114353
     17          6           0       -3.118706   -3.637199    0.179483
     18          6           0       -4.155836   -2.639423    0.104462
     19          6           0       -3.469111   -1.330010    0.066508
     20          6           0       -3.260027   -5.113741    0.297657
     21          6           0       -5.731593   -2.728119    0.097699
     22          8           0       -6.482640   -1.743541    0.121369
     23          6           0       -6.366730   -4.075833   -0.086709
     24          7           0       -2.252122    1.501485   -0.102784
     25          6           0       -3.527650    1.219531   -0.128933
     26          6           0       -4.445435    2.406134   -0.222502
     27          6           0       -3.433202    3.604972   -0.200694
     28          6           0       -2.085102    2.846907    0.016371
     29          6           0       -5.417817    2.282597   -1.399243
     30          6           0       -3.676000    4.624464    0.905121
     31          6           0       -3.479113    6.136081    0.526360
     32          7           0        0.644379    1.633640    0.038695
     33          6           0        0.421796    3.024537    0.023961
     34          6           0        1.678518    3.687958    0.087789
     35          6           0        2.645466    2.665984   -0.175611
     36          6           0        1.987485    1.462544   -0.146183
     37          6           0        1.887917    5.139424    0.411582
     38          6           0        4.069481    2.271861   -0.299270
     39          8           0        5.069841    2.958345   -0.321157
     40          6           0        4.117782    0.694280   -0.576199
     41          6           0        5.369816    0.098583   -0.020634
     42          8           0        5.707606    0.086219    1.126280
     43          8           0        6.203044   -0.388411   -1.045045
     44          6           0        7.658629   -0.344353   -0.790532
     45          1           0       -0.550544   -4.487893   -0.378415
     46          1           0       -5.099863   -0.011542   -0.010805
     47          1           0       -0.950112    4.592237    0.058275
     48          1           0        3.996483   -2.129572   -0.481109
     49          1           0        2.174223   -4.345521    0.398319
     50          1           0        3.306024   -3.540162   -2.170848
     51          1           0        1.612272   -3.788431   -2.344148
     52          1           0        2.742821   -5.142630   -1.757386
     53          1           0        2.645666   -2.976010    2.046480
     54          1           0        3.674405   -1.521628    1.981023
     55          1           0        4.425156   -4.199951    2.542785
     56          1           0        5.484210   -2.826988    2.369223
     57          1           0       -2.378488   -5.716464    0.513108
     58          1           0       -3.628234   -5.569055   -0.621272
     59          1           0       -3.944764   -5.239392    1.136745
     60          1           0       -6.517172   -4.627094    0.841382
     61          1           0       -5.633232   -4.522440   -0.759120
     62          1           0       -7.299814   -3.895337   -0.619740
     63          1           0       -4.985601    2.342266    0.721995
     64          1           0       -3.391541    4.165928   -1.133530
     65          1           0       -5.053141    1.650347   -2.209380
     66          1           0       -5.504036    3.290756   -1.802633
     67          1           0       -6.395214    1.903570   -1.099877
     68          1           0       -3.022219    4.442110    1.757841
     69          1           0       -4.649519    4.345044    1.307689
     70          1           0       -3.050731    6.245524   -0.469794
     71          1           0       -2.759603    6.504795    1.257126
     72          1           0       -4.338486    6.805943    0.570454
     73          1           0        1.191958    5.671932   -0.236807
     74          1           0        2.894239    5.508614    0.212966
     75          1           0        1.583233    5.337933    1.439628
     76          1           0        4.276811    0.536619   -1.642469
     77          1           0        8.022203   -1.371639   -0.761938
     78          1           0        7.902558    0.184938    0.131240
     79          1           0        8.080393    0.185313   -1.644701
 ---------------------------------------------------------------------

 SCF Done:  E(RPBE1PBE) =  -2033.67676376     A.U. after   16 cycles

 Excitation energies and oscillator strengths:

 Excited State   1:      Singlet-A      1.8894 eV  656.20 nm  f=0.3608  <S**2>=0.000
     155 ->158        -0.18738
     156 ->157         0.68566
 This state for optimization and/or second-order correction.
 Total Energy, E(TD-HF/TD-DFT) =  -2033.60732842
 Copying the excited state density for this state as the 1-particle RhoCI density.

 Excited State   2:      Singlet-A      2.1350 eV  580.72 nm  f=0.0940  <S**2>=0.000
     155 ->157         0.65946
     156 ->158         0.23136

 Excited State   3:      Singlet-A      2.8428 eV  436.14 nm  f=0.0039  <S**2>=0.000
     154 ->157         0.69006

 Excited State   4:      Singlet-A      3.0928 eV  400.88 nm  f=0.0120  <S**2>=0.000
     152 ->157         0.25225
     153 ->157         0.62110

 Excited State   5:      Singlet-A      3.1666 eV  391.54 nm  f=0.0036  <S**2>=0.000
     150 ->157         0.13513
     151 ->157         0.63421
     151 ->159        -0.20079
     152 ->157         0.10480

 The electronic state is 1-A.
 Alpha  occ. eigenvalues --  -46.91936 -19.24067 -19.20195 -19.19883 -19.18915
 Alpha  occ. eigenvalues --  -14.41480 -14.41136 -14.39310 -14.37914 -10.35695
 Alpha  occ. eigenvalues --  -10.33625 -10.32283 -10.29654 -10.28804 -10.28206
 Alpha  occ. eigenvalues --  -10.28178 -10.28047 -10.28001 -10.27852 -10.27778
 Alpha  occ. eigenvalues --  -10.26504 -10.26275 -10.25949 -10.25939 -10.25858
 Alpha  occ. eigenvalues --  -10.25782 -10.25540 -10.25534 -10.25447 -10.25430
 Alpha  occ. eigenvalues --  -10.25182 -10.25103 -10.24588 -10.23941 -10.23911
 Alpha  occ. eigenvalues --  -10.23831 -10.23670 -10.23479 -10.23396 -10.23331
 Alpha  occ. eigenvalues --  -10.23257 -10.22877 -10.22585  -3.13980  -1.86833
 Alpha  occ. eigenvalues --   -1.86353  -1.86200  -1.10069  -1.04880  -1.04603
 Alpha  occ. eigenvalues --   -1.01964  -0.99706  -0.99130  -0.96681  -0.95295
 Alpha  occ. eigenvalues --   -0.86368  -0.83574  -0.83103  -0.81999  -0.81616
 Alpha  occ. eigenvalues --   -0.81492  -0.80072  -0.78192  -0.78124  -0.76797
 Alpha  occ. eigenvalues --   -0.75934  -0.75068  -0.74229  -0.72730  -0.71520
 Alpha  occ. eigenvalues --   -0.70810  -0.69778  -0.69426  -0.67024  -0.66161
 Alpha  occ. eigenvalues --   -0.64219  -0.63002  -0.61774  -0.60977  -0.60430
 Alpha  occ. eigenvalues --   -0.59601  -0.59066  -0.58070  -0.55744  -0.54525
 Alpha  occ. eigenvalues --   -0.53768  -0.53116  -0.52682  -0.52217  -0.51511
 Alpha  occ. eigenvalues --   -0.50933  -0.50056  -0.49753  -0.48784  -0.47786
 Alpha  occ. eigenvalues --   -0.47749  -0.47674  -0.47392  -0.46790  -0.46633
 Alpha  occ. eigenvalues --   -0.46326  -0.45947  -0.45731  -0.45363  -0.45056
 Alpha  occ. eigenvalues --   -0.44857  -0.44527  -0.44035  -0.43728  -0.42984
 Alpha  occ. eigenvalues --   -0.42961  -0.42684  -0.42483  -0.42175  -0.41964
 Alpha  occ. eigenvalues --   -0.41773  -0.41084  -0.41055  -0.40922  -0.40395
 Alpha  occ. eigenvalues --   -0.40315  -0.39868  -0.39765  -0.39142  -0.38667
 Alpha  occ. eigenvalues --   -0.38541  -0.38042  -0.37973  -0.37532  -0.37407
 Alpha  occ. eigenvalues --   -0.36991  -0.36870  -0.36585  -0.36454  -0.36297
 Alpha  occ. eigenvalues --   -0.36044  -0.35863  -0.35126  -0.34914  -0.33974
 Alpha  occ. eigenvalues --   -0.33668  -0.32761  -0.32538  -0.31469  -0.30829
 Alpha  occ. eigenvalues --   -0.30416  -0.29400  -0.29036  -0.28447  -0.26667
 Alpha  occ. eigenvalues --   -0.26373  -0.25776  -0.25358  -0.24264  -0.20590
 Alpha  occ. eigenvalues --   -0.18895
 Alpha virt. eigenvalues --   -0.11041  -0.05508  -0.04194  -0.01764  -0.00021
 Alpha virt. eigenvalues --    0.00252   0.01324   0.02275   0.03091   0.03471
 Alpha virt. eigenvalues --    0.04389   0.05804   0.06111   0.06853   0.07112

 Mulliken charges:
               1
     1  Mg   0.950042
     2  C    0.036572
     3  C   -0.081500
     4  C   -0.061536
     5  C   -0.088904
     6  N   -0.358874
     7  C    0.055810
     8  C   -0.158640
     9  C   -0.131016
    10  C    0.109441
    11  C    0.027422
    12  C   -0.020024
    13  C   -0.111106
    14  H    0.051211
    15  N   -0.580289
    16  C    0.179158
    17  C   -0.170577
    18  C   -0.089711
    19  C    0.218863
    20  C    0.028297
    21  C    0.077587
    22  O   -0.255926
    23  C   -0.024914
    24  N   -0.351753
    25  C   -0.005729
    26  C   -0.074632
    27  C   -0.137509
    28  C    0.090675
    29  C    0.021884
    30  C   -0.015627
    31  C   -0.073336
    32  N   -0.473154
    33  C    0.158999
    34  C   -0.196485
    35  C   -0.035747
    36  C    0.104834
    37  C    0.071743
    38  C    0.149792
    39  O   -0.209689
    40  C   -0.132876
    41  C    0.247501
    42  O   -0.215655
    43  O   -0.411790
    44  C    0.120699
    45  H    0.007546
    46  H    0.019505
    47  H   -0.011142
    48  H    0.052791
    49  H    0.048720
    50  H    0.042931
    51  H    0.041782
    52  H    0.053576
    53  H    0.036562
    54  H    0.065060
    55  H    0.049230
    56  H    0.070716
    57  H    0.040450
    58  H    0.064726
    59  H    0.064026
    60  H    0.077507
    61  H    0.047883
    62  H    0.061239
    63  H    0.058117
    64  H    0.057392
    65  H    0.055109
    66  H    0.038848
    67  H    0.063883
    68  H    0.040850
    69  H    0.034624
    70  H    0.043169
    71  H    0.045112
    72  H    0.052120
    73  H    0.044698
    74  H    0.063896
    75  H    0.058256
    76  H    0.087660
    77  H    0.056293
    78  H    0.073263
    79  H    0.060074
 Sum of Mulliken charges =  -0.00000

 Dipole moment (field-independent basis, Debye):
    X=             -2.8865    Y=             -2.1995    Z=             -0.5490  Tot=              3.6703
 Quadrupole moment (field-independent basis, Debye-Ang):
   XX=           -271.4645   YY=           -222.8354   ZZ=           -256.0308
   XY=            -21.2325   XZ=             -6.3376   YZ=              0.9506

 Normal termination of Gaussian 16 at Wed Oct 13 13:00:46 2021.
