 Gaussian 16, Revision A.03,
 Gaussian 16:  ES64L-G16RevA.03 25-Dec-2016

 --------------------------------------------------------
 #p PBE1PBE/Def2SVP td=(nstates=5) density=(transition=1)
 --------------------------------------------------------

 --------------------------------
 TDDFT excited states in gaussian
 --------------------------------
 Symbolic Z-matrix:
 Charge =  0 Multiplicity = 1

                         Standard orientation:
 ---------------------------------------------------------------------
 Center     Atomic      Atomic             Coordinates (Angstroms)
 Number     Number       Type             X           Y           Z
 ---------------------------------------------------------------------
      1         12           0      -11.357149    0.200463   -0.574580
      2          6           0       -8.462793   -1.740987   -0.123281
      3          6           0      -13.246925   -2.599255    0.067661
      4          6           0      -13.954939    2.225468   -0.264103
      5          6           0       -9.290552    3.063584   -0.961314
      6          7           0      -10.899580   -1.833117    0.156775
      7          6           0       -9.622319   -2.440012    0.272480
      8          6           0       -9.692263   -3.909258    0.352782
      9          6           0      -11.259195   -4.173640    0.312411
     10          6           0      -11.858362   -2.787880    0.131440
     11          6           0      -11.653447   -5.251526   -0.726215
     12          6           0       -9.173935   -4.492042    1.632088
     13          6           0       -9.454933   -3.698774    2.916972
     14          1           0       -9.749316   -4.427510    4.285720
     15          7           0      -13.374307   -0.114004   -0.187795
     16          6           0      -13.935529   -1.333681   -0.082546
     17          6           0      -15.366489   -1.172177   -0.017480
     18          6           0      -15.617595    0.211933   -0.185508
     19          6           0      -14.298142    0.860356   -0.253652
     20          6           0      -16.369322   -2.269527    0.217919
     21          6           0      -16.997506    0.864315   -0.264567
     22          8           0      -18.011305    0.200137   -0.172145
     23          6           0      -17.310228    2.329412   -0.340902
     24          7           0      -11.569817    2.333441   -0.350474
     25          6           0      -12.791829    2.947999   -0.284425
     26          6           0      -12.674815    4.485134   -0.549035
     27          6           0      -11.136137    4.715067   -0.452923
     28          6           0      -10.626720    3.299688   -0.615407
     29          6           0      -13.217318    4.968550   -1.915677
     30          6           0      -10.582212    5.180633    0.975650
     31          6           0       -9.615809    6.309182    0.985162
     32          7           0       -9.379235    0.614719   -0.657585
     33          6           0       -8.742426    1.743173   -0.998586
     34          6           0       -7.324843    1.431556   -1.420758
     35          6           0       -7.227890    0.034978   -1.123075
     36          6           0       -8.453223   -0.377455   -0.527146
     37          6           0       -6.234388    2.338918   -1.972000
     38          6           0       -6.282600   -1.040798   -1.040345
     39          8           0       -5.090959   -1.074121   -1.303833
     40          6           0       -7.074441   -2.255703   -0.408144
     41          6           0       -6.462686   -2.520283    0.951956
     42          8           0       -6.512002   -1.830553    1.916233
     43          8           0       -5.912286   -3.784124    0.929807
     44          6           0       -5.539391   -4.287793    2.255549
     45          1           0      -13.833835   -3.519888    0.074632
     46          1           0      -14.813802    2.894248   -0.341353
     47          1           0       -8.735483    3.967326   -1.221270
     48          1           0       -9.122414   -4.312408   -0.484376
     49          1           0      -11.724781   -4.436582    1.262194
     50          1           0      -12.309274   -5.876682   -0.120007
     51          1           0      -10.732058   -5.743341   -1.038291
     52          1           0      -12.238514   -4.852092   -1.554857
     53          1           0       -8.138593   -4.829417    1.576845
     54          1           0       -9.594876   -5.462887    1.894486
     55          1           0      -10.288134   -3.043214    2.661496
     56          1           0       -8.573030   -3.061595    2.985246
     57          1           0      -17.103914   -1.974384    0.967896
     58          1           0      -15.851986   -3.195780    0.467661
     59          1           0      -16.866227   -2.382192   -0.745962
     60          1           0      -17.041410    2.912591    0.539272
     61          1           0      -18.399747    2.309983   -0.310959
     62          1           0      -17.088436    2.765852   -1.315362
     63          1           0      -13.236513    4.998421    0.231330
     64          1           0      -10.743822    5.357786   -1.241447
     65          1           0      -12.376487    5.304467   -2.522258
     66          1           0      -14.083000    5.620524   -1.800099
     67          1           0      -13.633848    4.111485   -2.443656
     68          1           0      -10.157638    4.339850    1.523730
     69          1           0      -11.480921    5.480935    1.514661
     70          1           0       -9.935510    7.138977    1.615166
     71          1           0       -9.383820    6.692423   -0.008789
     72          1           0       -8.655292    6.015080    1.407395
     73          1           0       -5.395255    2.264987   -1.280250
     74          1           0       -6.681638    3.314451   -2.166740
     75          1           0       -5.892861    1.856969   -2.887981
     76          1           0       -7.048529   -3.141567   -1.042315
     77          1           0       -6.166515   -3.891582    3.054075
     78          1           0       -4.511090   -3.946254    2.374486
     79          1           0       -5.469663   -5.370115    2.150265
     80         12           0       10.631088    0.683936   -0.307940
     81          6           0       10.938885   -2.680788    0.081544
     82          6           0        7.223460    0.395200    0.593833
     83          6           0       10.625283    3.958248    0.350114
     84          6           0       14.213696    0.945380   -0.681015
     85          7           0        9.303110   -0.953414    0.227904
     86          6           0        9.569714   -2.211724    0.347486
     87          6           0        8.288338   -3.107293    0.492950
     88          6           0        7.082494   -2.101124    0.359778
     89          6           0        7.879669   -0.751401    0.355545
     90          6           0        6.076102   -2.389415   -0.755076
     91          6           0        8.314814   -4.009664    1.864787
     92          6           0        9.177924   -3.545638    3.026889
     93          1           0        8.919951   -4.062983    4.442047
     94          7           0        9.122685    1.983902    0.387129
     95          6           0        7.798456    1.709716    0.631322
     96          6           0        7.152373    2.867322    1.076198
     97          6           0        8.120967    3.943941    1.063339
     98          6           0        9.391390    3.311992    0.619586
     99          6           0        5.651145    2.884733    1.298507
    100          6           0        7.804848    5.396348    1.463838
    101          8           0        6.635977    5.659748    1.825446
    102          6           0        8.736949    6.486593    1.463291
    103          7           0       12.274091    2.259725   -0.023620
    104          6           0       11.898853    3.505491    0.043567
    105          6           0       13.076062    4.505988   -0.135206
    106          6           0       14.225842    3.549428   -0.519884
    107          6           0       13.583442    2.105774   -0.439704
    108          6           0       12.854628    5.540369   -1.179107
    109          6           0       15.520586    3.730418    0.404422
    110          6           0       16.798847    4.347897   -0.298341
    111          7           0       12.279385   -0.548449   -0.426644
    112          6           0       13.653456   -0.350421   -0.611335
    113          6           0       14.323611   -1.686607   -0.673609
    114          6           0       13.290332   -2.582395   -0.364092
    115          6           0       12.073741   -1.858755   -0.187622
    116          6           0       15.717916   -2.003310   -0.918008
    117          6           0       13.081650   -3.937621   -0.131550
    118          8           0       13.812451   -4.938204   -0.173972
    119          6           0       11.547178   -4.084994    0.073789
    120          6           0       11.015149   -5.086743   -0.978507
    121          8           0       10.355869   -6.092798   -0.779134
    122          8           0       11.364686   -4.727559   -2.262294
    123          6           0       10.952857   -5.618347   -3.353688
    124          1           0        6.200292    0.208455    0.926087
    125          1           0       10.652722    5.048865    0.393094
    126          1           0       15.264697    1.030642   -0.964500
    127          1           0        8.230193   -3.701798   -0.419188
    128          1           0        6.500064   -2.033725    1.279180
    129          1           0        6.114965   -1.593306   -1.498327
    130          1           0        5.050616   -2.425958   -0.385635
    131          1           0        6.183030   -3.354076   -1.251239
    132          1           0        8.592198   -4.986374    1.467602
    133          1           0        7.359361   -4.096808    2.382552
    134          1           0        9.047980   -2.463884    3.008331
    135          1           0       10.203632   -3.741812    2.714058
    136          1           0        5.031406    3.604677    0.763362
    137          1           0        5.460137    2.943170    2.370305
    138          1           0        5.242721    1.913394    1.020265
    139          1           0        9.190307    6.768492    0.513141
    140          1           0        9.632602    6.219150    2.023085
    141          1           0        8.372079    7.374756    1.978234
    142          1           0       13.372794    5.120928    0.714341
    143          1           0       14.508203    3.616371   -1.570615
    144          1           0       12.625997    6.536508   -0.800566
    145          1           0       11.932901    5.341877   -1.727197
    146          1           0       13.719832    5.599567   -1.839221
    147          1           0       15.850853    2.738611    0.716171
    148          1           0       15.382276    4.408052    1.245823
    149          1           0       17.226553    5.122305    0.337179
    150          1           0       16.464474    4.884040   -1.186603
    151          1           0       17.507058    3.521639   -0.362989
    152          1           0       16.062624   -1.206488   -1.577477
    153          1           0       15.810801   -2.962791   -1.428062
    154          1           0       16.184651   -2.096058    0.062186
    155          1           0       11.286174   -4.686316    0.944339
    156          1           0       11.630044   -5.465050   -4.194152
    157          1           0        9.965938   -5.472687   -3.792563
    158          1           0       10.900353   -6.669397   -3.068201
 ---------------------------------------------------------------------

 SCF Done:  E(RPBE1PBE) =  -4067.33556399     A.U. after   21 cycles

 Excitation energies and oscillator strengths:

 Excited State   1:      Singlet-A      1.7001 eV  729.30 nm  f=0.0000  <S**2>=0.000
     312 -> 313        0.70709
 This state for optimization and/or second-order correction.
 Total Energy, E(TD-HF/TD-DFT) =  -4067.27308817
 Copying the excited state density for this state as the 1-particle RhoCI density.

 Excited State   2:      Singlet-A      1.8283 eV  678.12 nm  f=0.4420  <S**2>=0.000
     310 -> 316        0.16389
     311 -> 313        0.11608
     312 -> 314        0.68575
     312 <- 314       -0.11310

 Excited State   3:      Singlet-A      1.8540 eV  668.74 nm  f=0.3522  <S**2>=0.000
     309 -> 315       -0.15664
     311 -> 313        0.68740
     312 -> 314       -0.11559
     311 <- 313       -0.12087

 Excited State   4:      Singlet-A      2.0051 eV  618.34 nm  f=0.0000  <S**2>=0.000
     311 -> 314        0.70707

 Excited State   5:      Singlet-A      2.2473 eV  551.71 nm  f=0.1076  <S**2>=0.000
     309 -> 313        0.65186
     311 -> 315        0.24595

 The electronic state is 1-A.
 Alpha  occ. eigenvalues --  -46.93610 -46.91956 -19.25389 -19.25271 -19.20597
 Alpha  occ. eigenvalues --  -19.20217 -19.19369 -19.18924 -19.18417 -19.17761
 Alpha  occ. eigenvalues --  -14.42588 -14.41877 -14.41403 -14.41308 -14.40012
 Alpha  occ. eigenvalues --  -14.39497 -14.39244 -14.39113 -10.36640 -10.36246
 Alpha  occ. eigenvalues --  -10.32145 -10.31719 -10.31554 -10.31491 -10.30439
 Alpha  occ. eigenvalues --  -10.29157 -10.28994 -10.28770 -10.28680 -10.28607
 Alpha  occ. eigenvalues --  -10.28596 -10.28568 -10.28493 -10.28485 -10.28477
 Alpha  occ. eigenvalues --  -10.28427 -10.28345 -10.28060 -10.27734 -10.27580
 Alpha  occ. eigenvalues --  -10.27070 -10.27027 -10.26947 -10.26936 -10.26871
 Alpha  occ. eigenvalues --  -10.26485 -10.26315 -10.26232 -10.26223 -10.26145
 Alpha  occ. eigenvalues --  -10.26122 -10.26021 -10.25932 -10.25916 -10.25789
 Alpha  occ. eigenvalues --  -10.25747 -10.25638 -10.25468 -10.25345 -10.25056
 Alpha  occ. eigenvalues --  -10.24965 -10.24933 -10.24738 -10.24713 -10.24710
 Alpha  occ. eigenvalues --  -10.24676 -10.24656 -10.24438 -10.24280 -10.24115
 Alpha  occ. eigenvalues --  -10.24073 -10.24043 -10.24030 -10.24028 -10.23966
 Alpha  occ. eigenvalues --  -10.23756 -10.23594 -10.23520 -10.23451 -10.22996
 Alpha  occ. eigenvalues --  -10.22980 -10.22907 -10.22894 -10.22771 -10.22759
 Alpha  occ. eigenvalues --  -10.22414  -3.15599  -3.14178  -1.88415  -1.88006
 Alpha  occ. eigenvalues --   -1.87787  -1.86980  -1.86557  -1.86419  -1.12003
 Alpha  occ. eigenvalues --   -1.10759  -1.05110  -1.04713  -1.03790  -1.03505
 Alpha  occ. eigenvalues --   -1.02426  -1.02050  -0.99497  -0.99205  -0.99012
 Alpha  occ. eigenvalues --   -0.98676  -0.98100  -0.97903  -0.97253  -0.97020
 Alpha  occ. eigenvalues --   -0.87537  -0.87138  -0.84140  -0.83921  -0.83723
 Alpha  occ. eigenvalues --   -0.83652  -0.83218  -0.82687  -0.82359  -0.81977
 Alpha  occ. eigenvalues --   -0.81836  -0.80628  -0.80102  -0.79640  -0.78998
 Alpha  occ. eigenvalues --   -0.78905  -0.78445  -0.78346  -0.77107  -0.76991
 Alpha  occ. eigenvalues --   -0.76728  -0.75885  -0.75592  -0.75152  -0.74800
 Alpha  occ. eigenvalues --   -0.74460  -0.72755  -0.72280  -0.71790  -0.71615
 Alpha  occ. eigenvalues --   -0.71125  -0.71121  -0.70558  -0.70354  -0.69598
 Alpha  occ. eigenvalues --   -0.69498  -0.67739  -0.67162  -0.66329  -0.66084
 Alpha  occ. eigenvalues --   -0.63930  -0.63877  -0.63285  -0.63195  -0.63005
 Alpha  occ. eigenvalues --   -0.62642  -0.61516  -0.61278  -0.60333  -0.60278
 Alpha  occ. eigenvalues --   -0.60046  -0.59613  -0.59250  -0.59057  -0.59008
 Alpha  occ. eigenvalues --   -0.58894  -0.57743  -0.56662  -0.55308  -0.54508
 Alpha  occ. eigenvalues --   -0.54481  -0.54068  -0.53514  -0.53487  -0.53408
 Alpha  occ. eigenvalues --   -0.53067  -0.52684  -0.52554  -0.52002  -0.51600
 Alpha  occ. eigenvalues --   -0.51103  -0.50916  -0.50532  -0.50154  -0.49963
 Alpha  occ. eigenvalues --   -0.49888  -0.49668  -0.49189  -0.49167  -0.48872
 Alpha  occ. eigenvalues --   -0.48678  -0.48330  -0.47971  -0.47683  -0.47611
 Alpha  occ. eigenvalues --   -0.47559  -0.47394  -0.47023  -0.46881  -0.46754
 Alpha  occ. eigenvalues --   -0.46631  -0.46608  -0.46243  -0.46002  -0.45941
 Alpha  occ. eigenvalues --   -0.45757  -0.45627  -0.45532  -0.45459  -0.45216
 Alpha  occ. eigenvalues --   -0.44743  -0.44610  -0.44408  -0.44225  -0.44066
 Alpha  occ. eigenvalues --   -0.43995  -0.43934  -0.43792  -0.43556  -0.43516
 Alpha  occ. eigenvalues --   -0.43413  -0.43326  -0.43186  -0.43175  -0.43064
 Alpha  occ. eigenvalues --   -0.42908  -0.42283  -0.42218  -0.42018  -0.41882
 Alpha  occ. eigenvalues --   -0.41799  -0.41793  -0.41592  -0.41452  -0.41447
 Alpha  occ. eigenvalues --   -0.41285  -0.41094  -0.40884  -0.40688  -0.40595
 Alpha  occ. eigenvalues --   -0.40568  -0.40397  -0.40241  -0.39974  -0.39954
 Alpha  occ. eigenvalues --   -0.39723  -0.39499  -0.39461  -0.39225  -0.39149
 Alpha  occ. eigenvalues --   -0.39059  -0.38839  -0.38695  -0.38457  -0.38413
 Alpha  occ. eigenvalues --   -0.38392  -0.38026  -0.37650  -0.37508  -0.37373
 Alpha  occ. eigenvalues --   -0.37361  -0.37166  -0.37086  -0.37023  -0.36996
 Alpha  occ. eigenvalues --   -0.36752  -0.36705  -0.36651  -0.36258  -0.36054
 Alpha  occ. eigenvalues --   -0.35718  -0.35642  -0.35615  -0.35466  -0.35263
 Alpha  occ. eigenvalues --   -0.34897  -0.34773  -0.34669  -0.34013  -0.33944
 Alpha  occ. eigenvalues --   -0.33496  -0.33416  -0.32933  -0.32826  -0.32783
 Alpha  occ. eigenvalues --   -0.32248  -0.32081  -0.31734  -0.31472  -0.31453
 Alpha  occ. eigenvalues --   -0.31213  -0.30739  -0.29911  -0.29687  -0.29529
 Alpha  occ. eigenvalues --   -0.29402  -0.29202  -0.28660  -0.27046  -0.26991
 Alpha  occ. eigenvalues --   -0.26294  -0.26093  -0.25768  -0.25497  -0.25246
 Alpha  occ. eigenvalues --   -0.25122  -0.24951  -0.24733  -0.21705  -0.21217
 Alpha  occ. eigenvalues --   -0.19219  -0.18695
 Alpha virt. eigenvalues --   -0.11840  -0.11229  -0.05333  -0.05311  -0.04095
 Alpha virt. eigenvalues --   -0.03997  -0.02264  -0.01942  -0.01899  -0.01322
 Alpha virt. eigenvalues --    0.00575   0.00892   0.00945   0.01018   0.01411

 Mulliken charges:
               1
     1  Mg  12.000000
     2  C    6.000000
     3  C    6.000000
     4  C    6.000000
     5  C    6.000000
     6  N    7.000000
     7  C    6.000000
     8  C    6.000000
     9  C    6.000000
    10  C    6.000000
    11  C    6.000000
    12  C    6.000000
    13  C    6.000000
    14  H    1.000000
    15  N    7.000000
    16  C    6.000000
    17  C    6.000000
    18  C    6.000000
    19  C    6.000000
    20  C    6.000000
    21  C    6.000000
    22  O    8.000000
    23  C    6.000000
    24  N    7.000000
    25  C    6.000000
    26  C    6.000000
    27  C    6.000000
    28  C    6.000000
    29  C    6.000000
    30  C    6.000000
    31  C    6.000000
    32  N    7.000000
    33  C    6.000000
    34  C    6.000000
    35  C    6.000000
    36  C    6.000000
    37  C    6.000000
    38  C    6.000000
    39  O    8.000000
    40  C    6.000000
    41  C    6.000000
    42  O    8.000000
    43  O    8.000000
    44  C    6.000000
    45  H    1.000000
    46  H    1.000000
    47  H    1.000000
    48  H    1.000000
    49  H    1.000000
    50  H    1.000000
    51  H    1.000000
    52  H    1.000000
    53  H    1.000000
    54  H    1.000000
    55  H    1.000000
    56  H    1.000000
    57  H    1.000000
    58  H    1.000000
    59  H    1.000000
    60  H    1.000000
    61  H    1.000000
    62  H    1.000000
    63  H    1.000000
    64  H    1.000000
    65  H    1.000000
    66  H    1.000000
    67  H    1.000000
    68  H    1.000000
    69  H    1.000000
    70  H    1.000000
    71  H    1.000000
    72  H    1.000000
    73  H    1.000000
    74  H    1.000000
    75  H    1.000000
    76  H    1.000000
    77  H    1.000000
    78  H    1.000000
    79  H    1.000000
    80  Mg  12.000000
    81  C    6.000000
    82  C    6.000000
    83  C    6.000000
    84  C    6.000000
    85  N    7.000000
    86  C    6.000000
    87  C    6.000000
    88  C    6.000000
    89  C    6.000000
    90  C    6.000000
    91  C    6.000000
    92  C    6.000000
    93  H    1.000000
    94  N    7.000000
    95  C    6.000000
    96  C    6.000000
    97  C    6.000000
    98  C    6.000000
    99  C    6.000000
   100  C    6.000000
   101  O    8.000000
   102  C    6.000000
   103  N    7.000000
   104  C    6.000000
   105  C    6.000000
   106  C    6.000000
   107  C    6.000000
   108  C    6.000000
   109  C    6.000000
   110  C    6.000000
   111  N    7.000000
   112  C    6.000000
   113  C    6.000000
   114  C    6.000000
   115  C    6.000000
   116  C    6.000000
   117  C    6.000000
   118  O    8.000000
   119  C    6.000000
   120  C    6.000000
   121  O    8.000000
   122  O    8.000000
   123  C    6.000000
   124  H    1.000000
   125  H    1.000000
   126  H    1.000000
   127  H    1.000000
   128  H    1.000000
   129  H    1.000000
   130  H    1.000000
   131  H    1.000000
   132  H    1.000000
   133  H    1.000000
   134  H    1.000000
   135  H    1.000000
   136  H    1.000000
   137  H    1.000000
   138  H    1.000000
   139  H    1.000000
   140  H    1.000000
   141  H    1.000000
   142  H    1.000000
   143  H    1.000000
   144  H    1.000000
   145  H    1.000000
   146  H    1.000000
   147  H    1.000000
   148  H    1.000000
   149  H    1.000000
   150  H    1.000000
   151  H    1.000000
   152  H    1.000000
   153  H    1.000000
   154  H    1.000000
   155  H    1.000000
   156  H    1.000000
   157  H    1.000000
   158  H    1.000000
 Sum of Mulliken charges = 624.00000

 Dipole moment (field-independent basis, Debye):
    X=             -0.0000    Y=             -0.0000    Z=              0.0000  Tot=              0.0000
 Quadrupole moment (field-independent basis, Debye-Ang):
   XX=              0.0000   YY=              0.0000   ZZ=             -0.0000
   XY=              0.0000   XZ=             -0.0000   YZ=              0.0000

 Normal termination of Gaussian 16 at Wed Oct 13 22:56:02 2021.
