 Gaussian 16, Revision A.03,
 Gaussian 16:  ES64L-G16RevA.03 25-Dec-2016

 --------------------------------------------------------
 #p PBE1PBE/Def2SVP td=(nstates=5) density=(transition=1)
 --------------------------------------------------------

 --------------------------------
 TDDFT excited states in gaussian
 --------------------------------
 Symbolic Z-matrix:
 Charge =  0 Multiplicity = 1

                         Standard orientation:
 ---------------------------------------------------------------------
 Center     Atomic      Atomic             Coordinates (Angstroms)
 Number     Number       Type             X           Y           Z
 ---------------------------------------------------------------------
      1         12           0      -13.862008   -0.586251    0.342694
      2          6           0      -13.753918    2.560094   -1.257011
      3          6           0      -13.036915    0.902021    3.306211
      4          6           0      -13.327666   -3.596822    1.575994
      5          6           0      -14.229203   -2.059915   -2.863445
      6          7           0      -13.559874    1.530541    0.946706
      7          6           0      -13.579991    2.578736    0.147298
      8          6           0      -13.667285    3.828794    1.004113
      9          6           0      -13.011203    3.378132    2.365815
     10          6           0      -13.193445    1.820821    2.225282
     11          6           0      -11.541663    3.929870    2.506481
     12          6           0      -15.130591    4.269337    1.265115
     13          6           0      -15.327825    5.789611    1.693801
     14          1           0      -14.141947    6.741619    1.871371
     15          7           0      -13.475437   -1.247434    2.199057
     16          6           0      -13.223008   -0.490614    3.371932
     17          6           0      -13.077842   -1.431171    4.507445
     18          6           0      -13.082066   -2.768391    3.970183
     19          6           0      -13.302736   -2.629303    2.514314
     20          6           0      -12.951313   -1.003121    5.926909
     21          6           0      -12.941761   -4.192570    4.635729
     22          8           0      -13.062817   -5.261164    4.021337
     23          6           0      -12.500042   -4.266996    6.068587
     24          7           0      -13.673679   -2.575545   -0.549442
     25          6           0      -13.506707   -3.648435    0.177319
     26          6           0      -13.531422   -4.946661   -0.579723
     27          6           0      -13.818277   -4.465115   -2.045374
     28          6           0      -14.015227   -2.932647   -1.817541
     29          6           0      -12.279470   -5.786732   -0.310642
     30          6           0      -15.048951   -5.088417   -2.691964
     31          6           0      -14.928631   -5.475544   -4.209484
     32          7           0      -14.053793    0.052650   -1.722175
     33          6           0      -14.241063   -0.680716   -2.910223
     34          6           0      -14.503684    0.229671   -3.971250
     35          6           0      -14.157102    1.514794   -3.444811
     36          6           0      -13.946882    1.362195   -2.097742
     37          6           0      -15.066618   -0.130659   -5.316133
     38          6           0      -14.081551    2.983132   -3.636432
     39          8           0      -14.243925    3.648509   -4.638113
     40          6           0      -13.564507    3.629217   -2.264198
     41          6           0      -14.112987    5.007556   -2.089705
     42          8           0      -15.265997    5.312373   -2.004133
     43          8           0      -13.091041    5.974260   -2.133979
     44          6           0      -13.459144    7.301510   -2.670967
     45          1           0      -12.589852    1.273614    4.231069
     46          1           0      -13.310030   -4.637362    1.904944
     47          1           0      -14.417118   -2.545037   -3.823626
     48          1           0      -13.204937    4.587098    0.372290
     49          1           0      -13.584022    3.732178    3.223581
     50          1           0      -11.266926    4.501609    1.620697
     51          1           0      -10.928590    3.030591    2.446589
     52          1           0      -11.379302    4.583907    3.363296
     53          1           0      -15.457998    3.631064    2.086812
     54          1           0      -15.700362    4.031892    0.366808
     55          1           0      -15.889420    5.736352    2.627715
     56          1           0      -16.014840    6.197280    0.951838
     57          1           0      -13.135656    0.038776    6.186279
     58          1           0      -11.946945   -1.161147    6.318813
     59          1           0      -13.705739   -1.598051    6.442295
     60          1           0      -13.315773   -4.207115    6.788914
     61          1           0      -11.823462   -3.411687    6.085912
     62          1           0      -11.932698   -5.192992    6.158023
     63          1           0      -14.410334   -5.432408   -0.156050
     64          1           0      -12.991135   -4.629267   -2.734924
     65          1           0      -11.410076   -5.200752   -0.010924
     66          1           0      -12.034238   -6.244554   -1.268140
     67          1           0      -12.440397   -6.550488    0.450519
     68          1           0      -15.909563   -4.423583   -2.620148
     69          1           0      -15.327450   -5.887483   -2.005081
     70          1           0      -13.997531   -5.109949   -4.642154
     71          1           0      -15.760799   -4.957609   -4.685829
     72          1           0      -15.012087   -6.525206   -4.493079
     73          1           0      -14.459046   -0.969543   -5.655931
     74          1           0      -15.005544    0.662501   -6.061521
     75          1           0      -16.086935   -0.498965   -5.204689
     76          1           0      -12.501911    3.847681   -2.365397
     77          1           0      -13.353400    8.027248   -1.864467
     78          1           0      -14.468503    7.316460   -3.083623
     79          1           0      -12.733414    7.500049   -3.459595
     80         12           0       13.208387   -0.581893   -0.503195
     81          6           0       15.260788    2.342526   -0.211597
     82          6           0       10.654712    1.157754    0.607638
     83          6           0       11.728987   -3.516706   -0.075781
     84          6           0       16.310958   -2.362750   -1.358381
     85          7           0       12.989682    1.527543    0.078813
     86          6           0       13.944742    2.560142    0.163341
     87          6           0       13.357143    3.929441    0.675088
     88          6           0       11.788556    3.452706    0.859173
     89          6           0       11.761722    1.972514    0.491322
     90          6           0       11.261587    3.672282    2.341922
     91          6           0       13.589232    5.165624   -0.261898
     92          6           0       12.697795    6.373336    0.001595
     93          1           0       13.439868    7.619505    0.518288
     94          7           0       11.390769   -1.092534    0.084123
     95          6           0       10.384556   -0.257317    0.509402
     96          6           0        9.163522   -0.973737    0.812160
     97          6           0        9.512350   -2.363948    0.585761
     98          6           0       10.938204   -2.348920    0.100254
     99          6           0        7.879560   -0.394634    1.181562
    100          6           0        8.665581   -3.617505    0.721609
    101          8           0        9.027644   -4.712171    0.392466
    102          6           0        7.335632   -3.408538    1.395787
    103          7           0       13.939195   -2.660355   -0.629875
    104          6           0       13.072433   -3.684748   -0.428771
    105          6           0       13.752448   -5.051365   -0.709928
    106          6           0       15.162978   -4.620430   -1.243065
    107          6           0       15.137699   -3.108791   -1.123491
    108          6           0       13.846536   -6.085976    0.462815
    109          6           0       15.507461   -5.049149   -2.713014
    110          6           0       15.905156   -6.536444   -2.839495
    111          7           0       15.328961   -0.190067   -0.727720
    112          6           0       16.399112   -0.952718   -1.135328
    113          6           0       17.527580   -0.120978   -1.275143
    114          6           0       17.192955    1.123592   -0.892241
    115          6           0       15.813593    1.073339   -0.526680
    116          6           0       18.833872   -0.653238   -1.849806
    117          6           0       17.606101    2.504896   -0.624683
    118          8           0       18.681813    3.035016   -0.731598
    119          6           0       16.325537    3.338417   -0.140629
    120          6           0       16.537271    3.678349    1.300197
    121          8           0       16.292328    3.069450    2.317194
    122          8           0       17.072431    4.951119    1.283280
    123          6           0       17.374147    5.572266    2.594916
    124          1           0        9.763938    1.637027    1.018779
    125          1           0       11.236891   -4.444312    0.226354
    126          1           0       17.108105   -3.014775   -1.722947
    127          1           0       13.741388    4.097748    1.681270
    128          1           0       11.172051    4.076456    0.211482
    129          1           0       10.262929    4.107549    2.308988
    130          1           0       11.869917    4.245465    3.041054
    131          1           0       11.076902    2.711784    2.822019
    132          1           0       13.451940    4.688504   -1.233137
    133          1           0       14.600312    5.562170   -0.357028
    134          1           0       11.943903    6.103638    0.740661
    135          1           0       12.297731    6.723702   -0.949471
    136          1           0        7.298395   -0.684675    0.306249
    137          1           0        7.964366    0.680140    1.342828
    138          1           0        7.370021   -0.795545    2.057536
    139          1           0        6.570615   -3.239806    0.638028
    140          1           0        7.397951   -2.826196    2.315535
    141          1           0        7.207136   -4.328816    1.964896
    142          1           0       13.280758   -5.416216   -1.622826
    143          1           0       15.920767   -4.917737   -0.517836
    144          1           0       14.849564   -6.408849    0.743222
    145          1           0       13.408024   -7.002293    0.068258
    146          1           0       13.366796   -5.782754    1.393403
    147          1           0       16.355036   -4.464364   -3.068668
    148          1           0       14.624967   -4.781264   -3.295663
    149          1           0       16.241627   -6.923548   -1.877510
    150          1           0       16.672073   -6.573197   -3.613089
    151          1           0       15.082336   -7.197195   -3.114033
    152          1           0       19.410460    0.142678   -2.321277
    153          1           0       18.606458   -1.457687   -2.549340
    154          1           0       19.410554   -1.159198   -1.075187
    155          1           0       16.164723    4.224379   -0.755346
    156          1           0       18.320007    6.096037    2.457227
    157          1           0       17.463497    4.863186    3.417778
    158          1           0       16.516314    6.241041    2.671904
 ---------------------------------------------------------------------

 SCF Done:  E(RPBE1PBE) =  -4067.37385794     A.U. after   17 cycles

 Excitation energies and oscillator strengths:

 Excited State   1:      Singlet-A      1.8601 eV  666.56 nm  f=0.3844  <S**2>=0.000
     310 -> 316       -0.16813
     312 -> 314        0.69301
     312 <- 314       -0.10825
 This state for optimization and/or second-order correction.
 Total Energy, E(TD-HF/TD-DFT) =  -4067.30550191
 Copying the excited state density for this state as the 1-particle RhoCI density.

 Excited State   2:      Singlet-A      1.8895 eV  656.19 nm  f=0.3621  <S**2>=0.000
     309 -> 315       -0.18730
     311 -> 313        0.68529

 Excited State   3:      Singlet-A      1.9130 eV  648.10 nm  f=0.0000  <S**2>=0.000
     312 -> 313        0.70710

 Excited State   4:      Singlet-A      2.0325 eV  610.02 nm  f=0.0000  <S**2>=0.000
     311 -> 314        0.70710

 Excited State   5:      Singlet-A      2.1351 eV  580.69 nm  f=0.0923  <S**2>=0.000
     309 -> 313        0.65945
     311 -> 315        0.23143

 The electronic state is 1-A.
 Alpha  occ. eigenvalues --  -46.92001 -46.91987 -19.24502 -19.24121 -19.20243
 Alpha  occ. eigenvalues --  -19.20089 -19.19934 -19.19299 -19.19189 -19.18965
 Alpha  occ. eigenvalues --  -14.41714 -14.41531 -14.41186 -14.40882 -14.39360
 Alpha  occ. eigenvalues --  -14.39287 -14.38528 -14.37964 -10.35944 -10.35747
 Alpha  occ. eigenvalues --  -10.33673 -10.32419 -10.32334 -10.31913 -10.29706
 Alpha  occ. eigenvalues --  -10.28855 -10.28686 -10.28618 -10.28419 -10.28260
 Alpha  occ. eigenvalues --  -10.28228 -10.28125 -10.28096 -10.28053 -10.27972
 Alpha  occ. eigenvalues --  -10.27902 -10.27871 -10.27835 -10.27826 -10.26877
 Alpha  occ. eigenvalues --  -10.26806 -10.26750 -10.26697 -10.26553 -10.26456
 Alpha  occ. eigenvalues --  -10.26325 -10.26204 -10.26005 -10.25990 -10.25909
 Alpha  occ. eigenvalues --  -10.25832 -10.25589 -10.25579 -10.25520 -10.25499
 Alpha  occ. eigenvalues --  -10.25476 -10.25353 -10.25234 -10.25154 -10.24768
 Alpha  occ. eigenvalues --  -10.24720 -10.24707 -10.24641 -10.24603 -10.24450
 Alpha  occ. eigenvalues --  -10.24442 -10.24441 -10.24405 -10.24389 -10.23982
 Alpha  occ. eigenvalues --  -10.23959 -10.23879 -10.23720 -10.23670 -10.23525
 Alpha  occ. eigenvalues --  -10.23436 -10.23401 -10.23377 -10.23319 -10.23274
 Alpha  occ. eigenvalues --  -10.23044 -10.23025 -10.23019 -10.22927 -10.22635
 Alpha  occ. eigenvalues --  -10.22404  -3.14123  -3.14030  -1.86959  -1.86883
 Alpha  occ. eigenvalues --   -1.86477  -1.86404  -1.86370  -1.86250  -1.10415
 Alpha  occ. eigenvalues --   -1.10122  -1.06149  -1.05534  -1.04928  -1.04654
 Alpha  occ. eigenvalues --   -1.02261  -1.02017  -0.99755  -0.99181  -0.98481
 Alpha  occ. eigenvalues --   -0.98004  -0.97141  -0.96732  -0.96214  -0.95345
 Alpha  occ. eigenvalues --   -0.87359  -0.86419  -0.83620  -0.83236  -0.83152
 Alpha  occ. eigenvalues --   -0.82549  -0.82316  -0.82052  -0.81666  -0.81544
 Alpha  occ. eigenvalues --   -0.81497  -0.81202  -0.80386  -0.80121  -0.78240
 Alpha  occ. eigenvalues --   -0.78205  -0.78174  -0.77475  -0.76845  -0.76455
 Alpha  occ. eigenvalues --   -0.76244  -0.75985  -0.75120  -0.75055  -0.74438
 Alpha  occ. eigenvalues --   -0.74281  -0.72780  -0.72446  -0.71565  -0.71304
 Alpha  occ. eigenvalues --   -0.70936  -0.70861  -0.69855  -0.69829  -0.69478
 Alpha  occ. eigenvalues --   -0.69214  -0.67218  -0.67074  -0.66212  -0.65746
 Alpha  occ. eigenvalues --   -0.64263  -0.63973  -0.63135  -0.63053  -0.62203
 Alpha  occ. eigenvalues --   -0.61825  -0.61452  -0.61026  -0.60476  -0.59653
 Alpha  occ. eigenvalues --   -0.59538  -0.59150  -0.59117  -0.58825  -0.58471
 Alpha  occ. eigenvalues --   -0.58120  -0.56025  -0.55796  -0.54648  -0.54574
 Alpha  occ. eigenvalues --   -0.54082  -0.53819  -0.53368  -0.53167  -0.52731
 Alpha  occ. eigenvalues --   -0.52677  -0.52505  -0.52269  -0.51562  -0.51540
 Alpha  occ. eigenvalues --   -0.50984  -0.50715  -0.50172  -0.50107  -0.49803
 Alpha  occ. eigenvalues --   -0.49607  -0.49027  -0.48833  -0.48832  -0.48541
 Alpha  occ. eigenvalues --   -0.48277  -0.47835  -0.47799  -0.47723  -0.47444
 Alpha  occ. eigenvalues --   -0.47316  -0.46963  -0.46841  -0.46685  -0.46540
 Alpha  occ. eigenvalues --   -0.46371  -0.46254  -0.45998  -0.45938  -0.45780
 Alpha  occ. eigenvalues --   -0.45483  -0.45413  -0.45140  -0.45103  -0.44907
 Alpha  occ. eigenvalues --   -0.44840  -0.44574  -0.44437  -0.44252  -0.44084
 Alpha  occ. eigenvalues --   -0.44073  -0.43779  -0.43772  -0.43417  -0.43091
 Alpha  occ. eigenvalues --   -0.43031  -0.43010  -0.42737  -0.42667  -0.42539
 Alpha  occ. eigenvalues --   -0.42496  -0.42426  -0.42226  -0.42012  -0.41825
 Alpha  occ. eigenvalues --   -0.41779  -0.41437  -0.41132  -0.41104  -0.41029
 Alpha  occ. eigenvalues --   -0.40973  -0.40596  -0.40443  -0.40417  -0.40364
 Alpha  occ. eigenvalues --   -0.40238  -0.40004  -0.39931  -0.39918  -0.39815
 Alpha  occ. eigenvalues --   -0.39785  -0.39642  -0.39500  -0.39191  -0.38744
 Alpha  occ. eigenvalues --   -0.38716  -0.38660  -0.38591  -0.38297  -0.38093
 Alpha  occ. eigenvalues --   -0.38023  -0.38022  -0.37643  -0.37583  -0.37456
 Alpha  occ. eigenvalues --   -0.37440  -0.37040  -0.36937  -0.36921  -0.36740
 Alpha  occ. eigenvalues --   -0.36637  -0.36501  -0.36456  -0.36346  -0.36095
 Alpha  occ. eigenvalues --   -0.35954  -0.35913  -0.35797  -0.35633  -0.35376
 Alpha  occ. eigenvalues --   -0.35172  -0.34964  -0.34362  -0.34021  -0.33800
 Alpha  occ. eigenvalues --   -0.33719  -0.33112  -0.32811  -0.32787  -0.32589
 Alpha  occ. eigenvalues --   -0.32091  -0.31521  -0.31506  -0.31438  -0.30879
 Alpha  occ. eigenvalues --   -0.30669  -0.30469  -0.29450  -0.29414  -0.29137
 Alpha  occ. eigenvalues --   -0.29086  -0.28498  -0.28270  -0.26880  -0.26717
 Alpha  occ. eigenvalues --   -0.26421  -0.25827  -0.25793  -0.25768  -0.25492
 Alpha  occ. eigenvalues --   -0.25409  -0.25366  -0.24314  -0.20640  -0.20581
 Alpha  occ. eigenvalues --   -0.18945  -0.18609
 Alpha virt. eigenvalues --   -0.11091  -0.10988  -0.05558  -0.04732  -0.04244
 Alpha virt. eigenvalues --   -0.03322  -0.01813  -0.01786  -0.00244  -0.00073
 Alpha virt. eigenvalues --    0.00202   0.00810   0.01273   0.01396   0.02061

 Mulliken charges:
               1
     1  Mg  12.000012
     2  C    5.999644
     3  C    6.000740
     4  C    6.000133
     5  C    5.999464
     6  N    6.999936
     7  C    6.000708
     8  C    5.999905
     9  C    6.000451
    10  C    5.998842
    11  C    5.999994
    12  C    5.999904
    13  C    5.999936
    14  H    1.000083
    15  N    7.000208
    16  C    5.998650
    17  C    5.999307
    18  C    5.999231
    19  C    5.999373
    20  C    6.000203
    21  C    5.999417
    22  O    7.999201
    23  C    6.000264
    24  N    6.999745
    25  C    5.999176
    26  C    6.000154
    27  C    5.999618
    28  C    6.001223
    29  C    6.000200
    30  C    5.999780
    31  C    6.000005
    32  N    7.000132
    33  C    6.001089
    34  C    6.001039
    35  C    6.000029
    36  C    6.000766
    37  C    6.000043
    38  C    6.000559
    39  O    8.001116
    40  C    5.999917
    41  C    6.000197
    42  O    8.000367
    43  O    7.999938
    44  C    5.999865
    45  H    0.999707
    46  H    0.999707
    47  H    1.000284
    48  H    0.999778
    49  H    1.000079
    50  H    0.999554
    51  H    0.999750
    52  H    0.999946
    53  H    1.000462
    54  H    0.999884
    55  H    1.000296
    56  H    1.000084
    57  H    0.999498
    58  H    0.999104
    59  H    0.999641
    60  H    0.999809
    61  H    0.999669
    62  H    0.999388
    63  H    1.000266
    64  H    0.999930
    65  H    0.999696
    66  H    0.999553
    67  H    1.000131
    68  H    1.000112
    69  H    1.000437
    70  H    0.999824
    71  H    1.000076
    72  H    1.000264
    73  H    1.000496
    74  H    1.000562
    75  H    1.000812
    76  H    1.000070
    77  H    1.000272
    78  H    1.000215
    79  H    1.000082
    80  Mg  11.998868
    81  C    6.023639
    82  C    5.994623
    83  C    5.983270
    84  C    6.007746
    85  N    7.010315
    86  C    5.969447
    87  C    6.015278
    88  C    5.986777
    89  C    6.026901
    90  C    5.999647
    91  C    6.002686
    92  C    5.998321
    93  H    1.000386
    94  N    6.995609
    95  C    6.038069
    96  C    6.016876
    97  C    6.018023
    98  C    6.027827
    99  C    5.995650
   100  C    6.014896
   101  O    8.029543
   102  C    5.991372
   103  N    6.998043
   104  C    6.032629
   105  C    5.988456
   106  C    6.009277
   107  C    5.970347
   108  C    5.999493
   109  C    6.006496
   110  C    5.998091
   111  N    7.000386
   112  C    5.969042
   113  C    5.971828
   114  C    6.000017
   115  C    5.961678
   116  C    6.000641
   117  C    5.980854
   118  O    7.971372
   119  C    5.994416
   120  C    6.000129
   121  O    7.991521
   122  O    7.999127
   123  C    6.001763
   124  H    1.009692
   125  H    1.004408
   126  H    0.989162
   127  H    0.995537
   128  H    1.004288
   129  H    1.000117
   130  H    1.011362
   131  H    0.994358
   132  H    0.998346
   133  H    1.004983
   134  H    0.993134
   135  H    0.997826
   136  H    1.016662
   137  H    1.016962
   138  H    1.018486
   139  H    1.010537
   140  H    1.006819
   141  H    1.014343
   142  H    0.999883
   143  H    1.000457
   144  H    1.008548
   145  H    1.000549
   146  H    0.995325
   147  H    1.005340
   148  H    0.991297
   149  H    0.997220
   150  H    0.999947
   151  H    0.993187
   152  H    0.986177
   153  H    0.983703
   154  H    0.980047
   155  H    0.991724
   156  H    0.997488
   157  H    0.996829
   158  H    0.993881
 Sum of Mulliken charges = 624.00000

 Dipole moment (field-independent basis, Debye):
    X=             -9.9785    Y=             -2.4681    Z=              1.8209  Tot=             10.4392
 Quadrupole moment (field-independent basis, Debye-Ang):
   XX=           -259.9417   YY=              0.3775   ZZ=             -1.8327
   XY=            -30.4846   XZ=             33.9077   YZ=             -3.1525

 Normal termination of Gaussian 16 at Thu Oct 14 07:13:18 2021.
