 Gaussian 16, Revision A.03,
 Gaussian 16:  ES64L-G16RevA.03 25-Dec-2016

 --------------------------------------------------------
 #p PBE1PBE/Def2SVP td=(nstates=5) density=(transition=1)
 --------------------------------------------------------

 --------------------------------
 TDDFT excited states in gaussian
 --------------------------------
 Symbolic Z-matrix:
 Charge =  0 Multiplicity = 1

                         Standard orientation:
 ---------------------------------------------------------------------
 Center     Atomic      Atomic             Coordinates (Angstroms)
 Number     Number       Type             X           Y           Z
 ---------------------------------------------------------------------
      1         12           0       20.842979    0.227546    0.292298
      2          6           0       17.864421   -1.444505    0.340306
      3          6           0       22.411837   -2.899716   -0.356963
      4          6           0       23.746879    1.886379   -0.156642
      5          6           0       19.113818    3.238057    0.002539
      6          7           0       20.110715   -1.955798   -0.361636
      7          6           0       18.867433   -2.390294   -0.012094
      8          6           0       18.744288   -3.862315   -0.293051
      9          6           0       20.238171   -4.340978   -0.555235
     10          6           0       21.034903   -3.005574   -0.413448
     11          6           0       20.633547   -5.637880    0.050773
     12          6           0       17.673024   -4.382718   -1.364012
     13          6           0       17.348812   -3.496799   -2.530203
     14          1           0       17.363352   -4.137756   -3.910875
     15          7           0       22.819257   -0.446998    0.049876
     16          6           0       23.258337   -1.716667   -0.164380
     17          6           0       24.680031   -1.774264   -0.334948
     18          6           0       25.111996   -0.359557   -0.157982
     19          6           0       23.868389    0.436843   -0.071780
     20          6           0       25.520608   -2.936548   -0.572653
     21          6           0       26.523421    0.204863   -0.082732
     22          8           0       27.455823   -0.477677   -0.320359
     23          6           0       26.900932    1.636397    0.179981
     24          7           0       21.330094    2.217782   -0.154443
     25          6           0       22.599810    2.648510   -0.103029
     26          6           0       22.688905    4.213977   -0.500980
     27          6           0       21.207743    4.652041   -0.060845
     28          6           0       20.521607    3.308530   -0.129955
     29          6           0       23.794355    5.016388    0.190975
     30          6           0       20.645623    5.800966   -0.917366
     31          6           0       19.982496    7.017291   -0.260364
     32          7           0       18.881510    0.798175    0.079383
     33          6           0       18.286735    2.051945    0.011721
     34          6           0       16.881521    1.966292    0.109806
     35          6           0       16.624002    0.618323    0.297486
     36          6           0       17.883815   -0.078534    0.273554
     37          6           0       15.889787    3.088304    0.103744
     38          6           0       15.689343   -0.398006    0.549220
     39          8           0       14.470672   -0.276991    0.656338
     40          6           0       16.393691   -1.778428    0.418110
     41          6           0       15.973496   -2.501685    1.689190
     42          8           0       15.461865   -3.641216    1.710977
     43          8           0       16.392166   -1.740019    2.754633
     44          6           0       16.370504   -2.252862    4.146395
     45          1           0       22.813619   -3.863407   -0.676652
     46          1           0       24.646579    2.400339   -0.501025
     47          1           0       18.583443    4.192019   -0.017348
     48          1           0       18.343786   -4.348961    0.597014
     49          1           0       20.311720   -4.509008   -1.629304
     50          1           0       21.581078   -5.594981    0.587712
     51          1           0       20.585407   -6.459214   -0.664223
     52          1           0       19.921030   -5.900342    0.832837
     53          1           0       16.684247   -4.582237   -0.950795
     54          1           0       18.068409   -5.263375   -1.871153
     55          1           0       17.844147   -2.526492   -2.518425
     56          1           0       16.282948   -3.274810   -2.468208
     57          1           0       25.062596   -3.802310   -0.095363
     58          1           0       26.541126   -2.830501   -0.206624
     59          1           0       25.548139   -3.085503   -1.652679
     60          1           0       26.049728    1.841325    0.829694
     61          1           0       26.867503    2.255883   -0.715700
     62          1           0       27.858602    1.817763    0.668186
     63          1           0       22.739569    4.237296   -1.589976
     64          1           0       21.039561    4.963046    0.969923
     65          1           0       23.308586    5.638649    0.943083
     66          1           0       24.441582    5.486514   -0.548844
     67          1           0       24.496926    4.391386    0.741414
     68          1           0       19.916188    5.354066   -1.593397
     69          1           0       21.433680    6.124151   -1.597693
     70          1           0       20.295118    8.014152   -0.571598
     71          1           0       19.969918    6.958611    0.828771
     72          1           0       18.928435    6.830654   -0.463350
     73          1           0       15.014522    2.926864    0.733451
     74          1           0       15.556096    3.246690   -0.922025
     75          1           0       16.297082    4.025622    0.485002
     76          1           0       15.949033   -2.188055   -0.488037
     77          1           0       17.239966   -1.937230    4.722771
     78          1           0       16.345588   -3.341903    4.104800
     79          1           0       15.543701   -2.014568    4.814339
     80         12           0      -20.030942    0.832574    0.547221
     81          6           0      -20.031230   -2.696659    0.169110
     82          6           0      -16.946673    0.856783   -1.081834
     83          6           0      -20.627319    3.997923   -0.131783
     84          6           0      -23.402318    0.454527    1.923765
     85          7           0      -18.748669   -0.793249   -0.592202
     86          6           0      -18.842552   -2.124195   -0.349545
     87          6           0      -17.578278   -2.813049   -0.831156
     88          6           0      -16.490013   -1.753047   -0.659990
     89          6           0      -17.437013   -0.459483   -0.841331
     90          6           0      -15.757159   -1.668296    0.680190
     91          6           0      -17.807982   -3.385043   -2.297750
     92          6           0      -17.292605   -4.761856   -2.451706
     93          1           0      -16.548139   -5.103312   -3.757135
     94          7           0      -18.957396    2.292884   -0.528594
     95          6           0      -17.654469    2.114807   -1.056480
     96          6           0      -17.255813    3.391444   -1.593549
     97          6           0      -18.230706    4.374865   -1.278434
     98          6           0      -19.356419    3.603304   -0.640989
     99          6           0      -15.923885    3.547768   -2.320503
    100          6           0      -18.184170    5.803440   -1.653352
    101          8           0      -17.219575    6.216511   -2.285062
    102          6           0      -19.246448    6.828723   -1.427732
    103          7           0      -21.897676    2.039709    0.796214
    104          6           0      -21.714095    3.360262    0.598214
    105          6           0      -22.926993    4.160270    1.106850
    106          6           0      -23.791269    3.047057    1.927801
    107          6           0      -22.990087    1.763939    1.586862
    108          6           0      -22.556776    5.499438    1.889882
    109          6           0      -25.310450    2.981302    1.575870
    110          6           0      -25.778952    1.874553    0.570651
    111          7           0      -21.403710   -0.697020    0.966386
    112          6           0      -22.688586   -0.683940    1.580214
    113          6           0      -23.084827   -2.122889    1.906089
    114          6           0      -22.080059   -2.871977    1.314869
    115          6           0      -21.092700   -1.966240    0.784872
    116          6           0      -24.300529   -2.730342    2.632240
    117          6           0      -21.606227   -4.203038    1.104258
    118          8           0      -22.053373   -5.281200    1.498871
    119          6           0      -20.396461   -4.066240    0.250445
    120          6           0      -20.878950   -4.591187   -1.121134
    121          8           0      -21.558427   -3.990660   -1.950982
    122          8           0      -20.453613   -5.944679   -1.225182
    123          6           0      -20.874700   -6.691187   -2.340418
    124          1           0      -15.940616    0.930525   -1.500318
    125          1           0      -20.652703    5.083208   -0.248126
    126          1           0      -24.326479    0.239981    2.463184
    127          1           0      -17.259349   -3.630355   -0.184493
    128          1           0      -15.644855   -1.713026   -1.346204
    129          1           0      -15.836442   -2.572550    1.282942
    130          1           0      -15.958747   -0.725614    1.189516
    131          1           0      -14.713418   -1.624986    0.366853
    132          1           0      -17.259349   -2.760773   -3.003091
    133          1           0      -18.824540   -3.262910   -2.671789
    134          1           0      -18.202217   -5.349224   -2.331604
    135          1           0      -16.605289   -4.962299   -1.629942
    136          1           0      -15.171183    4.060681   -1.722105
    137          1           0      -16.105730    4.026768   -3.281469
    138          1           0      -15.502821    2.569306   -2.552078
    139          1           0      -19.315510    7.015860   -0.355857
    140          1           0      -20.237552    6.579334   -1.808679
    141          1           0      -18.924819    7.817358   -1.752972
    142          1           0      -23.470325    4.384763    0.189222
    143          1           0      -23.632693    3.204785    2.994074
    144          1           0      -21.573292    5.866320    1.596513
    145          1           0      -22.672211    5.529241    2.973993
    146          1           0      -23.396824    6.151239    1.644874
    147          1           0      -25.694754    3.934886    1.214719
    148          1           0      -25.756168    2.749642    2.542919
    149          1           0      -26.595304    2.457610    0.143726
    150          1           0      -26.174122    0.943853    0.978349
    151          1           0      -24.977674    1.728845   -0.154086
    152          1           0      -23.986710   -3.325463    3.489114
    153          1           0      -24.559323   -3.453464    1.859381
    154          1           0      -25.041777   -1.939988    2.748510
    155          1           0      -19.611765   -4.723927    0.624518
    156          1           0      -20.525350   -7.724340   -2.354469
    157          1           0      -20.484035   -6.195982   -3.228485
    158          1           0      -21.963956   -6.669795   -2.296037
 ---------------------------------------------------------------------

 SCF Done:  E(RPBE1PBE) =  -4067.28112291     A.U. after   16 cycles

 Excitation energies and oscillator strengths:

 Excited State   1:      Singlet-A      1.7259 eV  718.37 nm  f=0.0000  <S**2>=0.000
     312 -> 313        0.70710
 This state for optimization and/or second-order correction.
 Total Energy, E(TD-HF/TD-DFT) =  -4067.21769651
 Copying the excited state density for this state as the 1-particle RhoCI density.

 Excited State   2:      Singlet-A      1.7944 eV  690.97 nm  f=0.3761  <S**2>=0.000
     309 -> 316       -0.16551
     311 -> 313        0.69585
     311 <- 313       -0.11767

 Excited State   3:      Singlet-A      1.8406 eV  673.61 nm  f=0.3425  <S**2>=0.000
     310 -> 315       -0.18896
     312 -> 314        0.68694

 Excited State   4:      Singlet-A      2.1559 eV  575.10 nm  f=0.1295  <S**2>=0.000
     308 -> 313       -0.10067
     309 -> 313        0.65388
     311 -> 316        0.23179

 Excited State   5:      Singlet-A      2.1716 eV  570.94 nm  f=0.0000  <S**2>=0.000
     311 -> 314        0.70711

 The electronic state is 1-A.
 Alpha  occ. eigenvalues --  -46.94662 -46.93358 -19.26776 -19.25339 -19.21561
 Alpha  occ. eigenvalues --  -19.20512 -19.19060 -19.18522 -19.17811 -19.17623
 Alpha  occ. eigenvalues --  -14.42121 -14.41856 -14.41513 -14.41485 -14.39842
 Alpha  occ. eigenvalues --  -14.39837 -14.39433 -14.39229 -10.37623 -10.37445
 Alpha  occ. eigenvalues --  -10.31604 -10.31273 -10.31260 -10.30919 -10.29950
 Alpha  occ. eigenvalues --  -10.29663 -10.29610 -10.29209 -10.29207 -10.29187
 Alpha  occ. eigenvalues --  -10.28973 -10.28899 -10.28787 -10.28680 -10.28660
 Alpha  occ. eigenvalues --  -10.28583 -10.28242 -10.28215 -10.28185 -10.27857
 Alpha  occ. eigenvalues --  -10.27045 -10.26982 -10.26868 -10.26776 -10.26626
 Alpha  occ. eigenvalues --  -10.26350 -10.26245 -10.26241 -10.26202 -10.26167
 Alpha  occ. eigenvalues --  -10.26125 -10.25966 -10.25904 -10.25878 -10.25817
 Alpha  occ. eigenvalues --  -10.25785 -10.25644 -10.25437 -10.25404 -10.25323
 Alpha  occ. eigenvalues --  -10.25288 -10.25256 -10.25175 -10.25148 -10.25148
 Alpha  occ. eigenvalues --  -10.25016 -10.24867 -10.24755 -10.24721 -10.24523
 Alpha  occ. eigenvalues --  -10.24403 -10.24315 -10.24280 -10.24053 -10.23840
 Alpha  occ. eigenvalues --  -10.23827 -10.23791 -10.23649 -10.23565 -10.23091
 Alpha  occ. eigenvalues --  -10.23080 -10.22985 -10.22746 -10.22712 -10.22628
 Alpha  occ. eigenvalues --  -10.22623  -3.16450  -3.15410  -1.89228  -1.88875
 Alpha  occ. eigenvalues --   -1.88626  -1.88206  -1.87820  -1.87607  -1.10522
 Alpha  occ. eigenvalues --   -1.10335  -1.06389  -1.04246  -1.04109  -1.03916
 Alpha  occ. eigenvalues --   -1.03421  -1.01990  -0.99759  -0.98946  -0.98777
 Alpha  occ. eigenvalues --   -0.98037  -0.97638  -0.97452  -0.96919  -0.95954
 Alpha  occ. eigenvalues --   -0.88726  -0.87943  -0.84117  -0.83409  -0.83013
 Alpha  occ. eigenvalues --   -0.82991  -0.82748  -0.82187  -0.82066  -0.81586
 Alpha  occ. eigenvalues --   -0.81527  -0.81150  -0.80366  -0.79881  -0.79038
 Alpha  occ. eigenvalues --   -0.78877  -0.78234  -0.77920  -0.77389  -0.76951
 Alpha  occ. eigenvalues --   -0.76434  -0.75845  -0.75322  -0.75118  -0.74882
 Alpha  occ. eigenvalues --   -0.74597  -0.72803  -0.72334  -0.72126  -0.71558
 Alpha  occ. eigenvalues --   -0.71395  -0.71168  -0.70965  -0.70310  -0.69881
 Alpha  occ. eigenvalues --   -0.69552  -0.68075  -0.67153  -0.66294  -0.66223
 Alpha  occ. eigenvalues --   -0.64379  -0.64248  -0.63837  -0.63142  -0.62729
 Alpha  occ. eigenvalues --   -0.61668  -0.61219  -0.61179  -0.60669  -0.60103
 Alpha  occ. eigenvalues --   -0.59809  -0.59421  -0.59246  -0.59185  -0.59074
 Alpha  occ. eigenvalues --   -0.58846  -0.58119  -0.56739  -0.54851  -0.54454
 Alpha  occ. eigenvalues --   -0.54299  -0.54015  -0.53886  -0.53529  -0.53266
 Alpha  occ. eigenvalues --   -0.52890  -0.52632  -0.51994  -0.51850  -0.51563
 Alpha  occ. eigenvalues --   -0.51150  -0.50625  -0.50548  -0.50376  -0.50209
 Alpha  occ. eigenvalues --   -0.49881  -0.49661  -0.49405  -0.49123  -0.48985
 Alpha  occ. eigenvalues --   -0.48513  -0.48262  -0.47965  -0.47930  -0.47737
 Alpha  occ. eigenvalues --   -0.47620  -0.47289  -0.47078  -0.46712  -0.46496
 Alpha  occ. eigenvalues --   -0.46452  -0.46401  -0.46386  -0.46180  -0.46011
 Alpha  occ. eigenvalues --   -0.45957  -0.45787  -0.45669  -0.45381  -0.45185
 Alpha  occ. eigenvalues --   -0.45140  -0.44762  -0.44641  -0.44480  -0.44326
 Alpha  occ. eigenvalues --   -0.44149  -0.43995  -0.43849  -0.43777  -0.43646
 Alpha  occ. eigenvalues --   -0.43583  -0.43129  -0.42960  -0.42901  -0.42493
 Alpha  occ. eigenvalues --   -0.42490  -0.42326  -0.42183  -0.42014  -0.41938
 Alpha  occ. eigenvalues --   -0.41843  -0.41820  -0.41681  -0.41600  -0.41192
 Alpha  occ. eigenvalues --   -0.40936  -0.40777  -0.40609  -0.40576  -0.40511
 Alpha  occ. eigenvalues --   -0.40298  -0.40160  -0.40154  -0.40147  -0.40052
 Alpha  occ. eigenvalues --   -0.39878  -0.39766  -0.39571  -0.39275  -0.39205
 Alpha  occ. eigenvalues --   -0.38984  -0.38895  -0.38805  -0.38526  -0.38336
 Alpha  occ. eigenvalues --   -0.38300  -0.38111  -0.37961  -0.37798  -0.37517
 Alpha  occ. eigenvalues --   -0.37473  -0.37234  -0.37110  -0.36980  -0.36904
 Alpha  occ. eigenvalues --   -0.36774  -0.36552  -0.36419  -0.36389  -0.36209
 Alpha  occ. eigenvalues --   -0.36130  -0.35832  -0.35743  -0.35482  -0.35337
 Alpha  occ. eigenvalues --   -0.35136  -0.34925  -0.34051  -0.33947  -0.33685
 Alpha  occ. eigenvalues --   -0.33484  -0.33264  -0.33058  -0.32875  -0.32601
 Alpha  occ. eigenvalues --   -0.32335  -0.31840  -0.31567  -0.31286  -0.31153
 Alpha  occ. eigenvalues --   -0.30769  -0.30673  -0.30010  -0.29817  -0.29417
 Alpha  occ. eigenvalues --   -0.28987  -0.28942  -0.28592  -0.27164  -0.26731
 Alpha  occ. eigenvalues --   -0.26337  -0.26227  -0.25846  -0.25278  -0.25213
 Alpha  occ. eigenvalues --   -0.24949  -0.24827  -0.23750  -0.21418  -0.20973
 Alpha  occ. eigenvalues --   -0.19363  -0.18730
 Alpha virt. eigenvalues --   -0.12061  -0.11060  -0.05979  -0.05489  -0.04354
 Alpha virt. eigenvalues --   -0.03894  -0.03118  -0.02167  -0.01900  -0.01797
 Alpha virt. eigenvalues --   -0.00056   0.00127   0.00607   0.00813   0.01705

 Mulliken charges:
               1
     1  Mg  12.000000
     2  C    6.000000
     3  C    6.000000
     4  C    6.000000
     5  C    6.000000
     6  N    7.000000
     7  C    6.000000
     8  C    6.000000
     9  C    6.000000
    10  C    6.000000
    11  C    6.000000
    12  C    6.000000
    13  C    6.000000
    14  H    1.000000
    15  N    7.000000
    16  C    6.000000
    17  C    6.000000
    18  C    6.000000
    19  C    6.000000
    20  C    6.000000
    21  C    6.000000
    22  O    8.000000
    23  C    6.000000
    24  N    7.000000
    25  C    6.000000
    26  C    6.000000
    27  C    6.000000
    28  C    6.000000
    29  C    6.000000
    30  C    6.000000
    31  C    6.000000
    32  N    7.000000
    33  C    6.000000
    34  C    6.000000
    35  C    6.000000
    36  C    6.000000
    37  C    6.000000
    38  C    6.000000
    39  O    8.000000
    40  C    6.000000
    41  C    6.000000
    42  O    8.000000
    43  O    8.000000
    44  C    6.000000
    45  H    1.000000
    46  H    1.000000
    47  H    1.000000
    48  H    1.000000
    49  H    1.000000
    50  H    1.000000
    51  H    1.000000
    52  H    1.000000
    53  H    1.000000
    54  H    1.000000
    55  H    1.000000
    56  H    1.000000
    57  H    1.000000
    58  H    1.000000
    59  H    1.000000
    60  H    1.000000
    61  H    1.000000
    62  H    1.000000
    63  H    1.000000
    64  H    1.000000
    65  H    1.000000
    66  H    1.000000
    67  H    1.000000
    68  H    1.000000
    69  H    1.000000
    70  H    1.000000
    71  H    1.000000
    72  H    1.000000
    73  H    1.000000
    74  H    1.000000
    75  H    1.000000
    76  H    1.000000
    77  H    1.000000
    78  H    1.000000
    79  H    1.000000
    80  Mg  12.000000
    81  C    6.000000
    82  C    6.000000
    83  C    6.000000
    84  C    6.000000
    85  N    7.000000
    86  C    6.000000
    87  C    6.000000
    88  C    6.000000
    89  C    6.000000
    90  C    6.000000
    91  C    6.000000
    92  C    6.000000
    93  H    1.000000
    94  N    7.000000
    95  C    6.000000
    96  C    6.000000
    97  C    6.000000
    98  C    6.000000
    99  C    6.000000
   100  C    6.000000
   101  O    8.000000
   102  C    6.000000
   103  N    7.000000
   104  C    6.000000
   105  C    6.000000
   106  C    6.000000
   107  C    6.000000
   108  C    6.000000
   109  C    6.000000
   110  C    6.000000
   111  N    7.000000
   112  C    6.000000
   113  C    6.000000
   114  C    6.000000
   115  C    6.000000
   116  C    6.000000
   117  C    6.000000
   118  O    8.000000
   119  C    6.000000
   120  C    6.000000
   121  O    8.000000
   122  O    8.000000
   123  C    6.000000
   124  H    1.000000
   125  H    1.000000
   126  H    1.000000
   127  H    1.000000
   128  H    1.000000
   129  H    1.000000
   130  H    1.000000
   131  H    1.000000
   132  H    1.000000
   133  H    1.000000
   134  H    1.000000
   135  H    1.000000
   136  H    1.000000
   137  H    1.000000
   138  H    1.000000
   139  H    1.000000
   140  H    1.000000
   141  H    1.000000
   142  H    1.000000
   143  H    1.000000
   144  H    1.000000
   145  H    1.000000
   146  H    1.000000
   147  H    1.000000
   148  H    1.000000
   149  H    1.000000
   150  H    1.000000
   151  H    1.000000
   152  H    1.000000
   153  H    1.000000
   154  H    1.000000
   155  H    1.000000
   156  H    1.000000
   157  H    1.000000
   158  H    1.000000
 Sum of Mulliken charges = 624.00000

 Dipole moment (field-independent basis, Debye):
    X=             -0.0000    Y=             -0.0000    Z=              0.0000  Tot=              0.0000
 Quadrupole moment (field-independent basis, Debye-Ang):
   XX=              0.0000   YY=             -0.0000   ZZ=              0.0000
   XY=              0.0000   XZ=             -0.0000   YZ=              0.0000

 Normal termination of Gaussian 16 at Thu Oct 14 05:30:50 2021.
