 Gaussian 16, Revision A.03,
 Gaussian 16:  ES64L-G16RevA.03 25-Dec-2016

 --------------------------------------------------------
 #p PBE1PBE/Def2SVP td=(nstates=5) density=(transition=1)
 --------------------------------------------------------

 --------------------------------
 TDDFT excited states in gaussian
 --------------------------------
 Symbolic Z-matrix:
 Charge =  0 Multiplicity = 1

                         Standard orientation:
 ---------------------------------------------------------------------
 Center     Atomic      Atomic             Coordinates (Angstroms)
 Number     Number       Type             X           Y           Z
 ---------------------------------------------------------------------
      1         12           0      -27.277160   -0.524187   -0.013775
      2          6           0      -25.868900    2.337526   -1.411964
      3          6           0      -28.377223    1.349879    2.653168
      4          6           0      -28.341921   -3.430198    1.336681
      5          6           0      -25.743297   -2.420123   -2.625747
      6          7           0      -27.024634    1.557084    0.565914
      7          6           0      -26.447792    2.560177   -0.149966
      8          6           0      -26.648544    3.920725    0.529956
      9          6           0      -27.335412    3.492149    1.901405
     10          6           0      -27.608265    2.002382    1.668971
     11          6           0      -26.417104    3.715604    3.096873
     12          6           0      -27.627676    4.912283   -0.193756
     13          6           0      -27.399107    6.386717    0.015336
     14          1           0      -26.537041    6.836941    1.108438
     15          7           0      -28.288268   -0.947470    1.676730
     16          6           0      -28.646841   -0.013626    2.669373
     17          6           0      -29.489598   -0.718999    3.599023
     18          6           0      -29.554706   -2.088191    3.236587
     19          6           0      -28.700644   -2.215943    2.030126
     20          6           0      -29.997925   -0.105170    4.885961
     21          6           0      -30.300561   -3.213439    3.821395
     22          8           0      -30.102751   -4.371453    3.520996
     23          6           0      -31.301115   -2.972919    5.009482
     24          7           0      -27.236257   -2.677877   -0.635607
     25          6           0      -27.716567   -3.629917    0.107109
     26          6           0      -27.455047   -5.031141   -0.522747
     27          6           0      -26.703810   -4.735265   -1.808076
     28          6           0      -26.470226   -3.184536   -1.712681
     29          6           0      -26.745380   -5.997517    0.538246
     30          6           0      -27.455316   -5.205148   -3.071539
     31          6           0      -27.062207   -6.610807   -3.661864
     32          7           0      -26.317547   -0.174294   -1.762642
     33          6           0      -25.743765   -1.032616   -2.733232
     34          6           0      -25.129835   -0.294951   -3.770660
     35          6           0      -25.098869    1.053747   -3.213677
     36          6           0      -25.872491    1.021810   -2.018299
     37          6           0      -24.331585   -0.873226   -4.924792
     38          6           0      -24.565786    2.335015   -3.497181
     39          8           0      -23.914740    2.765060   -4.441040
     40          6           0      -25.167895    3.305439   -2.281986
     41          6           0      -23.968144    3.995905   -1.702832
     42          8           0      -22.999174    3.414038   -1.203855
     43          8           0      -23.993609    5.407314   -1.908101
     44          6           0      -22.821754    6.164455   -1.367032
     45          1           0      -28.693329    2.005145    3.468399
     46          1           0      -28.550674   -4.326009    1.924626
     47          1           0      -25.298278   -2.944414   -3.473581
     48          1           0      -25.650681    4.331872    0.684304
     49          1           0      -28.246631    4.051509    2.112892
     50          1           0      -25.578445    4.360275    2.835300
     51          1           0      -26.093544    2.783337    3.560585
     52          1           0      -26.856490    4.333657    3.879883
     53          1           0      -28.640626    4.649881    0.109499
     54          1           0      -27.613184    4.643140   -1.250132
     55          1           0      -28.364791    6.821857    0.271702
     56          1           0      -27.000698    6.818042   -0.903029
     57          1           0      -29.562550   -0.555754    5.777819
     58          1           0      -31.086143   -0.180234    4.887259
     59          1           0      -29.775678    0.951453    5.034272
     60          1           0      -30.686086   -2.925511    5.908518
     61          1           0      -31.915479   -3.859452    5.167289
     62          1           0      -31.824235   -2.024660    4.892142
     63          1           0      -28.462322   -5.405996   -0.705313
     64          1           0      -25.686432   -5.122451   -1.780512
     65          1           0      -25.805865   -6.380261    0.139839
     66          1           0      -27.306115   -6.910583    0.739190
     67          1           0      -26.559873   -5.359599    1.403374
     68          1           0      -27.260295   -4.449921   -3.833733
     69          1           0      -28.518177   -5.166031   -2.832542
     70          1           0      -26.207070   -6.462753   -4.322293
     71          1           0      -27.829221   -7.211555   -4.151004
     72          1           0      -26.667220   -7.093337   -2.768493
     73          1           0      -25.098981   -1.107278   -5.662180
     74          1           0      -23.817736   -1.788827   -4.634385
     75          1           0      -23.462549   -0.299734   -5.249808
     76          1           0      -25.899450    3.990897   -2.711645
     77          1           0      -21.894031    5.872530   -1.857861
     78          1           0      -22.626474    6.122058   -0.295174
     79          1           0      -23.095582    7.163086   -1.707400
     80         12           0       27.301970   -0.750189    0.247254
     81          6           0       25.586922    2.193396    1.251313
     82          6           0       29.260841    1.379532   -1.787232
     83          6           0       28.722885   -3.391848   -1.036091
     84          6           0       25.047580   -2.634344    2.108509
     85          7           0       27.407367    1.574223   -0.231861
     86          6           0       26.645251    2.517554    0.412653
     87          6           0       27.047012    3.943409    0.075232
     88          6           0       28.159674    3.631680   -1.015206
     89          6           0       28.327702    2.104556   -0.996894
     90          6           0       27.815186    4.285178   -2.350303
     91          6           0       27.594678    4.667875    1.324526
     92          6           0       27.285501    6.203308    1.501664
     93          1           0       26.883250    7.014906    0.247744
     94          7           0       28.847336   -0.987626   -1.159604
     95          6           0       29.451567    0.006572   -1.929657
     96          6           0       30.457887   -0.633042   -2.791938
     97          6           0       30.373077   -2.033621   -2.500587
     98          6           0       29.302426   -2.151542   -1.492212
     99          6           0       31.242412    0.085540   -3.754565
    100          6           0       31.181846   -3.179229   -3.100779
    101          8           0       30.925846   -4.360290   -2.817392
    102          6           0       32.399537   -2.909950   -3.894528
    103          7           0       26.867921   -2.740283    0.421764
    104          6           0       27.673986   -3.648877   -0.133763
    105          6           0       27.174862   -5.100072    0.164206
    106          6           0       26.142410   -4.842736    1.307340
    107          6           0       25.969345   -3.356241    1.298026
    108          6           0       26.635620   -5.870196   -1.094597
    109          6           0       26.857746   -5.327917    2.625714
    110          6           0       27.658267   -4.312008    3.511414
    111          7           0       25.723059   -0.358118    1.518799
    112          6           0       24.882626   -1.257622    2.199441
    113          6           0       23.835604   -0.474389    2.901340
    114          6           0       24.059444    0.837656    2.500773
    115          6           0       25.188574    0.917759    1.713470
    116          6           0       22.708363   -1.147934    3.522702
    117          6           0       23.447092    2.162513    2.562603
    118          8           0       22.400662    2.483722    3.114427
    119          6           0       24.409240    3.124049    1.719074
    120          6           0       23.675302    3.777586    0.608239
    121          8           0       23.607891    3.377413   -0.550398
    122          8           0       23.073661    4.956469    1.087764
    123          6           0       22.239140    5.777942    0.240369
    124          1           0       30.058917    1.967859   -2.245700
    125          1           0       29.168290   -4.316391   -1.410315
    126          1           0       24.433239   -3.327691    2.686197
    127          1           0       26.224272    4.524113   -0.342681
    128          1           0       29.047363    4.177811   -0.697239
    129          1           0       28.585871    4.941243   -2.753406
    130          1           0       26.888177    4.857820   -2.380202
    131          1           0       27.759983    3.477634   -3.081531
    132          1           0       28.676171    4.552930    1.396068
    133          1           0       27.140340    4.067160    2.113211
    134          1           0       28.176479    6.731743    1.839152
    135          1           0       26.647610    6.262012    2.383552
    136          1           0       32.281889   -0.175499   -3.554900
    137          1           0       30.929931    1.127710   -3.812947
    138          1           0       30.842835   -0.336103   -4.677415
    139          1           0       32.192841   -2.506216   -4.886138
    140          1           0       32.934446   -3.844476   -4.062667
    141          1           0       32.947899   -2.111914   -3.394820
    142          1           0       28.128959   -5.527348    0.472895
    143          1           0       25.236166   -5.434820    1.177373
    144          1           0       27.419285   -6.506119   -1.506601
    145          1           0       26.233370   -5.117451   -1.771817
    146          1           0       25.811854   -6.486436   -0.734764
    147          1           0       27.384778   -6.260937    2.425176
    148          1           0       26.022894   -5.479422    3.310589
    149          1           0       28.565392   -4.861310    3.761715
    150          1           0       27.147484   -4.062155    4.442240
    151          1           0       27.969414   -3.389414    3.022601
    152          1           0       22.304139   -1.870270    2.814671
    153          1           0       21.950824   -0.383063    3.696591
    154          1           0       22.962674   -1.493950    4.524184
    155          1           0       24.705065    3.879653    2.447505
    156          1           0       21.174837    5.571091    0.349825
    157          1           0       22.647386    5.852641   -0.767642
    158          1           0       22.489020    6.770476    0.616338
 ---------------------------------------------------------------------

 SCF Done:  E(RPBE1PBE) =  -4067.40546709     A.U. after   16 cycles

 Excitation energies and oscillator strengths:

 Excited State   1:      Singlet-A      1.8100 eV  685.00 nm  f=0.0000  <S**2>=0.000
     312 -> 313        0.70711
 This state for optimization and/or second-order correction.
 Total Energy, E(TD-HF/TD-DFT) =  -4067.33895122
 Copying the excited state density for this state as the 1-particle RhoCI density.

 Excited State   2:      Singlet-A      1.8459 eV  671.68 nm  f=0.3596  <S**2>=0.000
     309 -> 315        0.17462
     311 -> 313        0.69231
     311 <- 313       -0.10447

 Excited State   3:      Singlet-A      1.8853 eV  657.63 nm  f=0.3621  <S**2>=0.000
     310 -> 316        0.18511
     312 -> 314        0.68869
     312 <- 314       -0.10057

 Excited State   4:      Singlet-A      2.2119 eV  560.54 nm  f=0.1392  <S**2>=0.000
     309 -> 313        0.66070
     311 -> 315       -0.23956

 Excited State   5:      Singlet-A      2.2389 eV  553.78 nm  f=0.0000  <S**2>=0.000
     311 -> 314        0.70711

 The electronic state is 1-A.
 Alpha  occ. eigenvalues --  -46.91900 -46.91392 -19.24898 -19.24637 -19.20066
 Alpha  occ. eigenvalues --  -19.19760 -19.19641 -19.19165 -19.18868 -19.18801
 Alpha  occ. eigenvalues --  -14.42129 -14.41427 -14.41195 -14.40968 -14.39724
 Alpha  occ. eigenvalues --  -14.39203 -14.39191 -14.38704 -10.36440 -10.36181
 Alpha  occ. eigenvalues --  -10.32622 -10.32282 -10.32243 -10.31801 -10.29078
 Alpha  occ. eigenvalues --  -10.28995 -10.28795 -10.28764 -10.28673 -10.28536
 Alpha  occ. eigenvalues --  -10.28476 -10.28386 -10.28380 -10.28311 -10.28096
 Alpha  occ. eigenvalues --  -10.28014 -10.27850 -10.27759 -10.27124 -10.27102
 Alpha  occ. eigenvalues --  -10.26882 -10.26845 -10.26737 -10.26524 -10.26340
 Alpha  occ. eigenvalues --  -10.26157 -10.26000 -10.25960 -10.25843 -10.25789
 Alpha  occ. eigenvalues --  -10.25777 -10.25622 -10.25476 -10.25464 -10.25435
 Alpha  occ. eigenvalues --  -10.25400 -10.25244 -10.25130 -10.25111 -10.25096
 Alpha  occ. eigenvalues --  -10.25008 -10.25000 -10.24965 -10.24880 -10.24760
 Alpha  occ. eigenvalues --  -10.24652 -10.24598 -10.24491 -10.24422 -10.24242
 Alpha  occ. eigenvalues --  -10.24115 -10.24092 -10.23922 -10.23638 -10.23585
 Alpha  occ. eigenvalues --  -10.23457 -10.23373 -10.23297 -10.23240 -10.23224
 Alpha  occ. eigenvalues --  -10.23123 -10.22761 -10.22761 -10.22717 -10.22683
 Alpha  occ. eigenvalues --  -10.22555  -3.14024  -3.13664  -1.86873  -1.86518
 Alpha  occ. eigenvalues --   -1.86412  -1.86234  -1.86031  -1.85908  -1.09374
 Alpha  occ. eigenvalues --   -1.08258  -1.05556  -1.04492  -1.03756  -1.03734
 Alpha  occ. eigenvalues --   -1.02040  -1.00734  -0.99791  -0.99267  -0.98731
 Alpha  occ. eigenvalues --   -0.98583  -0.98155  -0.97754  -0.96839  -0.96172
 Alpha  occ. eigenvalues --   -0.86609  -0.86365  -0.83944  -0.83563  -0.83230
 Alpha  occ. eigenvalues --   -0.82904  -0.82722  -0.82644  -0.82021  -0.81738
 Alpha  occ. eigenvalues --   -0.81580  -0.81106  -0.80736  -0.80622  -0.78543
 Alpha  occ. eigenvalues --   -0.78323  -0.77605  -0.77374  -0.76670  -0.76465
 Alpha  occ. eigenvalues --   -0.76242  -0.75718  -0.75179  -0.74804  -0.74590
 Alpha  occ. eigenvalues --   -0.74292  -0.73077  -0.72838  -0.71651  -0.71455
 Alpha  occ. eigenvalues --   -0.71188  -0.71182  -0.70202  -0.70076  -0.69406
 Alpha  occ. eigenvalues --   -0.69120  -0.67645  -0.66620  -0.66048  -0.65751
 Alpha  occ. eigenvalues --   -0.63826  -0.63641  -0.63367  -0.63193  -0.62585
 Alpha  occ. eigenvalues --   -0.62345  -0.61658  -0.61029  -0.60183  -0.59724
 Alpha  occ. eigenvalues --   -0.59473  -0.59334  -0.59233  -0.59180  -0.58989
 Alpha  occ. eigenvalues --   -0.58759  -0.56107  -0.56063  -0.54788  -0.54753
 Alpha  occ. eigenvalues --   -0.54264  -0.53935  -0.53916  -0.53565  -0.53231
 Alpha  occ. eigenvalues --   -0.52565  -0.52443  -0.52415  -0.51873  -0.51741
 Alpha  occ. eigenvalues --   -0.50816  -0.50811  -0.50059  -0.49776  -0.49533
 Alpha  occ. eigenvalues --   -0.49210  -0.48798  -0.48613  -0.48414  -0.48178
 Alpha  occ. eigenvalues --   -0.47846  -0.47796  -0.47718  -0.47696  -0.47369
 Alpha  occ. eigenvalues --   -0.47341  -0.47045  -0.46886  -0.46831  -0.46745
 Alpha  occ. eigenvalues --   -0.46659  -0.46314  -0.46211  -0.46152  -0.45961
 Alpha  occ. eigenvalues --   -0.45758  -0.45317  -0.45280  -0.45138  -0.44663
 Alpha  occ. eigenvalues --   -0.44450  -0.44439  -0.44300  -0.44185  -0.44072
 Alpha  occ. eigenvalues --   -0.43874  -0.43834  -0.43650  -0.43626  -0.43443
 Alpha  occ. eigenvalues --   -0.43159  -0.43102  -0.43024  -0.42966  -0.42856
 Alpha  occ. eigenvalues --   -0.42674  -0.42366  -0.42238  -0.42217  -0.42049
 Alpha  occ. eigenvalues --   -0.41892  -0.41777  -0.41655  -0.41623  -0.41561
 Alpha  occ. eigenvalues --   -0.41264  -0.40894  -0.40738  -0.40490  -0.40187
 Alpha  occ. eigenvalues --   -0.39981  -0.39847  -0.39715  -0.39500  -0.39387
 Alpha  occ. eigenvalues --   -0.39277  -0.39050  -0.38957  -0.38892  -0.38822
 Alpha  occ. eigenvalues --   -0.38793  -0.38745  -0.38722  -0.38467  -0.38270
 Alpha  occ. eigenvalues --   -0.38216  -0.38143  -0.37933  -0.37768  -0.37740
 Alpha  occ. eigenvalues --   -0.37561  -0.37497  -0.37027  -0.36845  -0.36796
 Alpha  occ. eigenvalues --   -0.36735  -0.36643  -0.36488  -0.36196  -0.36041
 Alpha  occ. eigenvalues --   -0.35901  -0.35717  -0.35400  -0.35194  -0.35088
 Alpha  occ. eigenvalues --   -0.34801  -0.34719  -0.34422  -0.34207  -0.33600
 Alpha  occ. eigenvalues --   -0.33439  -0.32803  -0.32699  -0.32407  -0.32288
 Alpha  occ. eigenvalues --   -0.32134  -0.32045  -0.31695  -0.31240  -0.31023
 Alpha  occ. eigenvalues --   -0.30779  -0.30722  -0.29713  -0.29274  -0.29185
 Alpha  occ. eigenvalues --   -0.29058  -0.28676  -0.28574  -0.26999  -0.26595
 Alpha  occ. eigenvalues --   -0.26033  -0.25840  -0.25763  -0.25710  -0.25660
 Alpha  occ. eigenvalues --   -0.25496  -0.25100  -0.25084  -0.21107  -0.20759
 Alpha  occ. eigenvalues --   -0.19139  -0.18431
 Alpha virt. eigenvalues --   -0.11536  -0.10668  -0.05235  -0.05154  -0.03979
 Alpha virt. eigenvalues --   -0.03969  -0.02175  -0.02037   0.00002   0.00270
 Alpha virt. eigenvalues --    0.00551   0.01095   0.01138   0.01321   0.01630

 Mulliken charges:
               1
     1  Mg  12.000000
     2  C    6.000000
     3  C    6.000000
     4  C    6.000000
     5  C    6.000000
     6  N    7.000000
     7  C    6.000000
     8  C    6.000000
     9  C    6.000000
    10  C    6.000000
    11  C    6.000000
    12  C    6.000000
    13  C    6.000000
    14  H    1.000000
    15  N    7.000000
    16  C    6.000000
    17  C    6.000000
    18  C    6.000000
    19  C    6.000000
    20  C    6.000000
    21  C    6.000000
    22  O    8.000000
    23  C    6.000000
    24  N    7.000000
    25  C    6.000000
    26  C    6.000000
    27  C    6.000000
    28  C    6.000000
    29  C    6.000000
    30  C    6.000000
    31  C    6.000000
    32  N    7.000000
    33  C    6.000000
    34  C    6.000000
    35  C    6.000000
    36  C    6.000000
    37  C    6.000000
    38  C    6.000000
    39  O    8.000000
    40  C    6.000000
    41  C    6.000000
    42  O    8.000000
    43  O    8.000000
    44  C    6.000000
    45  H    1.000000
    46  H    1.000000
    47  H    1.000000
    48  H    1.000000
    49  H    1.000000
    50  H    1.000000
    51  H    1.000000
    52  H    1.000000
    53  H    1.000000
    54  H    1.000000
    55  H    1.000000
    56  H    1.000000
    57  H    1.000000
    58  H    1.000000
    59  H    1.000000
    60  H    1.000000
    61  H    1.000000
    62  H    1.000000
    63  H    1.000000
    64  H    1.000000
    65  H    1.000000
    66  H    1.000000
    67  H    1.000000
    68  H    1.000000
    69  H    1.000000
    70  H    1.000000
    71  H    1.000000
    72  H    1.000000
    73  H    1.000000
    74  H    1.000000
    75  H    1.000000
    76  H    1.000000
    77  H    1.000000
    78  H    1.000000
    79  H    1.000000
    80  Mg  12.000000
    81  C    6.000000
    82  C    6.000000
    83  C    6.000000
    84  C    6.000000
    85  N    7.000000
    86  C    6.000000
    87  C    6.000000
    88  C    6.000000
    89  C    6.000000
    90  C    6.000000
    91  C    6.000000
    92  C    6.000000
    93  H    1.000000
    94  N    7.000000
    95  C    6.000000
    96  C    6.000000
    97  C    6.000000
    98  C    6.000000
    99  C    6.000000
   100  C    6.000000
   101  O    8.000000
   102  C    6.000000
   103  N    7.000000
   104  C    6.000000
   105  C    6.000000
   106  C    6.000000
   107  C    6.000000
   108  C    6.000000
   109  C    6.000000
   110  C    6.000000
   111  N    7.000000
   112  C    6.000000
   113  C    6.000000
   114  C    6.000000
   115  C    6.000000
   116  C    6.000000
   117  C    6.000000
   118  O    8.000000
   119  C    6.000000
   120  C    6.000000
   121  O    8.000000
   122  O    8.000000
   123  C    6.000000
   124  H    1.000000
   125  H    1.000000
   126  H    1.000000
   127  H    1.000000
   128  H    1.000000
   129  H    1.000000
   130  H    1.000000
   131  H    1.000000
   132  H    1.000000
   133  H    1.000000
   134  H    1.000000
   135  H    1.000000
   136  H    1.000000
   137  H    1.000000
   138  H    1.000000
   139  H    1.000000
   140  H    1.000000
   141  H    1.000000
   142  H    1.000000
   143  H    1.000000
   144  H    1.000000
   145  H    1.000000
   146  H    1.000000
   147  H    1.000000
   148  H    1.000000
   149  H    1.000000
   150  H    1.000000
   151  H    1.000000
   152  H    1.000000
   153  H    1.000000
   154  H    1.000000
   155  H    1.000000
   156  H    1.000000
   157  H    1.000000
   158  H    1.000000
 Sum of Mulliken charges = 624.00000

 Dipole moment (field-independent basis, Debye):
    X=             -0.0000    Y=              0.0000    Z=              0.0000  Tot=              0.0000
 Quadrupole moment (field-independent basis, Debye-Ang):
   XX=             -0.0000   YY=              0.0000   ZZ=             -0.0000
   XY=              0.0000   XZ=              0.0000   YZ=             -0.0000

 Normal termination of Gaussian 16 at Fri Oct 15 10:14:38 2021.
