 Gaussian 16, Revision A.03,
 Gaussian 16:  ES64L-G16RevA.03 25-Dec-2016

 --------------------------------------------------------
 #p PBE1PBE/Def2SVP td=(nstates=5) density=(transition=1)
 --------------------------------------------------------

 --------------------------------
 TDDFT excited states in gaussian
 --------------------------------
 Symbolic Z-matrix:
 Charge =  0 Multiplicity = 1

                         Standard orientation:
 ---------------------------------------------------------------------
 Center     Atomic      Atomic             Coordinates (Angstroms)
 Number     Number       Type             X           Y           Z
 ---------------------------------------------------------------------
      1         12           0      -26.049105    0.319972    0.078942
      2          6           0      -23.881090   -2.276077    0.466550
      3          6           0      -23.291726    2.369319   -0.396754
      4          6           0      -28.191949    2.791159   -0.678719
      5          6           0      -28.744925   -1.935769   -0.094125
      6          7           0      -23.834126    0.004565   -0.214936
      7          6           0      -23.220839   -1.167019    0.047067
      8          6           0      -21.758233   -1.112874   -0.204391
      9          6           0      -21.544558    0.523604   -0.110659
     10          6           0      -22.991749    1.041325   -0.248968
     11          6           0      -20.807292    0.963706    1.188472
     12          6           0      -21.454957   -1.660329   -1.590059
     13          6           0      -22.192186   -1.026604   -2.859162
     14          1           0      -21.431568   -0.801719   -4.160040
     15          7           0      -25.793130    2.293363   -0.461151
     16          6           0      -24.567937    3.006852   -0.471879
     17          6           0      -24.890023    4.386450   -0.623935
     18          6           0      -26.262126    4.557669   -0.759446
     19          6           0      -26.850672    3.217307   -0.599380
     20          6           0      -23.751345    5.385997   -0.634315
     21          6           0      -27.003636    5.833049   -1.081618
     22          8           0      -26.288184    6.854986   -1.229909
     23          6           0      -28.380833    5.937790   -1.430032
     24          7           0      -28.145977    0.355518   -0.541634
     25          6           0      -28.803841    1.534669   -0.734314
     26          6           0      -30.302894    1.297873   -1.036751
     27          6           0      -30.448205   -0.248751   -0.839705
     28          6           0      -29.015776   -0.660503   -0.544736
     29          6           0      -31.231552    2.124152   -0.172800
     30          6           0      -31.079148   -0.951143   -2.157314
     31          6           0      -32.122381   -2.031686   -1.850604
     32          7           0      -26.355517   -1.755428    0.170245
     33          6           0      -27.476769   -2.512164    0.291839
     34          6           0      -27.055314   -3.817667    0.721853
     35          6           0      -25.624580   -3.822456    0.864928
     36          6           0      -25.259831   -2.540882    0.486805
     37          6           0      -27.913647   -5.035926    0.741273
     38          6           0      -24.432501   -4.563504    1.125386
     39          8           0      -24.408133   -5.748304    1.481773
     40          6           0      -23.286027   -3.591822    0.914903
     41          6           0      -22.512960   -3.493422    2.176837
     42          8           0      -22.040204   -4.502028    2.662827
     43          8           0      -22.332536   -2.223923    2.634437
     44          6           0      -21.550861   -2.112192    3.867489
     45          1           0      -22.446531    3.049036   -0.270853
     46          1           0      -28.884860    3.634902   -0.687903
     47          1           0      -29.543471   -2.667855    0.045408
     48          1           0      -21.098682   -1.655375    0.473021
     49          1           0      -20.832107    0.865857   -0.862372
     50          1           0      -19.896379    1.504471    0.934354
     51          1           0      -20.516889    0.051184    1.709794
     52          1           0      -21.410213    1.558939    1.875476
     53          1           0      -21.585163   -2.741544   -1.539618
     54          1           0      -20.366861   -1.605711   -1.622007
     55          1           0      -22.635365   -0.042483   -2.706278
     56          1           0      -22.933643   -1.792667   -3.084200
     57          1           0      -23.396405    5.407980   -1.664844
     58          1           0      -22.945330    5.008422   -0.006368
     59          1           0      -23.989654    6.396053   -0.299657
     60          1           0      -28.565648    6.774065   -2.105002
     61          1           0      -29.052135    5.911929   -0.570702
     62          1           0      -28.566911    5.078719   -2.073176
     63          1           0      -30.385045    1.565126   -2.090862
     64          1           0      -31.005833   -0.445769    0.075699
     65          1           0      -30.720312    2.844477    0.465286
     66          1           0      -32.022956    1.658311    0.413754
     67          1           0      -31.681974    2.802671   -0.897842
     68          1           0      -30.339048   -1.425329   -2.801993
     69          1           0      -31.519187   -0.222826   -2.838273
     70          1           0      -33.103646   -1.635463   -2.110393
     71          1           0      -32.143819   -2.186510   -0.771659
     72          1           0      -31.947352   -2.959576   -2.395330
     73          1           0      -28.703226   -5.084116    1.490200
     74          1           0      -27.220769   -5.868792    0.866885
     75          1           0      -28.451746   -5.173701   -0.196642
     76          1           0      -22.655994   -4.031356    0.141068
     77          1           0      -20.579714   -2.574309    3.687923
     78          1           0      -22.055994   -2.525588    4.740588
     79          1           0      -21.477720   -1.071430    4.182689
     80         12           0       25.682489   -0.333731   -0.671452
     81          6           0       24.782427    1.631144    2.183464
     82          6           0       25.931483   -3.089313    1.362922
     83          6           0       26.982097   -2.157176   -3.200065
     84          6           0       26.318261    2.699059   -2.356485
     85          7           0       25.374137   -0.658157    1.507181
     86          6           0       24.941752    0.244375    2.491585
     87          6           0       24.751739   -0.496415    3.790359
     88          6           0       25.616426   -1.807318    3.562491
     89          6           0       25.709319   -1.841177    2.008636
     90          6           0       27.011374   -1.590928    4.250352
     91          6           0       23.250795   -0.692208    4.205295
     92          6           0       23.074811   -0.413419    5.612631
     93          1           0       21.545321   -0.230716    6.083806
     94          7           0       26.176521   -2.402906   -0.844867
     95          6           0       26.173188   -3.361554    0.089092
     96          6           0       26.478231   -4.618495   -0.522347
     97          6           0       26.807624   -4.389323   -1.841761
     98          6           0       26.611308   -2.883398   -2.068892
     99          6           0       26.619667   -5.934085    0.307304
    100          6           0       27.179122   -5.405512   -2.941194
    101          8           0       27.470324   -5.000507   -4.038068
    102          6           0       27.092404   -6.891129   -2.682116
    103          7           0       26.782930    0.251258   -2.412682
    104          6           0       27.082957   -0.730402   -3.350730
    105          6           0       27.432964   -0.116687   -4.667268
    106          6           0       27.200185    1.451825   -4.411212
    107          6           0       26.673745    1.487117   -2.995794
    108          6           0       28.789075   -0.503425   -5.152721
    109          6           0       26.236813    2.247035   -5.452649
    110          6           0       26.819756    3.361426   -6.228312
    111          7           0       25.545476    1.759304   -0.259312
    112          6           0       25.851238    2.833444   -1.064275
    113          6           0       25.489258    4.105526   -0.300328
    114          6           0       24.959332    3.679787    0.934240
    115          6           0       25.064673    2.244706    0.930692
    116          6           0       25.714244    5.529752   -0.826158
    117          6           0       24.518995    4.180642    2.201015
    118          8           0       24.343713    5.356949    2.591379
    119          6           0       24.543448    2.897068    3.128441
    120          6           0       23.217021    2.953139    3.944378
    121          8           0       22.242367    2.248610    3.623547
    122          8           0       23.370425    3.768457    5.016521
    123          6           0       22.029357    3.966808    5.666364
    124          1           0       25.798156   -4.004134    1.944742
    125          1           0       27.386607   -2.728112   -4.039230
    126          1           0       26.388343    3.681928   -2.826859
    127          1           0       25.287001    0.084268    4.541285
    128          1           0       25.141775   -2.685317    3.999141
    129          1           0       27.664763   -0.909023    3.706684
    130          1           0       27.482094   -2.561675    4.399914
    131          1           0       26.849523   -1.180511    5.247349
    132          1           0       23.055230   -1.762801    4.140062
    133          1           0       22.570791   -0.148563    3.549010
    134          1           0       23.469286    0.569420    5.871099
    135          1           0       23.538986   -1.229414    6.167070
    136          1           0       25.923897   -6.609326   -0.190667
    137          1           0       26.316536   -5.853845    1.351118
    138          1           0       27.658108   -6.265046    0.301884
    139          1           0       27.470316   -7.451421   -3.537382
    140          1           0       26.009385   -6.930708   -2.565888
    141          1           0       27.651626   -7.108862   -1.772237
    142          1           0       26.656551   -0.509967   -5.323747
    143          1           0       28.181367    1.922678   -4.466532
    144          1           0       28.594713   -1.154091   -6.004398
    145          1           0       29.330007   -1.134918   -4.448108
    146          1           0       29.447023    0.323923   -5.419602
    147          1           0       25.509606    2.702781   -4.780718
    148          1           0       25.725120    1.503011   -6.061681
    149          1           0       26.341933    4.308243   -5.978015
    150          1           0       26.439116    3.045907   -7.199133
    151          1           0       27.910369    3.349262   -6.247818
    152          1           0       26.684851    5.835302   -0.437046
    153          1           0       24.949130    6.227027   -0.484957
    154          1           0       25.658458    5.517666   -1.914689
    155          1           0       25.421394    3.062623    3.751367
    156          1           0       21.348553    4.621953    5.123111
    157          1           0       22.069064    4.327529    6.693666
    158          1           0       21.605798    2.967349    5.767290
 ---------------------------------------------------------------------

 SCF Done:  E(RPBE1PBE) =  -4067.34449808     A.U. after   16 cycles

 Excitation energies and oscillator strengths:

 Excited State   1:      Singlet-A      1.6599 eV  746.93 nm  f=0.0000  <S**2>=0.000
     312 -> 313        0.70711
 This state for optimization and/or second-order correction.
 Total Energy, E(TD-HF/TD-DFT) =  -4067.28349737
 Copying the excited state density for this state as the 1-particle RhoCI density.

 Excited State   2:      Singlet-A      1.8312 eV  677.06 nm  f=0.3437  <S**2>=0.000
     310 -> 315        0.18210
     312 -> 314        0.68924

 Excited State   3:      Singlet-A      1.8908 eV  655.72 nm  f=0.3805  <S**2>=0.000
     309 -> 316       -0.16984
     311 -> 313        0.69196
     311 <- 313       -0.10819

 Excited State   4:      Singlet-A      2.2081 eV  561.50 nm  f=0.1164  <S**2>=0.000
     309 -> 313        0.66035
     311 -> 316        0.22031

 Excited State   5:      Singlet-A      2.2731 eV  545.45 nm  f=0.0126  <S**2>=0.000
     310 -> 314        0.57939
     312 -> 315       -0.39823

 The electronic state is 1-A.
 Alpha  occ. eigenvalues --  -46.92804 -46.92470 -19.27051 -19.26842 -19.20070
 Alpha  occ. eigenvalues --  -19.19753 -19.19463 -19.19171 -19.18679 -19.18246
 Alpha  occ. eigenvalues --  -14.41717 -14.41569 -14.41492 -14.41480 -14.39382
 Alpha  occ. eigenvalues --  -14.38919 -14.38916 -14.38380 -10.36787 -10.36512
 Alpha  occ. eigenvalues --  -10.32596 -10.32211 -10.31817 -10.31726 -10.29972
 Alpha  occ. eigenvalues --  -10.29237 -10.28900 -10.28880 -10.28844 -10.28793
 Alpha  occ. eigenvalues --  -10.28735 -10.28679 -10.28603 -10.28453 -10.28325
 Alpha  occ. eigenvalues --  -10.28022 -10.27867 -10.27222 -10.27134 -10.26704
 Alpha  occ. eigenvalues --  -10.26656 -10.26577 -10.26476 -10.26302 -10.26259
 Alpha  occ. eigenvalues --  -10.26243 -10.26216 -10.26200 -10.26142 -10.26082
 Alpha  occ. eigenvalues --  -10.26066 -10.25879 -10.25873 -10.25690 -10.25687
 Alpha  occ. eigenvalues --  -10.25545 -10.25293 -10.25260 -10.25256 -10.25224
 Alpha  occ. eigenvalues --  -10.24976 -10.24905 -10.24900 -10.24884 -10.24866
 Alpha  occ. eigenvalues --  -10.24786 -10.24678 -10.24485 -10.24160 -10.24077
 Alpha  occ. eigenvalues --  -10.24035 -10.23983 -10.23781 -10.23777 -10.23673
 Alpha  occ. eigenvalues --  -10.23657 -10.23592 -10.23581 -10.23078 -10.22910
 Alpha  occ. eigenvalues --  -10.22853 -10.22791 -10.22714 -10.22563 -10.22505
 Alpha  occ. eigenvalues --  -10.22461  -3.14726  -3.14505  -1.87560  -1.87321
 Alpha  occ. eigenvalues --   -1.87087  -1.86949  -1.86898  -1.86710  -1.12207
 Alpha  occ. eigenvalues --   -1.10854  -1.06265  -1.03893  -1.02953  -1.02883
 Alpha  occ. eigenvalues --   -1.02729  -1.01975  -0.99558  -0.99141  -0.98564
 Alpha  occ. eigenvalues --   -0.97576  -0.97549  -0.97363  -0.96248  -0.95976
 Alpha  occ. eigenvalues --   -0.88537  -0.85677  -0.83527  -0.83317  -0.83189
 Alpha  occ. eigenvalues --   -0.83039  -0.82922  -0.82491  -0.82084  -0.81586
 Alpha  occ. eigenvalues --   -0.81505  -0.80517  -0.80176  -0.79937  -0.79392
 Alpha  occ. eigenvalues --   -0.78678  -0.78450  -0.78144  -0.77505  -0.77052
 Alpha  occ. eigenvalues --   -0.76860  -0.76536  -0.75789  -0.75260  -0.75046
 Alpha  occ. eigenvalues --   -0.74790  -0.72978  -0.72368  -0.72245  -0.71861
 Alpha  occ. eigenvalues --   -0.71383  -0.70915  -0.70436  -0.69816  -0.69279
 Alpha  occ. eigenvalues --   -0.69232  -0.67001  -0.66593  -0.66548  -0.65960
 Alpha  occ. eigenvalues --   -0.64421  -0.63627  -0.63235  -0.63132  -0.62334
 Alpha  occ. eigenvalues --   -0.61863  -0.61535  -0.60971  -0.60713  -0.59821
 Alpha  occ. eigenvalues --   -0.59753  -0.59518  -0.59354  -0.59004  -0.58903
 Alpha  occ. eigenvalues --   -0.58812  -0.58404  -0.56688  -0.54781  -0.54400
 Alpha  occ. eigenvalues --   -0.54228  -0.53839  -0.53690  -0.53227  -0.53016
 Alpha  occ. eigenvalues --   -0.53002  -0.52834  -0.52672  -0.52032  -0.51553
 Alpha  occ. eigenvalues --   -0.51290  -0.51134  -0.50508  -0.50418  -0.50030
 Alpha  occ. eigenvalues --   -0.49718  -0.49662  -0.49138  -0.48911  -0.48871
 Alpha  occ. eigenvalues --   -0.48576  -0.48429  -0.48111  -0.48061  -0.47791
 Alpha  occ. eigenvalues --   -0.47693  -0.47592  -0.47338  -0.47158  -0.47036
 Alpha  occ. eigenvalues --   -0.46962  -0.46485  -0.46482  -0.46425  -0.46013
 Alpha  occ. eigenvalues --   -0.45783  -0.45612  -0.45536  -0.45210  -0.45049
 Alpha  occ. eigenvalues --   -0.44891  -0.44747  -0.44530  -0.44197  -0.44046
 Alpha  occ. eigenvalues --   -0.44010  -0.43833  -0.43794  -0.43427  -0.43363
 Alpha  occ. eigenvalues --   -0.43355  -0.43308  -0.43187  -0.42837  -0.42761
 Alpha  occ. eigenvalues --   -0.42575  -0.42489  -0.42258  -0.42143  -0.41759
 Alpha  occ. eigenvalues --   -0.41484  -0.41345  -0.41218  -0.41126  -0.41009
 Alpha  occ. eigenvalues --   -0.40997  -0.40921  -0.40747  -0.40523  -0.40514
 Alpha  occ. eigenvalues --   -0.40427  -0.40166  -0.39979  -0.39575  -0.39492
 Alpha  occ. eigenvalues --   -0.39477  -0.39439  -0.39303  -0.39272  -0.39092
 Alpha  occ. eigenvalues --   -0.38782  -0.38485  -0.38407  -0.38327  -0.38282
 Alpha  occ. eigenvalues --   -0.37819  -0.37791  -0.37670  -0.37618  -0.37383
 Alpha  occ. eigenvalues --   -0.37265  -0.37146  -0.37097  -0.36867  -0.36829
 Alpha  occ. eigenvalues --   -0.36769  -0.36644  -0.36401  -0.36087  -0.36045
 Alpha  occ. eigenvalues --   -0.36020  -0.35804  -0.35678  -0.35264  -0.35113
 Alpha  occ. eigenvalues --   -0.34698  -0.34510  -0.34115  -0.33744  -0.33660
 Alpha  occ. eigenvalues --   -0.33467  -0.32959  -0.32803  -0.32681  -0.32464
 Alpha  occ. eigenvalues --   -0.32269  -0.32094  -0.31974  -0.31951  -0.31166
 Alpha  occ. eigenvalues --   -0.31027  -0.29931  -0.29767  -0.29285  -0.29183
 Alpha  occ. eigenvalues --   -0.28979  -0.28556  -0.28368  -0.27369  -0.27109
 Alpha  occ. eigenvalues --   -0.25996  -0.25956  -0.25584  -0.25480  -0.25430
 Alpha  occ. eigenvalues --   -0.25355  -0.25079  -0.24806  -0.21198  -0.21058
 Alpha  occ. eigenvalues --   -0.19254  -0.17924
 Alpha virt. eigenvalues --   -0.11569  -0.10262  -0.05879  -0.05404  -0.04238
 Alpha virt. eigenvalues --   -0.04036  -0.02353  -0.01974  -0.01381  -0.00904
 Alpha virt. eigenvalues --    0.00473   0.00524   0.01025   0.01316   0.01672

 Mulliken charges:
               1
     1  Mg  12.000000
     2  C    6.000000
     3  C    6.000000
     4  C    6.000000
     5  C    6.000000
     6  N    7.000000
     7  C    6.000000
     8  C    6.000000
     9  C    6.000000
    10  C    6.000000
    11  C    6.000000
    12  C    6.000000
    13  C    6.000000
    14  H    1.000000
    15  N    7.000000
    16  C    6.000000
    17  C    6.000000
    18  C    6.000000
    19  C    6.000000
    20  C    6.000000
    21  C    6.000000
    22  O    8.000000
    23  C    6.000000
    24  N    7.000000
    25  C    6.000000
    26  C    6.000000
    27  C    6.000000
    28  C    6.000000
    29  C    6.000000
    30  C    6.000000
    31  C    6.000000
    32  N    7.000000
    33  C    6.000000
    34  C    6.000000
    35  C    6.000000
    36  C    6.000000
    37  C    6.000000
    38  C    6.000000
    39  O    8.000000
    40  C    6.000000
    41  C    6.000000
    42  O    8.000000
    43  O    8.000000
    44  C    6.000000
    45  H    1.000000
    46  H    1.000000
    47  H    1.000000
    48  H    1.000000
    49  H    1.000000
    50  H    1.000000
    51  H    1.000000
    52  H    1.000000
    53  H    1.000000
    54  H    1.000000
    55  H    1.000000
    56  H    1.000000
    57  H    1.000000
    58  H    1.000000
    59  H    1.000000
    60  H    1.000000
    61  H    1.000000
    62  H    1.000000
    63  H    1.000000
    64  H    1.000000
    65  H    1.000000
    66  H    1.000000
    67  H    1.000000
    68  H    1.000000
    69  H    1.000000
    70  H    1.000000
    71  H    1.000000
    72  H    1.000000
    73  H    1.000000
    74  H    1.000000
    75  H    1.000000
    76  H    1.000000
    77  H    1.000000
    78  H    1.000000
    79  H    1.000000
    80  Mg  12.000000
    81  C    6.000000
    82  C    6.000000
    83  C    6.000000
    84  C    6.000000
    85  N    7.000000
    86  C    6.000000
    87  C    6.000000
    88  C    6.000000
    89  C    6.000000
    90  C    6.000000
    91  C    6.000000
    92  C    6.000000
    93  H    1.000000
    94  N    7.000000
    95  C    6.000000
    96  C    6.000000
    97  C    6.000000
    98  C    6.000000
    99  C    6.000000
   100  C    6.000000
   101  O    8.000000
   102  C    6.000000
   103  N    7.000000
   104  C    6.000000
   105  C    6.000000
   106  C    6.000000
   107  C    6.000000
   108  C    6.000000
   109  C    6.000000
   110  C    6.000000
   111  N    7.000000
   112  C    6.000000
   113  C    6.000000
   114  C    6.000000
   115  C    6.000000
   116  C    6.000000
   117  C    6.000000
   118  O    8.000000
   119  C    6.000000
   120  C    6.000000
   121  O    8.000000
   122  O    8.000000
   123  C    6.000000
   124  H    1.000000
   125  H    1.000000
   126  H    1.000000
   127  H    1.000000
   128  H    1.000000
   129  H    1.000000
   130  H    1.000000
   131  H    1.000000
   132  H    1.000000
   133  H    1.000000
   134  H    1.000000
   135  H    1.000000
   136  H    1.000000
   137  H    1.000000
   138  H    1.000000
   139  H    1.000000
   140  H    1.000000
   141  H    1.000000
   142  H    1.000000
   143  H    1.000000
   144  H    1.000000
   145  H    1.000000
   146  H    1.000000
   147  H    1.000000
   148  H    1.000000
   149  H    1.000000
   150  H    1.000000
   151  H    1.000000
   152  H    1.000000
   153  H    1.000000
   154  H    1.000000
   155  H    1.000000
   156  H    1.000000
   157  H    1.000000
   158  H    1.000000
 Sum of Mulliken charges = 624.00000

 Dipole moment (field-independent basis, Debye):
    X=              0.0000    Y=              0.0000    Z=              0.0000  Tot=              0.0000
 Quadrupole moment (field-independent basis, Debye-Ang):
   XX=             -0.0000   YY=             -0.0000   ZZ=              0.0000
   XY=              0.0000   XZ=              0.0000   YZ=             -0.0000

 Normal termination of Gaussian 16 at Thu Oct 14 23:04:32 2021.
