 Gaussian 16, Revision A.03,
 Gaussian 16:  ES64L-G16RevA.03 25-Dec-2016

 --------------------------------------------------------
 #p PBE1PBE/Def2SVP td=(nstates=5) density=(transition=1)
 --------------------------------------------------------

 --------------------------------
 TDDFT excited states in gaussian
 --------------------------------
 Symbolic Z-matrix:
 Charge =  0 Multiplicity = 1

                         Standard orientation:
 ---------------------------------------------------------------------
 Center     Atomic      Atomic             Coordinates (Angstroms)
 Number     Number       Type             X           Y           Z
 ---------------------------------------------------------------------
      1         12           0       23.382120   -0.562399   -0.083948
      2          6           0       21.045678    1.744816    1.039518
      3          6           0       25.577892    1.927284   -0.679087
      4          6           0       25.482388   -2.862597   -1.309853
      5          6           0       20.977436   -3.058298    0.416012
      6          7           0       23.254798    1.601327    0.211955
      7          6           0       22.291311    2.311127    0.748733
      8          6           0       22.786737    3.829256    0.806237
      9          6           0       23.731701    3.789801   -0.376110
     10          6           0       24.284170    2.332511   -0.274087
     11          6           0       22.977977    4.144354   -1.676073
     12          6           0       23.294768    4.198381    2.266000
     13          6           0       23.338441    5.700002    2.565329
     14          1           0       23.139838    6.680366    1.422250
     15          7           0       25.306021   -0.505611   -0.707592
     16          6           0       26.080912    0.647462   -0.808099
     17          6           0       27.485234    0.222182   -1.087694
     18          6           0       27.464858   -1.214145   -1.346675
     19          6           0       26.019446   -1.527157   -1.190989
     20          6           0       28.639249    1.195043   -1.142631
     21          6           0       28.642582   -2.247172   -1.663044
     22          8           0       28.472080   -3.464815   -1.786167
     23          6           0       30.034214   -1.664098   -1.793415
     24          7           0       23.220065   -2.583271   -0.498276
     25          6           0       24.203326   -3.317279   -1.012253
     26          6           0       23.771099   -4.787213   -1.305140
     27          6           0       22.450881   -4.839051   -0.522916
     28          6           0       22.196879   -3.423184   -0.110497
     29          6           0       23.640260   -5.137245   -2.813798
     30          6           0       22.284831   -5.944497    0.612534
     31          6           0       22.405908   -5.496830    2.032102
     32          7           0       21.348429   -0.668665    0.387131
     33          6           0       20.532120   -1.724806    0.615422
     34          6           0       19.222393   -1.344418    1.008940
     35          6           0       19.366954    0.065203    1.204315
     36          6           0       20.654641    0.357814    0.816806
     37          6           0       17.931723   -2.092616    1.220100
     38          6           0       18.745838    1.289131    1.614948
     39          8           0       17.627196    1.538450    2.009619
     40          6           0       19.825146    2.416118    1.684675
     41          6           0       19.345236    3.600712    0.966660
     42          8           0       19.087615    3.583203   -0.227368
     43          8           0       19.037986    4.698136    1.811074
     44          6           0       18.441189    5.871326    1.153600
     45          1           0       26.233793    2.765276   -0.919478
     46          1           0       26.174869   -3.579692   -1.753892
     47          1           0       20.238815   -3.856410    0.512036
     48          1           0       21.941026    4.498305    0.653161
     49          1           0       24.609494    4.427012   -0.271632
     50          1           0       23.427463    5.100481   -1.946299
     51          1           0       21.902912    4.255326   -1.528576
     52          1           0       23.296302    3.408947   -2.414624
     53          1           0       24.302891    3.812638    2.420244
     54          1           0       22.547119    3.774287    2.936680
     55          1           0       24.301063    5.893619    3.037586
     56          1           0       22.581401    5.889906    3.325808
     57          1           0       28.501831    2.016488   -0.438535
     58          1           0       28.875640    1.631444   -2.112539
     59          1           0       29.535863    0.682334   -0.794648
     60          1           0       29.903945   -0.859779   -2.517046
     61          1           0       30.773683   -2.343479   -2.216367
     62          1           0       30.396332   -1.350308   -0.814244
     63          1           0       24.488204   -5.500499   -0.899126
     64          1           0       21.674890   -4.960526   -1.277799
     65          1           0       22.722837   -5.721550   -2.888740
     66          1           0       24.470597   -5.673574   -3.270516
     67          1           0       23.598631   -4.200087   -3.368933
     68          1           0       22.950921   -6.775886    0.381556
     69          1           0       21.263638   -6.324087    0.586883
     70          1           0       21.419986   -5.592252    2.487638
     71          1           0       22.571295   -4.430104    2.188193
     72          1           0       23.085227   -6.095026    2.639479
     73          1           0       18.009911   -3.143903    0.940770
     74          1           0       17.124833   -1.552200    0.724294
     75          1           0       17.608004   -2.222205    2.253046
     76          1           0       20.045376    2.702666    2.712677
     77          1           0       18.372209    6.763202    1.775929
     78          1           0       17.446952    5.518246    0.878518
     79          1           0       19.017136    6.012141    0.239721
     80         12           0      -23.127299   -0.769147    0.131077
     81          6           0      -22.589933    2.517827   -1.253428
     82          6           0      -22.616288    0.674906    3.285582
     83          6           0      -23.731105   -3.727546    1.420723
     84          6           0      -23.294238   -2.058956   -3.113866
     85          7           0      -22.623196    1.413044    0.879956
     86          6           0      -22.669927    2.574851    0.176202
     87          6           0      -22.707730    3.791137    1.087062
     88          6           0      -22.358139    3.189202    2.560354
     89          6           0      -22.512515    1.675288    2.235439
     90          6           0      -20.995147    3.638101    3.144250
     91          6           0      -24.078519    4.546372    1.031040
     92          6           0      -23.958244    6.042803    0.642579
     93          1           0      -24.429507    7.069996    1.825493
     94          7           0      -23.172602   -1.411015    2.024539
     95          6           0      -22.909965   -0.714425    3.252522
     96          6           0      -23.053034   -1.567786    4.455779
     97          6           0      -23.433280   -2.821662    3.874638
     98          6           0      -23.458964   -2.684823    2.408691
     99          6           0      -22.806914   -1.106896    5.893826
    100          6           0      -23.670276   -4.116772    4.553426
    101          8           0      -24.214381   -5.095841    4.054296
    102          6           0      -23.335219   -4.215285    6.054673
    103          7           0      -23.624917   -2.546542   -0.725244
    104          6           0      -23.802996   -3.660535    0.020972
    105          6           0      -23.856435   -4.916919   -0.803024
    106          6           0      -23.767436   -4.419915   -2.266949
    107          6           0      -23.606144   -2.896786   -2.061663
    108          6           0      -22.850832   -5.977835   -0.407608
    109          6           0      -25.151293   -4.761686   -3.078859
    110          6           0      -24.968252   -5.583874   -4.467661
    111          7           0      -22.712916   -0.015591   -1.813561
    112          6           0      -22.915571   -0.683113   -3.045467
    113          6           0      -22.715489    0.295459   -4.120411
    114          6           0      -22.730023    1.539792   -3.436958
    115          6           0      -22.607609    1.290948   -2.069089
    116          6           0      -22.595831    0.085162   -5.626827
    117          6           0      -22.509910    2.992824   -3.683977
    118          8           0      -22.309183    3.711754   -4.701961
    119          6           0      -22.543319    3.657100   -2.253413
    120          6           0      -21.316946    4.506800   -2.095747
    121          8           0      -20.213636    4.167125   -2.417799
    122          8           0      -21.675392    5.747876   -1.647759
    123          6           0      -20.581078    6.741304   -1.789643
    124          1           0      -22.317583    1.142963    4.225657
    125          1           0      -23.936425   -4.736092    1.786408
    126          1           0      -23.380104   -2.432272   -4.136235
    127          1           0      -21.874600    4.422457    0.778037
    128          1           0      -23.132083    3.409908    3.295964
    129          1           0      -20.314899    2.791093    3.238075
    130          1           0      -21.134671    4.111312    4.117080
    131          1           0      -20.481998    4.430715    2.599641
    132          1           0      -24.592150    4.522246    1.992484
    133          1           0      -24.750607    4.105161    0.294534
    134          1           0      -24.665640    6.342334   -0.131147
    135          1           0      -22.991599    6.341666    0.238361
    136          1           0      -22.804806   -0.031907    6.076840
    137          1           0      -21.915709   -1.514198    6.371173
    138          1           0      -23.646813   -1.508921    6.461331
    139          1           0      -22.271550   -4.042378    6.218194
    140          1           0      -23.651922   -5.164094    6.489071
    141          1           0      -23.896227   -3.436941    6.571901
    142          1           0      -24.805659   -5.412761   -0.595551
    143          1           0      -22.883350   -4.815512   -2.766077
    144          1           0      -23.298321   -6.834722    0.096725
    145          1           0      -22.102174   -5.658256    0.317201
    146          1           0      -22.321174   -6.288098   -1.308569
    147          1           0      -25.740319   -3.882955   -3.339471
    148          1           0      -25.838967   -5.370604   -2.492575
    149          1           0      -23.995484   -6.069878   -4.390124
    150          1           0      -25.014762   -4.927403   -5.337535
    151          1           0      -25.664230   -6.420115   -4.528793
    152          1           0      -22.992756    0.927610   -6.192913
    153          1           0      -23.269547   -0.729829   -5.893946
    154          1           0      -21.557464   -0.220227   -5.756596
    155          1           0      -23.381556    4.353069   -2.274483
    156          1           0      -19.703741    6.330133   -1.290692
    157          1           0      -20.921857    7.579273   -1.181746
    158          1           0      -20.249481    7.029972   -2.787009
 ---------------------------------------------------------------------

 SCF Done:  E(RPBE1PBE) =  -4067.37736980     A.U. after   16 cycles

 Excitation energies and oscillator strengths:

 Excited State   1:      Singlet-A      1.8271 eV  678.59 nm  f=0.3542  <S**2>=0.000
     310 -> 315        0.18281
     312 -> 313        0.69144
     312 <- 313       -0.10668
 This state for optimization and/or second-order correction.
 Total Energy, E(TD-HF/TD-DFT) =  -4067.31022611
 Copying the excited state density for this state as the 1-particle RhoCI density.

 Excited State   2:      Singlet-A      1.8723 eV  662.21 nm  f=0.3803  <S**2>=0.000
     309 -> 316        0.17559
     311 -> 314        0.69314
     311 <- 314       -0.10657

 Excited State   3:      Singlet-A      1.9880 eV  623.65 nm  f=0.0000  <S**2>=0.000
     311 -> 313        0.70711

 Excited State   4:      Singlet-A      1.9931 eV  622.07 nm  f=0.0000  <S**2>=0.000
     312 -> 314        0.70711

 Excited State   5:      Singlet-A      2.1728 eV  570.63 nm  f=0.1312  <S**2>=0.000
     310 -> 313        0.65739
     312 -> 315       -0.25556

 The electronic state is 1-A.
 Alpha  occ. eigenvalues --  -46.91947 -46.91181 -19.26272 -19.24627 -19.20491
 Alpha  occ. eigenvalues --  -19.19936 -19.19729 -19.19038 -19.19017 -19.18343
 Alpha  occ. eigenvalues --  -14.41934 -14.41571 -14.41387 -14.41100 -14.40287
 Alpha  occ. eigenvalues --  -14.39641 -14.38992 -14.38432 -10.35922 -10.35821
 Alpha  occ. eigenvalues --  -10.34195 -10.32409 -10.32093 -10.31433 -10.29428
 Alpha  occ. eigenvalues --  -10.29124 -10.29070 -10.29063 -10.29021 -10.28882
 Alpha  occ. eigenvalues --  -10.28671 -10.28540 -10.28462 -10.28403 -10.28334
 Alpha  occ. eigenvalues --  -10.28320 -10.28157 -10.28067 -10.27920 -10.27817
 Alpha  occ. eigenvalues --  -10.27656 -10.26853 -10.26852 -10.26826 -10.26777
 Alpha  occ. eigenvalues --  -10.26482 -10.26426 -10.26404 -10.26378 -10.26151
 Alpha  occ. eigenvalues --  -10.26040 -10.25921 -10.25897 -10.25776 -10.25761
 Alpha  occ. eigenvalues --  -10.25655 -10.25591 -10.25443 -10.25384 -10.25374
 Alpha  occ. eigenvalues --  -10.25325 -10.25253 -10.25046 -10.24985 -10.24949
 Alpha  occ. eigenvalues --  -10.24918 -10.24780 -10.24700 -10.24638 -10.24531
 Alpha  occ. eigenvalues --  -10.24281 -10.24034 -10.23977 -10.23893 -10.23759
 Alpha  occ. eigenvalues --  -10.23662 -10.23434 -10.23415 -10.23282 -10.23225
 Alpha  occ. eigenvalues --  -10.23198 -10.23082 -10.23066 -10.22974 -10.22193
 Alpha  occ. eigenvalues --  -10.22015  -3.14166  -3.13520  -1.87005  -1.86540
 Alpha  occ. eigenvalues --   -1.86411  -1.86375  -1.85859  -1.85793  -1.11704
 Alpha  occ. eigenvalues --   -1.09265  -1.05017  -1.04545  -1.04525  -1.03487
 Alpha  occ. eigenvalues --   -1.01873  -1.01611  -1.00378  -0.99439  -0.98794
 Alpha  occ. eigenvalues --   -0.98638  -0.97833  -0.97717  -0.97232  -0.96609
 Alpha  occ. eigenvalues --   -0.86605  -0.85925  -0.83552  -0.82878  -0.82812
 Alpha  occ. eigenvalues --   -0.82749  -0.82520  -0.82311  -0.81695  -0.81583
 Alpha  occ. eigenvalues --   -0.81283  -0.81220  -0.80753  -0.80062  -0.78524
 Alpha  occ. eigenvalues --   -0.78223  -0.78026  -0.77463  -0.77018  -0.76589
 Alpha  occ. eigenvalues --   -0.76058  -0.75473  -0.75339  -0.74985  -0.74452
 Alpha  occ. eigenvalues --   -0.73955  -0.73241  -0.72749  -0.71610  -0.71456
 Alpha  occ. eigenvalues --   -0.71092  -0.71022  -0.70305  -0.70140  -0.69569
 Alpha  occ. eigenvalues --   -0.69432  -0.67344  -0.67021  -0.65832  -0.65627
 Alpha  occ. eigenvalues --   -0.63697  -0.63471  -0.63152  -0.63141  -0.62367
 Alpha  occ. eigenvalues --   -0.61947  -0.61500  -0.60888  -0.60358  -0.60000
 Alpha  occ. eigenvalues --   -0.59590  -0.59171  -0.58974  -0.58777  -0.58543
 Alpha  occ. eigenvalues --   -0.58417  -0.56932  -0.55899  -0.55266  -0.55061
 Alpha  occ. eigenvalues --   -0.54215  -0.53844  -0.53747  -0.53301  -0.52936
 Alpha  occ. eigenvalues --   -0.52700  -0.52552  -0.52455  -0.52104  -0.51715
 Alpha  occ. eigenvalues --   -0.50674  -0.50400  -0.50239  -0.50013  -0.49856
 Alpha  occ. eigenvalues --   -0.49458  -0.49329  -0.49048  -0.48429  -0.48376
 Alpha  occ. eigenvalues --   -0.48217  -0.47944  -0.47731  -0.47462  -0.47258
 Alpha  occ. eigenvalues --   -0.47138  -0.46927  -0.46880  -0.46640  -0.46639
 Alpha  occ. eigenvalues --   -0.46445  -0.46258  -0.46030  -0.45980  -0.45847
 Alpha  occ. eigenvalues --   -0.45439  -0.45198  -0.45095  -0.45067  -0.45044
 Alpha  occ. eigenvalues --   -0.44685  -0.44518  -0.44392  -0.44341  -0.44096
 Alpha  occ. eigenvalues --   -0.43884  -0.43878  -0.43705  -0.43603  -0.43484
 Alpha  occ. eigenvalues --   -0.43256  -0.43229  -0.43100  -0.42934  -0.42780
 Alpha  occ. eigenvalues --   -0.42620  -0.42340  -0.42251  -0.42049  -0.42006
 Alpha  occ. eigenvalues --   -0.41681  -0.41670  -0.41560  -0.41261  -0.41194
 Alpha  occ. eigenvalues --   -0.41138  -0.40909  -0.40755  -0.40705  -0.40517
 Alpha  occ. eigenvalues --   -0.40482  -0.40311  -0.39721  -0.39675  -0.39626
 Alpha  occ. eigenvalues --   -0.39495  -0.39439  -0.39226  -0.39138  -0.38879
 Alpha  occ. eigenvalues --   -0.38831  -0.38729  -0.38545  -0.38440  -0.38344
 Alpha  occ. eigenvalues --   -0.38085  -0.38075  -0.37937  -0.37781  -0.37673
 Alpha  occ. eigenvalues --   -0.37432  -0.37408  -0.37076  -0.36979  -0.36749
 Alpha  occ. eigenvalues --   -0.36670  -0.36375  -0.36266  -0.36129  -0.35915
 Alpha  occ. eigenvalues --   -0.35818  -0.35662  -0.35577  -0.35507  -0.35347
 Alpha  occ. eigenvalues --   -0.35118  -0.34984  -0.34876  -0.34446  -0.34114
 Alpha  occ. eigenvalues --   -0.33547  -0.33227  -0.33173  -0.33050  -0.32559
 Alpha  occ. eigenvalues --   -0.32492  -0.32229  -0.31702  -0.31431  -0.31224
 Alpha  occ. eigenvalues --   -0.30623  -0.30567  -0.29734  -0.29695  -0.29344
 Alpha  occ. eigenvalues --   -0.29031  -0.28575  -0.28564  -0.27116  -0.26849
 Alpha  occ. eigenvalues --   -0.26623  -0.26000  -0.25977  -0.25673  -0.25546
 Alpha  occ. eigenvalues --   -0.25469  -0.25252  -0.24992  -0.20837  -0.20825
 Alpha  occ. eigenvalues --   -0.18972  -0.18902
 Alpha virt. eigenvalues --   -0.11379  -0.11293  -0.05297  -0.04802  -0.04196
 Alpha virt. eigenvalues --   -0.04051  -0.02357  -0.02028   0.00015   0.00128
 Alpha virt. eigenvalues --    0.00717   0.00872   0.01031   0.01306   0.01407

 Mulliken charges:
               1
     1  Mg  12.000002
     2  C    5.999949
     3  C    6.000036
     4  C    6.000035
     5  C    5.999959
     6  N    7.000000
     7  C    6.000028
     8  C    6.000001
     9  C    6.000002
    10  C    5.999968
    11  C    5.999992
    12  C    5.999999
    13  C    5.999997
    14  H    0.999977
    15  N    7.000045
    16  C    5.999876
    17  C    5.999923
    18  C    5.999884
    19  C    5.999935
    20  C    5.999999
    21  C    6.000019
    22  O    7.999901
    23  C    6.000011
    24  N    6.999978
    25  C    5.999944
    26  C    6.000029
    27  C    5.999988
    28  C    6.000073
    29  C    6.000000
    30  C    5.999993
    31  C    5.999991
    32  N    6.999996
    33  C    6.000098
    34  C    6.000110
    35  C    6.000086
    36  C    6.000018
    37  C    5.999994
    38  C    5.999945
    39  O    8.000164
    40  C    6.000006
    41  C    5.999990
    42  O    7.999993
    43  O    8.000028
    44  C    6.000015
    45  H    0.999967
    46  H    0.999994
    47  H    1.000037
    48  H    0.999984
    49  H    0.999999
    50  H    0.999977
    51  H    0.999961
    52  H    0.999990
    53  H    1.000030
    54  H    1.000004
    55  H    1.000020
    56  H    1.000013
    57  H    0.999982
    58  H    0.999953
    59  H    0.999984
    60  H    0.999979
    61  H    0.999977
    62  H    1.000002
    63  H    1.000014
    64  H    0.999985
    65  H    0.999975
    66  H    1.000001
    67  H    0.999980
    68  H    1.000020
    69  H    1.000008
    70  H    1.000021
    71  H    0.999995
    72  H    1.000039
    73  H    1.000022
    74  H    1.000009
    75  H    1.000073
    76  H    1.000041
    77  H    1.000016
    78  H    0.999988
    79  H    0.999982
    80  Mg  12.004092
    81  C    5.975294
    82  C    5.997510
    83  C    6.028918
    84  C    5.997431
    85  N    6.982472
    86  C    6.032191
    87  C    5.990290
    88  C    6.011145
    89  C    5.972953
    90  C    6.002363
    91  C    5.998792
    92  C    5.997907
    93  H    1.006471
    94  N    7.002831
    95  C    5.969691
    96  C    5.975878
    97  C    5.987391
    98  C    5.973787
    99  C    6.003158
   100  C    5.988218
   101  O    7.968983
   102  C    6.003776
   103  N    7.008764
   104  C    5.964301
   105  C    6.008656
   106  C    5.989401
   107  C    6.028676
   108  C    6.000575
   109  C    5.995503
   110  C    5.999290
   111  N    6.998000
   112  C    6.036642
   113  C    6.030387
   114  C    6.002338
   115  C    6.028427
   116  C    6.001569
   117  C    6.011817
   118  O    8.028982
   119  C    6.003542
   120  C    6.006923
   121  O    8.000081
   122  O    8.001683
   123  C    5.998429
   124  H    0.986819
   125  H    0.998442
   126  H    1.012366
   127  H    0.997506
   128  H    0.999159
   129  H    1.000543
   130  H    0.996612
   131  H    0.987182
   132  H    1.007974
   133  H    0.995455
   134  H    0.997072
   135  H    0.998130
   136  H    0.985371
   137  H    0.981804
   138  H    0.985240
   139  H    0.992672
   140  H    0.986377
   141  H    0.994944
   142  H    1.001739
   143  H    1.003379
   144  H    1.002663
   145  H    1.005398
   146  H    0.991362
   147  H    0.999213
   148  H    1.011595
   149  H    1.003707
   150  H    0.997483
   151  H    1.006017
   152  H    1.013843
   153  H    1.015002
   154  H    1.015829
   155  H    1.004520
   156  H    1.004279
   157  H    1.004712
   158  H    1.000061
 Sum of Mulliken charges = 624.00000

 Dipole moment (field-independent basis, Debye):
    X=              0.1543    Y=              2.4277    Z=             -9.8138  Tot=             10.1108
 Quadrupole moment (field-independent basis, Debye-Ang):
   XX=             -8.9427   YY=             -0.9555   ZZ=             -4.3420
   XY=            -55.9973   XZ=            225.5150   YZ=              8.3809

 Normal termination of Gaussian 16 at Fri Oct 15 19:44:05 2021.
