 Gaussian 16, Revision A.03,
 Gaussian 16:  ES64L-G16RevA.03 25-Dec-2016

 --------------------------------------------------------
 #p PBE1PBE/Def2SVP td=(nstates=5) density=(transition=1)
 --------------------------------------------------------

 --------------------------------
 TDDFT excited states in gaussian
 --------------------------------
 Symbolic Z-matrix:
 Charge =  0 Multiplicity = 1

                         Standard orientation:
 ---------------------------------------------------------------------
 Center     Atomic      Atomic             Coordinates (Angstroms)
 Number     Number       Type             X           Y           Z
 ---------------------------------------------------------------------
      1         12           0      -11.678473    0.117768   -0.676773
      2          6           0       -8.687717   -1.428544    0.176070
      3          6           0      -13.392063   -2.832170    0.282414
      4          6           0      -14.515009    1.857250   -0.372765
      5          6           0       -9.893872    3.147966   -0.925294
      6          7           0      -11.089594   -1.838033    0.498028
      7          6           0       -9.788275   -2.277853    0.459784
      8          6           0       -9.673973   -3.695243    0.926170
      9          6           0      -11.166715   -4.222933    0.712523
     10          6           0      -11.985947   -2.899590    0.509042
     11          6           0      -11.380445   -5.262687   -0.499875
     12          6           0       -9.045302   -3.756746    2.412249
     13          6           0       -8.360844   -4.988438    2.729527
     14          1           0       -8.892632   -5.681483    4.001926
     15          7           0      -13.693422   -0.410817   -0.307344
     16          6           0      -14.198843   -1.687912    0.064947
     17          6           0      -15.643832   -1.573107    0.167506
     18          6           0      -16.014448   -0.222047   -0.039045
     19          6           0      -14.717330    0.470992   -0.342193
     20          6           0      -16.493943   -2.707524    0.603992
     21          6           0      -17.494797    0.330028    0.099219
     22          8           0      -18.368176   -0.486921    0.386958
     23          6           0      -17.892191    1.713644   -0.403530
     24          7           0      -12.070202    2.192138   -0.557769
     25          6           0      -13.359788    2.615018   -0.557067
     26          6           0      -13.492813    4.260478   -0.478358
     27          6           0      -11.995460    4.671112   -0.879495
     28          6           0      -11.239826    3.305829   -0.823016
     29          6           0      -14.532156    4.913760   -1.466090
     30          6           0      -11.376491    5.694205    0.074751
     31          6           0      -10.871592    7.061106   -0.446297
     32          7           0       -9.693997    0.687280   -0.713446
     33          6           0       -9.136613    1.924489   -0.858460
     34          6           0       -7.708073    1.790220   -0.936492
     35          6           0       -7.505928    0.439688   -0.462063
     36          6           0       -8.773688   -0.147064   -0.308967
     37          6           0       -6.716040    2.898989   -1.138369
     38          6           0       -6.485302   -0.494701   -0.035374
     39          8           0       -5.298788   -0.441221   -0.152487
     40          6           0       -7.196056   -1.844429    0.370012
     41          6           0       -6.871161   -3.045692   -0.544998
     42          8           0       -6.937485   -3.027655   -1.755304
     43          8           0       -6.393743   -4.118683    0.235593
     44          6           0       -5.881925   -5.253282   -0.472002
     45          1           0      -13.855222   -3.790587    0.522855
     46          1           0      -15.348553    2.486001   -0.053409
     47          1           0       -9.382614    4.106873   -1.028101
     48          1           0       -9.148750   -4.327408    0.209454
     49          1           0      -11.489748   -4.700580    1.638215
     50          1           0      -11.768802   -6.167462   -0.032436
     51          1           0      -10.463144   -5.465132   -1.051890
     52          1           0      -12.140676   -4.823164   -1.146255
     53          1           0       -9.919342   -3.663652    3.056616
     54          1           0       -8.477188   -2.826373    2.434195
     55          1           0       -7.312313   -4.723921    2.860966
     56          1           0       -8.495879   -5.709609    1.923485
     57          1           0      -15.948879   -3.650995    0.580471
     58          1           0      -17.309587   -2.854780   -0.104362
     59          1           0      -16.849600   -2.566199    1.624868
     60          1           0      -17.435404    2.531880    0.154080
     61          1           0      -18.979836    1.777139   -0.356865
     62          1           0      -17.613708    1.766313   -1.456100
     63          1           0      -13.667472    4.443578    0.581509
     64          1           0      -11.864111    4.970424   -1.919560
     65          1           0      -15.355563    5.346927   -0.898973
     66          1           0      -14.928764    4.148084   -2.133908
     67          1           0      -13.993793    5.685006   -2.017997
     68          1           0      -10.590482    5.250012    0.685052
     69          1           0      -12.010319    5.973650    0.916187
     70          1           0       -9.794888    7.232991   -0.448208
     71          1           0      -11.276455    7.792541    0.253541
     72          1           0      -11.216111    7.248242   -1.464056
     73          1           0       -5.781058    2.434816   -1.453118
     74          1           0       -6.312559    3.330624   -0.222943
     75          1           0       -7.059447    3.715799   -1.772638
     76          1           0       -6.786294   -2.044477    1.360447
     77          1           0       -6.067766   -6.036685    0.263456
     78          1           0       -4.795925   -5.224982   -0.559166
     79          1           0       -6.351601   -5.346467   -1.450378
     80         12           0       10.692773    0.924951   -0.277948
     81          6           0       12.129165   -2.195573   -1.070209
     82          6           0        7.961131   -0.764276    0.858629
     83          6           0        9.642931    3.838053    1.168814
     84          6           0       13.870101    2.340171   -1.053676
     85          7           0       10.167883   -1.285315    0.006715
     86          6           0       10.795237   -2.383931   -0.507017
     87          6           0       10.090927   -3.694246   -0.114711
     88          6           0        8.632704   -3.068408    0.139131
     89          6           0        8.932634   -1.604777    0.347505
     90          6           0        7.601901   -3.277101   -1.002543
     91          6           0       10.661329   -4.385276    1.204568
     92          6           0       10.460523   -5.880468    1.397393
     93          1           0        9.514782   -6.450672    2.475803
     94          7           0        8.987231    1.560948    0.866703
     95          6           0        7.939094    0.714441    1.083626
     96          6           0        6.837965    1.399915    1.599531
     97          6           0        7.266360    2.777806    1.689388
     98          6           0        8.695816    2.806297    1.268919
     99          6           0        5.493517    0.768469    1.940325
    100          6           0        6.352704    3.884009    2.166481
    101          8           0        5.168372    3.613305    2.493270
    102          6           0        6.755039    5.400808    2.179491
    103          7           0       11.649997    2.754716   -0.022509
    104          6           0       10.974519    3.843978    0.591535
    105          6           0       11.720633    5.122770    0.330190
    106          6           0       13.148856    4.665102   -0.037204
    107          6           0       12.898228    3.193167   -0.477026
    108          6           0       11.244922    6.076036   -0.789351
    109          6           0       14.152288    4.700881    1.232414
    110          6           0       14.829795    6.016279    1.585908
    111          7           0       12.549780    0.218407   -1.106732
    112          6           0       13.726586    0.903513   -1.369368
    113          6           0       14.724262    0.054893   -1.810792
    114          6           0       14.128223   -1.217194   -1.769042
    115          6           0       12.810198   -1.058528   -1.308704
    116          6           0       16.100390    0.478251   -2.217650
    117          6           0       14.310859   -2.531706   -2.096341
    118          8           0       15.228664   -3.073736   -2.679981
    119          6           0       13.123083   -3.246306   -1.418139
    120          6           0       13.724574   -3.968858   -0.249846
    121          8           0       14.337529   -3.435373    0.621793
    122          8           0       13.527353   -5.344716   -0.380066
    123          6           0       14.223026   -6.085901    0.613744
    124          1           0        6.993654   -1.237663    1.039814
    125          1           0        9.282664    4.836102    1.428567
    126          1           0       14.762474    2.864235   -1.401574
    127          1           0        9.969959   -4.371569   -0.959451
    128          1           0        8.227176   -3.582271    1.010235
    129          1           0        7.028130   -4.133006   -0.646026
    130          1           0        8.077369   -3.550744   -1.944354
    131          1           0        6.936657   -2.419544   -1.104604
    132          1           0       10.194749   -3.954519    2.090537
    133          1           0       11.711735   -4.100766    1.269955
    134          1           0       11.467619   -6.256626    1.583051
    135          1           0       10.149239   -6.288522    0.435916
    136          1           0        4.573999    1.328663    1.767419
    137          1           0        5.699481    0.531097    2.983776
    138          1           0        5.319500   -0.099496    1.304321
    139          1           0        6.953431    5.731552    1.160364
    140          1           0        7.628373    5.400981    2.831415
    141          1           0        6.071325    6.075255    2.694836
    142          1           0       11.771282    5.646016    1.284495
    143          1           0       13.581479    5.262666   -0.839693
    144          1           0       11.919721    6.164457   -1.640598
    145          1           0       10.728646    6.943974   -0.378650
    146          1           0       10.400989    5.548886   -1.234028
    147          1           0       14.879552    3.954787    0.912844
    148          1           0       13.648392    4.352994    2.134368
    149          1           0       14.655582    6.235539    2.638973
    150          1           0       14.404657    6.814095    0.976303
    151          1           0       15.911269    5.951872    1.463275
    152          1           0       16.784694   -0.182341   -1.686041
    153          1           0       16.344813    1.488504   -1.887081
    154          1           0       16.279865    0.366738   -3.287113
    155          1           0       12.706788   -3.956800   -2.131448
    156          1           0       15.203772   -6.373150    0.235617
    157          1           0       13.785118   -7.064981    0.811707
    158          1           0       14.354068   -5.523211    1.536455
 ---------------------------------------------------------------------

 SCF Done:  E(RPBE1PBE) =  -4067.32416727     A.U. after   16 cycles

 Excitation energies and oscillator strengths:

 Excited State   1:      Singlet-A      1.7110 eV  724.64 nm  f=0.0000  <S**2>=0.000
     312 -> 313        0.70708
 This state for optimization and/or second-order correction.
 Total Energy, E(TD-HF/TD-DFT) =  -4067.26128990
 Copying the excited state density for this state as the 1-particle RhoCI density.

 Excited State   2:      Singlet-A      1.8313 eV  677.03 nm  f=0.4890  <S**2>=0.000
     310 -> 316       -0.16661
     311 -> 313        0.11353
     312 -> 314        0.68592
     312 <- 314       -0.10939

 Excited State   3:      Singlet-A      1.8632 eV  665.45 nm  f=0.2980  <S**2>=0.000
     309 -> 315       -0.17974
     311 -> 313        0.67923
     312 -> 314       -0.11412
     311 <- 313       -0.10416

 Excited State   4:      Singlet-A      2.0868 eV  594.14 nm  f=0.0000  <S**2>=0.000
     311 -> 314        0.70708

 Excited State   5:      Singlet-A      2.1547 eV  575.41 nm  f=0.1147  <S**2>=0.000
     309 -> 313        0.65678
     311 -> 315        0.24345

 The electronic state is 1-A.
 Alpha  occ. eigenvalues --  -46.93584 -46.93165 -19.25927 -19.25820 -19.20991
 Alpha  occ. eigenvalues --  -19.20964 -19.19719 -19.18600 -19.18257 -19.18026
 Alpha  occ. eigenvalues --  -14.42389 -14.42232 -14.41685 -14.41628 -14.39723
 Alpha  occ. eigenvalues --  -14.39326 -14.38807 -14.38728 -10.37140 -10.36589
 Alpha  occ. eigenvalues --  -10.33380 -10.32097 -10.31276 -10.30360 -10.30007
 Alpha  occ. eigenvalues --  -10.29985 -10.29373 -10.29347 -10.29160 -10.28715
 Alpha  occ. eigenvalues --  -10.28519 -10.28442 -10.28425 -10.28391 -10.28382
 Alpha  occ. eigenvalues --  -10.28244 -10.28122 -10.27804 -10.27635 -10.27579
 Alpha  occ. eigenvalues --  -10.27074 -10.26938 -10.26529 -10.26491 -10.26238
 Alpha  occ. eigenvalues --  -10.26217 -10.26125 -10.26012 -10.25945 -10.25859
 Alpha  occ. eigenvalues --  -10.25843 -10.25717 -10.25704 -10.25655 -10.25624
 Alpha  occ. eigenvalues --  -10.25589 -10.25573 -10.25570 -10.25500 -10.25473
 Alpha  occ. eigenvalues --  -10.25379 -10.25357 -10.25318 -10.25146 -10.25091
 Alpha  occ. eigenvalues --  -10.24915 -10.24826 -10.24278 -10.24214 -10.24184
 Alpha  occ. eigenvalues --  -10.24121 -10.24103 -10.24100 -10.24089 -10.23920
 Alpha  occ. eigenvalues --  -10.23901 -10.23892 -10.23546 -10.23464 -10.23311
 Alpha  occ. eigenvalues --  -10.23288 -10.23108 -10.23032 -10.22683 -10.22589
 Alpha  occ. eigenvalues --  -10.21768  -3.15463  -3.15165  -1.88301  -1.87952
 Alpha  occ. eigenvalues --   -1.87829  -1.87681  -1.87594  -1.87353  -1.12271
 Alpha  occ. eigenvalues --   -1.10859  -1.05686  -1.04845  -1.04733  -1.04196
 Alpha  occ. eigenvalues --   -1.03590  -1.01922  -1.00221  -0.99790  -0.99236
 Alpha  occ. eigenvalues --   -0.98482  -0.97376  -0.96920  -0.96420  -0.96153
 Alpha  occ. eigenvalues --   -0.88614  -0.86666  -0.83497  -0.83107  -0.82933
 Alpha  occ. eigenvalues --   -0.82873  -0.82587  -0.82403  -0.81821  -0.81314
 Alpha  occ. eigenvalues --   -0.81159  -0.80777  -0.80093  -0.80058  -0.78541
 Alpha  occ. eigenvalues --   -0.78291  -0.77826  -0.77649  -0.77064  -0.76891
 Alpha  occ. eigenvalues --   -0.76349  -0.76051  -0.75469  -0.74902  -0.74607
 Alpha  occ. eigenvalues --   -0.74470  -0.72289  -0.72196  -0.71604  -0.71557
 Alpha  occ. eigenvalues --   -0.71085  -0.71003  -0.70474  -0.70183  -0.69923
 Alpha  occ. eigenvalues --   -0.69252  -0.67961  -0.67125  -0.66583  -0.65760
 Alpha  occ. eigenvalues --   -0.63803  -0.63586  -0.62912  -0.62824  -0.62683
 Alpha  occ. eigenvalues --   -0.61841  -0.61532  -0.60818  -0.60577  -0.60291
 Alpha  occ. eigenvalues --   -0.59687  -0.59319  -0.59182  -0.58860  -0.58681
 Alpha  occ. eigenvalues --   -0.58663  -0.57418  -0.57260  -0.54913  -0.54609
 Alpha  occ. eigenvalues --   -0.54202  -0.54054  -0.54036  -0.53661  -0.53525
 Alpha  occ. eigenvalues --   -0.53453  -0.53050  -0.52609  -0.52602  -0.52019
 Alpha  occ. eigenvalues --   -0.51011  -0.50820  -0.50092  -0.49943  -0.49762
 Alpha  occ. eigenvalues --   -0.49547  -0.49546  -0.49260  -0.48591  -0.48341
 Alpha  occ. eigenvalues --   -0.48052  -0.47839  -0.47712  -0.47320  -0.47237
 Alpha  occ. eigenvalues --   -0.47124  -0.47122  -0.46934  -0.46569  -0.46552
 Alpha  occ. eigenvalues --   -0.46326  -0.46287  -0.46172  -0.45949  -0.45673
 Alpha  occ. eigenvalues --   -0.45631  -0.45451  -0.45366  -0.45019  -0.44747
 Alpha  occ. eigenvalues --   -0.44620  -0.44474  -0.44368  -0.44260  -0.44246
 Alpha  occ. eigenvalues --   -0.44161  -0.43878  -0.43874  -0.43815  -0.43527
 Alpha  occ. eigenvalues --   -0.43437  -0.43398  -0.43114  -0.42976  -0.42673
 Alpha  occ. eigenvalues --   -0.42537  -0.42507  -0.42037  -0.41905  -0.41766
 Alpha  occ. eigenvalues --   -0.41657  -0.41599  -0.41546  -0.41168  -0.41115
 Alpha  occ. eigenvalues --   -0.41013  -0.40983  -0.40853  -0.40676  -0.40598
 Alpha  occ. eigenvalues --   -0.40423  -0.40382  -0.39947  -0.39944  -0.39734
 Alpha  occ. eigenvalues --   -0.39716  -0.39537  -0.39402  -0.39317  -0.39305
 Alpha  occ. eigenvalues --   -0.38811  -0.38656  -0.38557  -0.38516  -0.38421
 Alpha  occ. eigenvalues --   -0.38204  -0.38065  -0.37901  -0.37881  -0.37675
 Alpha  occ. eigenvalues --   -0.37541  -0.37453  -0.37311  -0.37304  -0.37203
 Alpha  occ. eigenvalues --   -0.37031  -0.36963  -0.36355  -0.36291  -0.36086
 Alpha  occ. eigenvalues --   -0.35944  -0.35875  -0.35866  -0.35721  -0.35324
 Alpha  occ. eigenvalues --   -0.35292  -0.35124  -0.34755  -0.34248  -0.33589
 Alpha  occ. eigenvalues --   -0.33381  -0.33132  -0.32733  -0.32722  -0.32512
 Alpha  occ. eigenvalues --   -0.32058  -0.31985  -0.31809  -0.31636  -0.31511
 Alpha  occ. eigenvalues --   -0.31240  -0.30670  -0.30291  -0.30141  -0.29763
 Alpha  occ. eigenvalues --   -0.29395  -0.28904  -0.28859  -0.26972  -0.26873
 Alpha  occ. eigenvalues --   -0.26176  -0.25591  -0.25571  -0.25233  -0.25112
 Alpha  occ. eigenvalues --   -0.25071  -0.24938  -0.24485  -0.21197  -0.21181
 Alpha  occ. eigenvalues --   -0.19516  -0.18776
 Alpha virt. eigenvalues --   -0.11875  -0.11251  -0.05870  -0.05135  -0.04157
 Alpha virt. eigenvalues --   -0.03748  -0.02296  -0.01747  -0.01429  -0.01278
 Alpha virt. eigenvalues --   -0.00116   0.00211   0.00401   0.00853   0.01349

 Mulliken charges:
               1
     1  Mg  12.000000
     2  C    6.000000
     3  C    6.000000
     4  C    6.000000
     5  C    6.000000
     6  N    7.000000
     7  C    6.000000
     8  C    6.000000
     9  C    6.000000
    10  C    6.000000
    11  C    6.000000
    12  C    6.000000
    13  C    6.000000
    14  H    1.000000
    15  N    7.000000
    16  C    6.000000
    17  C    6.000000
    18  C    6.000000
    19  C    6.000000
    20  C    6.000000
    21  C    6.000000
    22  O    8.000000
    23  C    6.000000
    24  N    7.000000
    25  C    6.000000
    26  C    6.000000
    27  C    6.000000
    28  C    6.000000
    29  C    6.000000
    30  C    6.000000
    31  C    6.000000
    32  N    7.000000
    33  C    6.000000
    34  C    6.000000
    35  C    6.000000
    36  C    6.000000
    37  C    6.000000
    38  C    6.000000
    39  O    8.000000
    40  C    6.000000
    41  C    6.000000
    42  O    8.000000
    43  O    8.000000
    44  C    6.000000
    45  H    1.000000
    46  H    1.000000
    47  H    1.000000
    48  H    1.000000
    49  H    1.000000
    50  H    1.000000
    51  H    1.000000
    52  H    1.000000
    53  H    1.000000
    54  H    1.000000
    55  H    1.000000
    56  H    1.000000
    57  H    1.000000
    58  H    1.000000
    59  H    1.000000
    60  H    1.000000
    61  H    1.000000
    62  H    1.000000
    63  H    1.000000
    64  H    1.000000
    65  H    1.000000
    66  H    1.000000
    67  H    1.000000
    68  H    1.000000
    69  H    1.000000
    70  H    1.000000
    71  H    1.000000
    72  H    1.000000
    73  H    1.000000
    74  H    1.000000
    75  H    1.000000
    76  H    1.000000
    77  H    1.000000
    78  H    1.000000
    79  H    1.000000
    80  Mg  12.000000
    81  C    6.000000
    82  C    6.000000
    83  C    6.000000
    84  C    6.000000
    85  N    7.000000
    86  C    6.000000
    87  C    6.000000
    88  C    6.000000
    89  C    6.000000
    90  C    6.000000
    91  C    6.000000
    92  C    6.000000
    93  H    1.000000
    94  N    7.000000
    95  C    6.000000
    96  C    6.000000
    97  C    6.000000
    98  C    6.000000
    99  C    6.000000
   100  C    6.000000
   101  O    8.000000
   102  C    6.000000
   103  N    7.000000
   104  C    6.000000
   105  C    6.000000
   106  C    6.000000
   107  C    6.000000
   108  C    6.000000
   109  C    6.000000
   110  C    6.000000
   111  N    7.000000
   112  C    6.000000
   113  C    6.000000
   114  C    6.000000
   115  C    6.000000
   116  C    6.000000
   117  C    6.000000
   118  O    8.000000
   119  C    6.000000
   120  C    6.000000
   121  O    8.000000
   122  O    8.000000
   123  C    6.000000
   124  H    1.000000
   125  H    1.000000
   126  H    1.000000
   127  H    1.000000
   128  H    1.000000
   129  H    1.000000
   130  H    1.000000
   131  H    1.000000
   132  H    1.000000
   133  H    1.000000
   134  H    1.000000
   135  H    1.000000
   136  H    1.000000
   137  H    1.000000
   138  H    1.000000
   139  H    1.000000
   140  H    1.000000
   141  H    1.000000
   142  H    1.000000
   143  H    1.000000
   144  H    1.000000
   145  H    1.000000
   146  H    1.000000
   147  H    1.000000
   148  H    1.000000
   149  H    1.000000
   150  H    1.000000
   151  H    1.000000
   152  H    1.000000
   153  H    1.000000
   154  H    1.000000
   155  H    1.000000
   156  H    1.000000
   157  H    1.000000
   158  H    1.000000
 Sum of Mulliken charges = 624.00000

 Dipole moment (field-independent basis, Debye):
    X=             -0.0000    Y=             -0.0000    Z=             -0.0000  Tot=              0.0000
 Quadrupole moment (field-independent basis, Debye-Ang):
   XX=              0.0000   YY=             -0.0000   ZZ=             -0.0000
   XY=              0.0000   XZ=             -0.0000   YZ=              0.0000

 Normal termination of Gaussian 16 at Thu Oct 14 10:09:38 2021.
