 Gaussian 16, Revision A.03,
 Gaussian 16:  ES64L-G16RevA.03 25-Dec-2016

 --------------------------------------------------------
 #p PBE1PBE/Def2SVP td=(nstates=5) density=(transition=1)
 --------------------------------------------------------

 --------------------------------
 TDDFT excited states in gaussian
 --------------------------------
 Symbolic Z-matrix:
 Charge =  0 Multiplicity = 1

                         Standard orientation:
 ---------------------------------------------------------------------
 Center     Atomic      Atomic             Coordinates (Angstroms)
 Number     Number       Type             X           Y           Z
 ---------------------------------------------------------------------
      1         12           0      -22.227877   -0.163653    0.279004
      2          6           0      -19.677267    1.969259   -0.848540
      3          6           0      -23.744384    0.203491   -2.738899
      4          6           0      -24.282018   -2.494124    1.301649
      5          6           0      -19.965390   -0.979829    2.958821
      6          7           0      -21.778838    1.004086   -1.511841
      7          6           0      -20.687204    1.784284   -1.769640
      8          6           0      -20.671269    2.106053   -3.271491
      9          6           0      -22.151960    2.021289   -3.625128
     10          6           0      -22.554987    0.933053   -2.611596
     11          6           0      -22.907728    3.346504   -3.373613
     12          6           0      -19.803506    1.066415   -4.072748
     13          6           0      -18.448859    1.578051   -4.770139
     14          1           0      -17.107189    0.962261   -4.337943
     15          7           0      -23.763041   -1.070258   -0.615495
     16          6           0      -24.259259   -0.766647   -1.862453
     17          6           0      -25.472543   -1.499107   -2.049212
     18          6           0      -25.770025   -2.230763   -0.852146
     19          6           0      -24.592510   -1.970912    0.025927
     20          6           0      -26.322903   -1.434770   -3.363995
     21          6           0      -27.079653   -3.065649   -0.610428
     22          8           0      -27.957557   -3.047239   -1.417301
     23          6           0      -27.310000   -3.619166    0.718432
     24          7           0      -21.985923   -1.767866    1.732640
     25          6           0      -23.165925   -2.295703    2.136335
     26          6           0      -23.160402   -2.731709    3.591943
     27          6           0      -21.698668   -2.593812    3.989358
     28          6           0      -21.150344   -1.718030    2.809617
     29          6           0      -24.107439   -1.860359    4.497336
     30          6           0      -20.818310   -3.908788    4.232179
     31          6           0      -20.386053   -4.336069    5.609190
     32          7           0      -20.357282    0.489946    1.059768
     33          6           0      -19.566662    0.077734    2.140167
     34          6           0      -18.305338    0.785635    2.179650
     35          6           0      -18.329396    1.552993    1.041072
     36          6           0      -19.569498    1.350010    0.350604
     37          6           0      -17.252006    0.601486    3.191329
     38          6           0      -17.561724    2.512537    0.262193
     39          8           0      -16.477493    3.049765    0.520194
     40          6           0      -18.433699    2.897737   -0.914283
     41          6           0      -18.717451    4.391313   -0.796977
     42          8           0      -19.268104    4.852094    0.200341
     43          8           0      -18.162396    5.108771   -1.868011
     44          6           0      -18.363480    6.531683   -1.803180
     45          1           0      -24.281401    0.465567   -3.652548
     46          1           0      -25.142101   -3.007108    1.734756
     47          1           0      -19.335650   -1.152240    3.834359
     48          1           0      -20.150681    3.057676   -3.381631
     49          1           0      -22.232455    1.720169   -4.668869
     50          1           0      -23.406742    3.433166   -4.338162
     51          1           0      -22.121883    4.085368   -3.214184
     52          1           0      -23.608783    3.363289   -2.539056
     53          1           0      -20.420076    0.696415   -4.891827
     54          1           0      -19.628468    0.211156   -3.420546
     55          1           0      -18.363488    2.628456   -4.490795
     56          1           0      -18.464091    1.561891   -5.859260
     57          1           0      -26.627467   -2.374915   -3.822812
     58          1           0      -25.709169   -0.889644   -4.081860
     59          1           0      -27.243426   -0.863685   -3.241840
     60          1           0      -26.531716   -4.300132    1.063589
     61          1           0      -28.262738   -4.148530    0.708752
     62          1           0      -27.552657   -2.821917    1.419668
     63          1           0      -23.541532   -3.744409    3.727575
     64          1           0      -21.606498   -1.970727    4.878962
     65          1           0      -25.074514   -2.326799    4.684443
     66          1           0      -24.158533   -0.846375    4.100722
     67          1           0      -23.621693   -1.769652    5.469955
     68          1           0      -19.977293   -4.092987    3.564570
     69          1           0      -21.590782   -4.606573    3.907846
     70          1           0      -20.844071   -5.268023    5.939012
     71          1           0      -20.663211   -3.568967    6.332670
     72          1           0      -19.302937   -4.429547    5.533716
     73          1           0      -17.358737   -0.403048    3.601646
     74          1           0      -17.484185    1.312182    3.984998
     75          1           0      -16.266449    0.826958    2.786548
     76          1           0      -17.776942    2.710810   -1.762809
     77          1           0      -19.365272    6.861752   -2.079373
     78          1           0      -17.670234    7.064155   -2.453712
     79          1           0      -18.173973    6.968249   -0.822944
     80         12           0       21.591254   -0.974760   -0.313699
     81          6           0       22.623455    2.427308    0.579549
     82          6           0       18.302237    0.112575    0.211660
     83          6           0       20.614245   -4.054574   -0.747034
     84          6           0       24.867967   -1.764658   -0.947060
     85          7           0       20.608996    0.948007    0.511978
     86          6           0       21.197740    2.268982    0.694480
     87          6           0       20.182033    3.349884    1.122507
     88          6           0       18.826967    2.432387    1.172484
     89          6           0       19.228667    1.052903    0.614610
     90          6           0       18.191040    2.354968    2.546861
     91          6           0       20.202104    4.547858    0.125523
     92          6           0       19.064181    5.514561    0.260063
     93          1           0       19.332833    7.002237    0.211957
     94          7           0       19.700869   -1.899147   -0.256783
     95          6           0       18.459381   -1.292590   -0.034564
     96          6           0       17.396988   -2.290193   -0.147669
     97          6           0       18.058936   -3.551953   -0.442154
     98          6           0       19.534569   -3.239033   -0.502919
     99          6           0       15.857302   -1.981706   -0.059964
    100          6           0       17.523195   -4.928008   -0.610804
    101          8           0       18.193791   -5.912640   -0.891076
    102          6           0       16.070816   -5.165180   -0.558718
    103          7           0       22.549986   -2.602767   -0.855408
    104          6           0       21.972113   -3.805414   -0.856677
    105          6           0       22.953472   -4.939441   -1.235146
    106          6           0       24.147736   -4.140653   -1.714429
    107          6           0       23.887363   -2.721671   -1.075427
    108          6           0       23.282798   -5.864798   -0.069475
    109          6           0       24.507355   -3.999632   -3.170867
    110          6           0       23.465260   -3.283554   -4.003210
    111          7           0       23.402857    0.035534   -0.126199
    112          6           0       24.670730   -0.417586   -0.533180
    113          6           0       25.635521    0.629710   -0.304687
    114          6           0       24.814920    1.731396    0.049522
    115          6           0       23.469005    1.334096    0.163133
    116          6           0       27.109072    0.625293   -0.589592
    117          6           0       24.917279    3.197284    0.328459
    118          8           0       25.884342    3.982954    0.233318
    119          6           0       23.506537    3.645284    0.703998
    120          6           0       23.517673    4.310180    2.082078
    121          8           0       23.791816    3.828100    3.220639
    122          8           0       23.013707    5.566628    1.918617
    123          6           0       22.857782    6.362533    3.157196
    124          1           0       17.283105    0.500709    0.176621
    125          1           0       20.317889   -5.102034   -0.832815
    126          1           0       25.932398   -1.951430   -1.104498
    127          1           0       20.562381    3.735555    2.068344
    128          1           0       18.127049    2.799251    0.421706
    129          1           0       17.169761    2.730427    2.476569
    130          1           0       18.772557    3.014577    3.189974
    131          1           0       18.332538    1.437161    3.117162
    132          1           0       20.331553    4.101978   -0.861259
    133          1           0       21.124465    5.108273    0.278614
    134          1           0       18.489086    5.476559    1.184937
    135          1           0       18.390344    5.392466   -0.587470
    136          1           0       15.466308   -2.253474   -1.040883
    137          1           0       15.634744   -0.931058    0.125716
    138          1           0       15.466595   -2.618343    0.733952
    139          1           0       15.566461   -4.637575    0.251088
    140          1           0       15.995135   -6.239969   -0.397580
    141          1           0       15.699529   -4.689040   -1.465698
    142          1           0       22.471410   -5.529089   -2.014993
    143          1           0       25.086858   -4.534020   -1.324294
    144          1           0       23.313639   -6.888561   -0.440591
    145          1           0       22.524853   -5.802501    0.710655
    146          1           0       24.303897   -5.691394    0.272115
    147          1           0       24.760447   -4.990314   -3.549484
    148          1           0       25.360576   -3.333786   -3.299280
    149          1           0       23.262964   -3.802530   -4.939423
    150          1           0       23.786703   -2.290383   -4.317675
    151          1           0       22.496759   -3.174993   -3.514867
    152          1           0       27.366374    1.493357   -1.196025
    153          1           0       27.578102   -0.223930   -1.086455
    154          1           0       27.615437    0.711576    0.372015
    155          1           0       23.205765    4.431062    0.010454
    156          1           0       21.816761    6.342041    3.478952
    157          1           0       23.247651    7.312696    2.792073
    158          1           0       23.553885    6.057120    3.939443
 ---------------------------------------------------------------------

 SCF Done:  E(RPBE1PBE) =  -4067.39179126     A.U. after   16 cycles

 Excitation energies and oscillator strengths:

 Excited State   1:      Singlet-A      1.8175 eV  682.18 nm  f=0.3938  <S**2>=0.000
     310 -> 316        0.16216
     311 -> 313        0.69594
     311 <- 313       -0.11403
 This state for optimization and/or second-order correction.
 Total Energy, E(TD-HF/TD-DFT) =  -4067.32500031
 Copying the excited state density for this state as the 1-particle RhoCI density.

 Excited State   2:      Singlet-A      1.8226 eV  680.24 nm  f=0.0000  <S**2>=0.000
     312 -> 313        0.70711

 Excited State   3:      Singlet-A      1.8785 eV  660.01 nm  f=0.3488  <S**2>=0.000
     309 -> 315        0.18358
     312 -> 314        0.68999
     312 <- 314       -0.10094

 Excited State   4:      Singlet-A      2.1468 eV  577.53 nm  f=0.0000  <S**2>=0.000
     311 -> 314        0.70710

 Excited State   5:      Singlet-A      2.1799 eV  568.76 nm  f=0.1282  <S**2>=0.000
     310 -> 313        0.66143
     311 -> 316       -0.23371

 The electronic state is 1-A.
 Alpha  occ. eigenvalues --  -46.92108 -46.91161 -19.26696 -19.26510 -19.20806
 Alpha  occ. eigenvalues --  -19.20006 -19.19339 -19.18954 -19.18899 -19.18770
 Alpha  occ. eigenvalues --  -14.42084 -14.41670 -14.41656 -14.41623 -14.39517
 Alpha  occ. eigenvalues --  -14.39105 -14.39028 -14.38671 -10.37293 -10.37092
 Alpha  occ. eigenvalues --  -10.32244 -10.31985 -10.31679 -10.31608 -10.29910
 Alpha  occ. eigenvalues --  -10.29204 -10.29045 -10.28908 -10.28896 -10.28792
 Alpha  occ. eigenvalues --  -10.28746 -10.28647 -10.28572 -10.28561 -10.28428
 Alpha  occ. eigenvalues --  -10.28368 -10.28141 -10.27851 -10.27468 -10.27317
 Alpha  occ. eigenvalues --  -10.27312 -10.26845 -10.26830 -10.26800 -10.26566
 Alpha  occ. eigenvalues --  -10.26554 -10.26454 -10.26323 -10.26259 -10.26017
 Alpha  occ. eigenvalues --  -10.26013 -10.25967 -10.25812 -10.25744 -10.25718
 Alpha  occ. eigenvalues --  -10.25705 -10.25626 -10.25474 -10.25411 -10.25315
 Alpha  occ. eigenvalues --  -10.25124 -10.25091 -10.24916 -10.24842 -10.24777
 Alpha  occ. eigenvalues --  -10.24703 -10.24581 -10.24550 -10.24537 -10.24464
 Alpha  occ. eigenvalues --  -10.24406 -10.24110 -10.23767 -10.23686 -10.23645
 Alpha  occ. eigenvalues --  -10.23547 -10.23376 -10.23333 -10.23256 -10.23149
 Alpha  occ. eigenvalues --  -10.23061 -10.23031 -10.22917 -10.22806 -10.22721
 Alpha  occ. eigenvalues --  -10.21976  -3.14296  -3.13477  -1.87110  -1.86686
 Alpha  occ. eigenvalues --   -1.86520  -1.86325  -1.85864  -1.85702  -1.10869
 Alpha  occ. eigenvalues --   -1.10737  -1.06731  -1.04894  -1.03814  -1.03028
 Alpha  occ. eigenvalues --   -1.02695  -1.00653  -0.99658  -0.99407  -0.98919
 Alpha  occ. eigenvalues --   -0.97702  -0.97520  -0.96810  -0.96724  -0.95151
 Alpha  occ. eigenvalues --   -0.87405  -0.86763  -0.83992  -0.83477  -0.83296
 Alpha  occ. eigenvalues --   -0.83125  -0.82947  -0.82890  -0.81949  -0.81616
 Alpha  occ. eigenvalues --   -0.81481  -0.81076  -0.80336  -0.79354  -0.79013
 Alpha  occ. eigenvalues --   -0.78881  -0.78547  -0.78404  -0.77219  -0.76847
 Alpha  occ. eigenvalues --   -0.76786  -0.76303  -0.75809  -0.75408  -0.75213
 Alpha  occ. eigenvalues --   -0.74401  -0.72657  -0.72373  -0.71618  -0.71558
 Alpha  occ. eigenvalues --   -0.71201  -0.70737  -0.70615  -0.70324  -0.69805
 Alpha  occ. eigenvalues --   -0.69480  -0.67341  -0.67292  -0.66626  -0.66327
 Alpha  occ. eigenvalues --   -0.64585  -0.63813  -0.63436  -0.63058  -0.62525
 Alpha  occ. eigenvalues --   -0.62052  -0.61624  -0.61259  -0.60290  -0.60113
 Alpha  occ. eigenvalues --   -0.59581  -0.59435  -0.59227  -0.59058  -0.58750
 Alpha  occ. eigenvalues --   -0.58376  -0.57306  -0.56580  -0.54785  -0.54665
 Alpha  occ. eigenvalues --   -0.54641  -0.53792  -0.53766  -0.53706  -0.53511
 Alpha  occ. eigenvalues --   -0.52990  -0.52911  -0.52315  -0.52283  -0.51945
 Alpha  occ. eigenvalues --   -0.50876  -0.50812  -0.50704  -0.50448  -0.49984
 Alpha  occ. eigenvalues --   -0.49831  -0.49784  -0.49423  -0.49349  -0.48941
 Alpha  occ. eigenvalues --   -0.48607  -0.48167  -0.47855  -0.47718  -0.47640
 Alpha  occ. eigenvalues --   -0.47490  -0.47469  -0.47342  -0.47196  -0.47078
 Alpha  occ. eigenvalues --   -0.46803  -0.46776  -0.46346  -0.45820  -0.45640
 Alpha  occ. eigenvalues --   -0.45522  -0.45413  -0.45163  -0.45152  -0.44998
 Alpha  occ. eigenvalues --   -0.44807  -0.44774  -0.44491  -0.44489  -0.44185
 Alpha  occ. eigenvalues --   -0.43937  -0.43928  -0.43702  -0.43509  -0.43474
 Alpha  occ. eigenvalues --   -0.43331  -0.43215  -0.43033  -0.42935  -0.42772
 Alpha  occ. eigenvalues --   -0.42747  -0.42418  -0.42268  -0.42155  -0.41870
 Alpha  occ. eigenvalues --   -0.41728  -0.41480  -0.41332  -0.41325  -0.41058
 Alpha  occ. eigenvalues --   -0.41031  -0.40900  -0.40885  -0.40739  -0.40700
 Alpha  occ. eigenvalues --   -0.40493  -0.40197  -0.40156  -0.40037  -0.39691
 Alpha  occ. eigenvalues --   -0.39249  -0.39245  -0.39143  -0.39102  -0.39084
 Alpha  occ. eigenvalues --   -0.39028  -0.38840  -0.38671  -0.38411  -0.38357
 Alpha  occ. eigenvalues --   -0.38164  -0.37930  -0.37906  -0.37475  -0.37422
 Alpha  occ. eigenvalues --   -0.37348  -0.37264  -0.37056  -0.37044  -0.36861
 Alpha  occ. eigenvalues --   -0.36687  -0.36583  -0.36479  -0.36479  -0.36079
 Alpha  occ. eigenvalues --   -0.36041  -0.35834  -0.35733  -0.35623  -0.35353
 Alpha  occ. eigenvalues --   -0.35308  -0.34965  -0.34842  -0.34197  -0.33999
 Alpha  occ. eigenvalues --   -0.33923  -0.33845  -0.33011  -0.32501  -0.32331
 Alpha  occ. eigenvalues --   -0.32173  -0.32096  -0.31812  -0.31745  -0.31627
 Alpha  occ. eigenvalues --   -0.31581  -0.31181  -0.29941  -0.29735  -0.29531
 Alpha  occ. eigenvalues --   -0.29128  -0.29041  -0.28614  -0.27077  -0.26987
 Alpha  occ. eigenvalues --   -0.26142  -0.25882  -0.25850  -0.25781  -0.25611
 Alpha  occ. eigenvalues --   -0.25382  -0.25292  -0.25012  -0.21314  -0.21158
 Alpha  occ. eigenvalues --   -0.19103  -0.18700
 Alpha virt. eigenvalues --   -0.11694  -0.10909  -0.05673  -0.05232  -0.03870
 Alpha virt. eigenvalues --   -0.03734  -0.02201  -0.01908  -0.00905  -0.00384
 Alpha virt. eigenvalues --   -0.00322   0.00096   0.00725   0.01474   0.01737

 Mulliken charges:
               1
     1  Mg  11.999995
     2  C    5.999806
     3  C    6.000038
     4  C    6.000153
     5  C    5.999982
     6  N    6.999957
     7  C    6.000229
     8  C    6.000004
     9  C    6.000074
    10  C    5.999769
    11  C    6.000017
    12  C    5.999992
    13  C    5.999956
    14  H    1.000096
    15  N    7.000039
    16  C    5.999700
    17  C    5.999854
    18  C    5.999920
    19  C    5.999677
    20  C    6.000002
    21  C    5.999858
    22  O    7.999805
    23  C    6.000083
    24  N    6.999980
    25  C    5.999743
    26  C    6.000080
    27  C    5.999950
    28  C    6.000259
    29  C    6.000030
    30  C    5.999935
    31  C    5.999995
    32  N    6.999978
    33  C    6.000248
    34  C    6.000259
    35  C    5.999984
    36  C    6.000310
    37  C    6.000034
    38  C    6.000181
    39  O    8.000356
    40  C    5.999962
    41  C    6.000054
    42  O    7.999982
    43  O    8.000043
    44  C    6.000001
    45  H    0.999878
    46  H    0.999900
    47  H    1.000113
    48  H    0.999953
    49  H    0.999965
    50  H    0.999952
    51  H    0.999867
    52  H    0.999972
    53  H    1.000085
    54  H    1.000022
    55  H    0.999964
    56  H    1.000031
    57  H    0.999845
    58  H    0.999866
    59  H    0.999800
    60  H    0.999941
    61  H    0.999839
    62  H    0.999893
    63  H    0.999996
    64  H    0.999991
    65  H    0.999978
    66  H    0.999949
    67  H    0.999899
    68  H    1.000056
    69  H    1.000094
    70  H    1.000034
    71  H    0.999985
    72  H    1.000056
    73  H    1.000181
    74  H    1.000134
    75  H    1.000199
    76  H    1.000135
    77  H    1.000004
    78  H    1.000050
    79  H    0.999999
    80  Mg  12.002244
    81  C    5.984037
    82  C    6.006128
    83  C    6.014548
    84  C    5.990419
    85  N    6.994229
    86  C    6.031271
    87  C    5.989469
    88  C    6.007685
    89  C    5.975821
    90  C    6.006683
    91  C    5.996986
    92  C    6.000385
    93  H    1.000522
    94  N    7.004506
    95  C    5.964385
    96  C    5.978012
    97  C    5.984895
    98  C    5.970615
    99  C    5.998557
   100  C    5.988043
   101  O    7.969866
   102  C    6.003183
   103  N    6.998435
   104  C    5.966915
   105  C    6.007486
   106  C    5.998318
   107  C    6.032390
   108  C    6.001656
   109  C    5.993005
   110  C    5.994980
   111  N    6.998688
   112  C    6.039400
   113  C    6.021485
   114  C    6.006028
   115  C    6.032426
   116  C    5.997279
   117  C    6.019250
   118  O    8.030649
   119  C    5.998007
   120  C    6.002477
   121  O    8.005967
   122  O    8.001673
   123  C    5.998948
   124  H    0.989260
   125  H    0.993723
   126  H    1.009297
   127  H    0.999997
   128  H    1.000049
   129  H    0.998707
   130  H    0.987241
   131  H    1.002020
   132  H    1.002442
   133  H    0.994251
   134  H    1.004628
   135  H    1.005100
   136  H    0.984708
   137  H    0.983136
   138  H    0.985129
   139  H    0.993125
   140  H    0.986198
   141  H    0.992143
   142  H    1.001491
   143  H    1.000352
   144  H    0.997582
   145  H    1.005239
   146  H    0.987493
   147  H    1.010072
   148  H    0.995602
   149  H    1.005730
   150  H    0.994513
   151  H    1.014703
   152  H    1.014339
   153  H    1.017438
   154  H    1.016738
   155  H    1.008125
   156  H    1.006485
   157  H    1.002878
   158  H    1.002113
 Sum of Mulliken charges = 624.00000

 Dipole moment (field-independent basis, Debye):
    X=              9.2068    Y=              5.4328    Z=              0.0557  Tot=             10.6904
 Quadrupole moment (field-independent basis, Debye-Ang):
   XX=            386.1039   YY=             -7.1969   ZZ=              1.3292
   XY=            106.4910   XZ=             -2.5251   YZ=              0.7254

 Normal termination of Gaussian 16 at Fri Oct 15 15:38:14 2021.
