 Gaussian 16, Revision A.03,
 Gaussian 16:  ES64L-G16RevA.03 25-Dec-2016

 --------------------------------------------------------
 #p PBE1PBE/Def2SVP td=(nstates=5) density=(transition=1)
 --------------------------------------------------------

 --------------------------------
 TDDFT excited states in gaussian
 --------------------------------
 Symbolic Z-matrix:
 Charge =  0 Multiplicity = 1

                         Standard orientation:
 ---------------------------------------------------------------------
 Center     Atomic      Atomic             Coordinates (Angstroms)
 Number     Number       Type             X           Y           Z
 ---------------------------------------------------------------------
      1         12           0       11.632919   -0.041126    0.189450
      2          6           0        9.088837   -1.496850   -1.637555
      3          6           0       11.343375    2.746512   -1.809441
      4          6           0       13.717552    1.629145    2.349012
      5          6           0       11.782678   -2.821049    2.214491
      6          7           0       10.243904    0.629101   -1.378050
      7          6           0        9.326677   -0.193585   -2.001721
      8          6           0        8.623278    0.512250   -3.157938
      9          6           0        9.593721    1.726698   -3.405896
     10          6           0       10.399216    1.726318   -2.114863
     11          6           0       10.448283    1.719203   -4.753447
     12          6           0        7.124265    0.889455   -2.932946
     13          6           0        6.188217    0.577817   -4.081536
     14          1           0        5.678596    1.837775   -4.763883
     15          7           0       12.377423    1.898351    0.235807
     16          6           0       12.172344    2.864611   -0.666397
     17          6           0       12.958591    4.043661   -0.347214
     18          6           0       13.672536    3.842423    0.822293
     19          6           0       13.248000    2.436155    1.235232
     20          6           0       12.882122    5.391165   -1.211191
     21          6           0       14.708187    4.817514    1.477362
     22          8           0       14.879299    5.956698    0.958140
     23          6           0       15.449216    4.462631    2.709252
     24          7           0       12.465437   -0.445666    2.224605
     25          6           0       13.392453    0.297272    2.784124
     26          6           0       14.152995   -0.431833    3.871974
     27          6           0       13.529801   -1.865725    3.967686
     28          6           0       12.570444   -1.780297    2.685734
     29          6           0       15.708074   -0.309200    3.955027
     30          6           0       12.753835   -2.307477    5.242284
     31          6           0       12.590725   -3.809914    5.344588
     32          7           0       10.615426   -1.836893    0.289704
     33          6           0       10.841404   -2.945845    1.137536
     34          6           0        9.995548   -4.019699    0.692765
     35          6           0        9.289732   -3.528864   -0.432678
     36          6           0        9.695070   -2.204219   -0.570497
     37          6           0       10.048031   -5.467110    1.158678
     38          6           0        8.379643   -3.910254   -1.394652
     39          8           0        7.696569   -4.877831   -1.592819
     40          6           0        8.072521   -2.528949   -2.175969
     41          6           0        6.736231   -2.068977   -1.595189
     42          8           0        6.583380   -1.495599   -0.533843
     43          8           0        5.756896   -2.450466   -2.498037
     44          6           0        4.378969   -2.203053   -2.086034
     45          1           0       11.442236    3.570728   -2.518684
     46          1           0       14.385600    2.214210    2.984027
     47          1           0       11.819689   -3.809255    2.677641
     48          1           0        8.707010   -0.133015   -4.031943
     49          1           0        8.995876    2.630577   -3.283383
     50          1           0       11.288711    2.357711   -4.481472
     51          1           0        9.987253    2.261293   -5.579466
     52          1           0       10.767914    0.746974   -5.128307
     53          1           0        7.163907    1.965667   -2.763500
     54          1           0        6.677545    0.594813   -1.983577
     55          1           0        5.360915   -0.004363   -3.675017
     56          1           0        6.667341   -0.013323   -4.862231
     57          1           0       12.171955    5.372954   -2.038966
     58          1           0       13.863155    5.641946   -1.616037
     59          1           0       12.487521    6.237011   -0.649929
     60          1           0       16.042121    3.566018    2.531343
     61          1           0       14.796536    4.453309    3.582290
     62          1           0       16.234964    5.214909    2.766156
     63          1           0       13.921291   -0.126606    4.892599
     64          1           0       14.203967   -2.639275    3.599202
     65          1           0       15.977724    0.511746    3.289190
     66          1           0       16.234900   -1.246997    3.774973
     67          1           0       16.081592   -0.008588    4.934019
     68          1           0       11.810903   -1.761177    5.223482
     69          1           0       13.325638   -1.877648    6.064648
     70          1           0       12.577770   -4.066003    6.404294
     71          1           0       13.383317   -4.398342    4.880845
     72          1           0       11.597235   -4.083257    4.989022
     73          1           0        9.459081   -6.149758    0.546051
     74          1           0        9.722294   -5.489888    2.197812
     75          1           0       11.069754   -5.846972    1.154755
     76          1           0        8.131123   -2.661864   -3.256686
     77          1           0        4.141944   -2.822722   -1.221047
     78          1           0        3.676573   -2.361550   -2.903622
     79          1           0        4.283832   -1.174265   -1.739841
     80         12           0      -11.350687    0.410798    0.491348
     81          6           0       -8.764762   -0.235081   -1.974380
     82          6           0      -11.685550   -2.938946    0.670159
     83          6           0      -13.663307    1.003381    2.613474
     84          6           0      -10.996391    3.873385   -0.158143
     85          7           0      -10.244568   -1.439280   -0.584412
     86          6           0       -9.206402   -1.429220   -1.438206
     87          6           0       -8.694967   -2.863549   -1.672102
     88          6           0       -9.994956   -3.633385   -1.146828
     89          6           0      -10.643900   -2.650806   -0.265368
     90          6           0      -10.830022   -4.408566   -2.152177
     91          6           0       -7.399984   -3.064246   -0.866089
     92          6           0       -6.475600   -4.162430   -1.469530
     93          1           0       -6.694614   -4.787356   -2.924320
     94          7           0      -12.528962   -0.812519    1.578474
     95          6           0      -12.604925   -2.187955    1.471023
     96          6           0      -13.671012   -2.648891    2.355233
     97          6           0      -14.211884   -1.505775    2.993946
     98          6           0      -13.457339   -0.374389    2.384091
     99          6           0      -14.068948   -4.049297    2.508396
    100          6           0      -15.347890   -1.394285    4.139860
    101          8           0      -15.571750   -0.358235    4.703676
    102          6           0      -15.977654   -2.648188    4.772611
    103          7           0      -12.379306    2.195633    0.921114
    104          6           0      -13.200678    2.172660    1.967686
    105          6           0      -13.679342    3.528663    2.411991
    106          6           0      -12.545927    4.395259    1.810773
    107          6           0      -12.048222    3.439479    0.672382
    108          6           0      -15.111468    3.943575    1.833210
    109          6           0      -11.416075    4.867064    2.819289
    110          6           0      -11.758801    5.086580    4.321579
    111          7           0      -10.248124    1.599538   -0.844371
    112          6           0      -10.135962    2.944660   -0.974065
    113          6           0       -9.100906    3.298588   -1.835751
    114          6           0       -8.603304    2.101054   -2.263975
    115          6           0       -9.286420    1.072769   -1.645234
    116          6           0       -8.628523    4.718100   -2.137748
    117          6           0       -7.548279    1.552847   -3.129495
    118          8           0       -6.817352    2.052077   -3.971845
    119          6           0       -7.597350   -0.017346   -2.878097
    120          6           0       -7.674681   -0.664002   -4.176340
    121          8           0       -8.674677   -0.775738   -4.892606
    122          8           0       -6.406188   -0.887964   -4.578324
    123          6           0       -6.315137   -1.176173   -5.998440
    124          1           0      -11.912045   -4.004056    0.587410
    125          1           0      -14.484992    1.167355    3.312965
    126          1           0      -10.859465    4.952502   -0.252205
    127          1           0       -8.597129   -3.086593   -2.734617
    128          1           0       -9.622795   -4.422093   -0.494392
    129          1           0      -10.779834   -5.484013   -1.984603
    130          1           0      -10.493315   -4.194047   -3.166255
    131          1           0      -11.879965   -4.116776   -2.177290
    132          1           0       -7.685207   -3.458705    0.109436
    133          1           0       -6.847261   -2.144289   -0.676515
    134          1           0       -6.314205   -4.983212   -0.769958
    135          1           0       -5.492021   -3.706278   -1.358162
    136          1           0      -13.260632   -4.730708    2.243902
    137          1           0      -14.924466   -4.174072    1.844380
    138          1           0      -14.357402   -4.321284    3.523974
    139          1           0      -15.275054   -3.251881    5.347028
    140          1           0      -16.498743   -3.135338    3.948153
    141          1           0      -16.803451   -2.358477    5.422928
    142          1           0      -13.717199    3.425936    3.496217
    143          1           0      -12.910078    5.307063    1.338000
    144          1           0      -15.601139    4.332698    2.725614
    145          1           0      -15.695129    3.112494    1.435747
    146          1           0      -15.109078    4.735513    1.085230
    147          1           0      -10.946767    5.764411    2.418536
    148          1           0      -10.775654    3.984876    2.824208
    149          1           0      -11.666954    4.150903    4.872564
    150          1           0      -12.750572    5.538827    4.287197
    151          1           0      -11.123440    5.841717    4.783086
    152          1           0       -8.854706    5.278630   -1.230384
    153          1           0       -9.193664    5.198789   -2.935747
    154          1           0       -7.559685    4.683896   -2.347970
    155          1           0       -6.668606   -0.274606   -2.367277
    156          1           0       -5.293893   -1.336927   -6.342684
    157          1           0       -6.887444   -0.531364   -6.665568
    158          1           0       -6.762009   -2.146550   -6.217443
 ---------------------------------------------------------------------

 SCF Done:  E(RPBE1PBE) =  -4067.34914894     A.U. after   17 cycles

 Excitation energies and oscillator strengths:

 Excited State   1:      Singlet-A      1.8859 eV  657.42 nm  f=0.3568  <S**2>=0.000
     309 -> 315       -0.14489
     311 -> 313        0.69236
 This state for optimization and/or second-order correction.
 Total Energy, E(TD-HF/TD-DFT) =  -4067.27984248
 Copying the excited state density for this state as the 1-particle RhoCI density.

 Excited State   2:      Singlet-A      1.9473 eV  636.70 nm  f=0.3556  <S**2>=0.000
     310 -> 316       -0.18510
     312 -> 314        0.68731

 Excited State   3:      Singlet-A      1.9569 eV  633.59 nm  f=0.0000  <S**2>=0.000
     312 -> 313        0.70709

 Excited State   4:      Singlet-A      2.0729 eV  598.11 nm  f=0.0000  <S**2>=0.000
     311 -> 314        0.70709

 Excited State   5:      Singlet-A      2.2297 eV  556.05 nm  f=0.1186  <S**2>=0.000
     309 -> 313        0.65561
     311 -> 315        0.21910
     311 -> 317        0.11472

 The electronic state is 1-A.
 Alpha  occ. eigenvalues --  -46.92765 -46.92707 -19.25522 -19.25276 -19.20459
 Alpha  occ. eigenvalues --  -19.20234 -19.20047 -19.19268 -19.18986 -19.18448
 Alpha  occ. eigenvalues --  -14.41694 -14.41552 -14.40726 -14.40691 -14.39947
 Alpha  occ. eigenvalues --  -14.39388 -14.38425 -14.38390 -10.36261 -10.35177
 Alpha  occ. eigenvalues --  -10.33898 -10.33802 -10.32138 -10.30915 -10.30195
 Alpha  occ. eigenvalues --  -10.29659 -10.28976 -10.28539 -10.28517 -10.28423
 Alpha  occ. eigenvalues --  -10.28184 -10.28089 -10.28071 -10.27989 -10.27810
 Alpha  occ. eigenvalues --  -10.27741 -10.27494 -10.27448 -10.26836 -10.26814
 Alpha  occ. eigenvalues --  -10.26664 -10.26618 -10.26469 -10.26334 -10.26073
 Alpha  occ. eigenvalues --  -10.26033 -10.26000 -10.25878 -10.25744 -10.25739
 Alpha  occ. eigenvalues --  -10.25691 -10.25500 -10.25351 -10.25296 -10.25239
 Alpha  occ. eigenvalues --  -10.25237 -10.25184 -10.25147 -10.25130 -10.25118
 Alpha  occ. eigenvalues --  -10.25102 -10.25056 -10.24773 -10.24551 -10.24531
 Alpha  occ. eigenvalues --  -10.24495 -10.24483 -10.24472 -10.24429 -10.24392
 Alpha  occ. eigenvalues --  -10.24381 -10.24271 -10.24197 -10.23872 -10.23799
 Alpha  occ. eigenvalues --  -10.23558 -10.23537 -10.23423 -10.23400 -10.23337
 Alpha  occ. eigenvalues --  -10.23108 -10.23065 -10.22977 -10.22863 -10.21691
 Alpha  occ. eigenvalues --  -10.21414  -3.14789  -3.14786  -1.87631  -1.87609
 Alpha  occ. eigenvalues --   -1.87181  -1.87164  -1.87013  -1.86998  -1.11251
 Alpha  occ. eigenvalues --   -1.10325  -1.07116  -1.05010  -1.04359  -1.03455
 Alpha  occ. eigenvalues --   -1.02849  -1.01416  -1.00395  -0.99712  -0.99131
 Alpha  occ. eigenvalues --   -0.99112  -0.98351  -0.98327  -0.97871  -0.97181
 Alpha  occ. eigenvalues --   -0.86752  -0.86202  -0.83459  -0.83173  -0.82903
 Alpha  occ. eigenvalues --   -0.82705  -0.82367  -0.82148  -0.81675  -0.81350
 Alpha  occ. eigenvalues --   -0.81200  -0.80548  -0.80333  -0.80127  -0.78622
 Alpha  occ. eigenvalues --   -0.78536  -0.77908  -0.77419  -0.77195  -0.76575
 Alpha  occ. eigenvalues --   -0.76312  -0.75854  -0.75158  -0.75032  -0.74563
 Alpha  occ. eigenvalues --   -0.74410  -0.72639  -0.71961  -0.71320  -0.71092
 Alpha  occ. eigenvalues --   -0.70935  -0.70882  -0.70061  -0.69714  -0.69544
 Alpha  occ. eigenvalues --   -0.69453  -0.67263  -0.66915  -0.66082  -0.66012
 Alpha  occ. eigenvalues --   -0.64072  -0.63921  -0.63448  -0.63105  -0.62435
 Alpha  occ. eigenvalues --   -0.62142  -0.61568  -0.61022  -0.59977  -0.59893
 Alpha  occ. eigenvalues --   -0.59868  -0.59483  -0.59186  -0.59086  -0.58676
 Alpha  occ. eigenvalues --   -0.58207  -0.56395  -0.56361  -0.55137  -0.54331
 Alpha  occ. eigenvalues --   -0.54118  -0.53948  -0.53790  -0.53534  -0.52962
 Alpha  occ. eigenvalues --   -0.52918  -0.52495  -0.52463  -0.52081  -0.52033
 Alpha  occ. eigenvalues --   -0.50954  -0.50806  -0.50098  -0.49969  -0.49761
 Alpha  occ. eigenvalues --   -0.49660  -0.49094  -0.48693  -0.48496  -0.48303
 Alpha  occ. eigenvalues --   -0.48166  -0.48055  -0.48000  -0.47987  -0.47724
 Alpha  occ. eigenvalues --   -0.47511  -0.47190  -0.47189  -0.46767  -0.46578
 Alpha  occ. eigenvalues --   -0.46189  -0.46024  -0.45883  -0.45700  -0.45682
 Alpha  occ. eigenvalues --   -0.45434  -0.45201  -0.45195  -0.44949  -0.44702
 Alpha  occ. eigenvalues --   -0.44702  -0.44507  -0.44235  -0.44224  -0.43944
 Alpha  occ. eigenvalues --   -0.43715  -0.43516  -0.43402  -0.43347  -0.43292
 Alpha  occ. eigenvalues --   -0.43256  -0.43215  -0.42853  -0.42828  -0.42603
 Alpha  occ. eigenvalues --   -0.42242  -0.42178  -0.42033  -0.41972  -0.41683
 Alpha  occ. eigenvalues --   -0.41577  -0.41396  -0.41229  -0.40995  -0.40792
 Alpha  occ. eigenvalues --   -0.40734  -0.40562  -0.40522  -0.40226  -0.40064
 Alpha  occ. eigenvalues --   -0.39994  -0.39894  -0.39788  -0.39546  -0.39391
 Alpha  occ. eigenvalues --   -0.39382  -0.39073  -0.38916  -0.38845  -0.38775
 Alpha  occ. eigenvalues --   -0.38774  -0.38623  -0.38473  -0.38365  -0.38230
 Alpha  occ. eigenvalues --   -0.38020  -0.37954  -0.37825  -0.37780  -0.37516
 Alpha  occ. eigenvalues --   -0.37472  -0.37354  -0.37349  -0.37158  -0.37104
 Alpha  occ. eigenvalues --   -0.37026  -0.37009  -0.36831  -0.36407  -0.36241
 Alpha  occ. eigenvalues --   -0.36119  -0.35815  -0.35347  -0.35302  -0.35069
 Alpha  occ. eigenvalues --   -0.34860  -0.34587  -0.34169  -0.34161  -0.33890
 Alpha  occ. eigenvalues --   -0.33539  -0.33123  -0.33002  -0.32930  -0.32390
 Alpha  occ. eigenvalues --   -0.32385  -0.31620  -0.31513  -0.31383  -0.30810
 Alpha  occ. eigenvalues --   -0.30650  -0.30437  -0.29599  -0.29369  -0.29222
 Alpha  occ. eigenvalues --   -0.28672  -0.28619  -0.27936  -0.27188  -0.26906
 Alpha  occ. eigenvalues --   -0.26740  -0.26527  -0.26362  -0.26109  -0.25480
 Alpha  occ. eigenvalues --   -0.25280  -0.25242  -0.24907  -0.20837  -0.20294
 Alpha  occ. eigenvalues --   -0.18918  -0.18832
 Alpha virt. eigenvalues --   -0.11064  -0.10719  -0.05446  -0.04592  -0.03882
 Alpha virt. eigenvalues --   -0.03571  -0.02489  -0.01779  -0.00904  -0.00383
 Alpha virt. eigenvalues --    0.00188   0.00936   0.01151   0.01301   0.02116

 Mulliken charges:
               1
     1  Mg  12.001107
     2  C    5.990654
     3  C    6.012921
     4  C    6.012523
     5  C    5.990590
     6  N    6.997377
     7  C    6.024003
     8  C    5.991381
     9  C    6.008440
    10  C    5.966964
    11  C    6.000744
    12  C    5.994920
    13  C    5.997640
    14  H    1.008930
    15  N    7.005000
    16  C    5.969033
    17  C    5.976702
    18  C    5.991595
    19  C    5.964297
    20  C    6.001787
    21  C    5.988326
    22  O    7.980904
    23  C    6.003747
    24  N    6.995765
    25  C    5.968609
    26  C    6.015378
    27  C    5.995784
    28  C    6.031727
    29  C    6.000558
    30  C    5.995242
    31  C    5.997932
    32  N    7.001394
    33  C    6.037438
    34  C    6.025927
    35  C    6.004804
    36  C    6.020696
    37  C    6.000709
    38  C    6.015963
    39  O    8.030294
    40  C    6.001749
    41  C    6.001839
    42  O    8.006634
    43  O    8.001631
    44  C    5.997664
    45  H    0.992524
    46  H    0.993094
    47  H    1.005152
    48  H    0.998513
    49  H    1.000250
    50  H    1.006076
    51  H    0.993485
    52  H    0.989623
    53  H    1.010201
    54  H    0.997235
    55  H    0.996658
    56  H    1.000045
    57  H    0.983034
    58  H    0.985340
    59  H    0.984131
    60  H    0.991486
    61  H    0.990943
    62  H    0.988727
    63  H    0.992382
    64  H    0.997869
    65  H    1.006283
    66  H    0.991479
    67  H    0.996962
    68  H    1.002491
    69  H    1.010104
    70  H    1.004341
    71  H    1.000820
    72  H    0.993679
    73  H    1.011860
    74  H    1.016898
    75  H    1.018317
    76  H    1.010949
    77  H    1.000612
    78  H    1.005228
    79  H    1.005888
    80  Mg  11.999972
    81  C    5.999734
    82  C    5.999492
    83  C    6.000509
    84  C    6.000502
    85  N    6.999847
    86  C    5.999932
    87  C    5.999880
    88  C    6.000110
    89  C    6.000047
    90  C    6.000018
    91  C    6.000099
    92  C    6.000266
    93  H    0.999892
    94  N    7.000003
    95  C    6.000197
    96  C    5.999946
    97  C    6.000128
    98  C    5.999812
    99  C    6.000069
   100  C    6.000080
   101  O    8.000143
   102  C    5.999970
   103  N    7.000213
   104  C    5.999948
   105  C    5.999969
   106  C    5.999979
   107  C    5.999905
   108  C    5.999950
   109  C    5.999926
   110  C    5.999995
   111  N    7.000025
   112  C    5.999842
   113  C    6.000075
   114  C    5.999918
   115  C    6.000089
   116  C    6.000013
   117  C    5.999925
   118  O    7.999934
   119  C    6.000013
   120  C    5.999935
   121  O    8.000177
   122  O    7.999768
   123  C    6.000053
   124  H    0.999800
   125  H    1.000217
   126  H    1.000381
   127  H    0.999917
   128  H    0.999705
   129  H    0.999828
   130  H    0.999937
   131  H    1.000200
   132  H    0.999951
   133  H    0.999906
   134  H    0.999602
   135  H    0.999306
   136  H    0.999861
   137  H    1.000075
   138  H    0.999996
   139  H    0.999961
   140  H    1.000060
   141  H    1.000171
   142  H    1.000089
   143  H    1.000248
   144  H    1.000197
   145  H    1.000038
   146  H    1.000191
   147  H    1.000224
   148  H    0.999870
   149  H    0.999909
   150  H    1.000149
   151  H    1.000242
   152  H    1.000149
   153  H    1.000251
   154  H    1.000064
   155  H    0.999483
   156  H    0.999512
   157  H    1.000316
   158  H    0.999891
 Sum of Mulliken charges = 624.00000

 Dipole moment (field-independent basis, Debye):
    X=             -4.7350    Y=             -8.7947    Z=             -0.0514  Tot=              9.9885
 Quadrupole moment (field-independent basis, Debye-Ang):
   XX=           -102.1091   YY=             -0.6585   ZZ=             -0.4519
   XY=           -103.5401   XZ=             -1.3459   YZ=             -1.9825

 Normal termination of Gaussian 16 at Thu Oct 14 18:03:22 2021.
