 Gaussian 16, Revision A.03,
 Gaussian 16:  ES64L-G16RevA.03 25-Dec-2016

 --------------------------------------------------------
 #p PBE1PBE/Def2SVP td=(nstates=5) density=(transition=1)
 --------------------------------------------------------

 --------------------------------
 TDDFT excited states in gaussian
 --------------------------------
 Symbolic Z-matrix:
 Charge =  0 Multiplicity = 1

                         Standard orientation:
 ---------------------------------------------------------------------
 Center     Atomic      Atomic             Coordinates (Angstroms)
 Number     Number       Type             X           Y           Z
 ---------------------------------------------------------------------
      1         12           0       24.314990   -0.763628    0.049288
      2          6           0       26.053874    2.238843   -0.147703
      3          6           0       23.176135    0.115178    3.095633
      4          6           0       23.295998   -3.948598    0.555999
      5          6           0       26.189554   -1.939744   -2.717753
      6          7           0       24.563609    1.013405    1.193732
      7          6           0       25.172903    2.218863    0.921412
      8          6           0       24.996507    3.199256    2.113554
      9          6           0       24.565070    2.221098    3.249443
     10          6           0       23.956655    1.069396    2.462831
     11          6           0       25.738765    1.709564    4.156841
     12          6           0       24.083700    4.348210    1.647416
     13          6           0       24.520424    5.691910    2.092495
     14          1           0       23.974707    6.805456    1.318980
     15          7           0       23.184410   -1.677626    1.510999
     16          6           0       22.763288   -1.106849    2.669169
     17          6           0       21.745680   -1.947983    3.247480
     18          6           0       21.779115   -3.168185    2.480588
     19          6           0       22.855955   -2.993863    1.501456
     20          6           0       20.980121   -1.593533    4.471694
     21          6           0       21.023301   -4.524064    2.667315
     22          8           0       21.165403   -5.479836    1.901944
     23          6           0       19.962852   -4.686781    3.720187
     24          7           0       24.989218   -2.734927   -0.770996
     25          6           0       24.257745   -3.909165   -0.443734
     26          6           0       24.573153   -5.070954   -1.326664
     27          6           0       25.318605   -4.297714   -2.462595
     28          6           0       25.457960   -2.855604   -1.982146
     29          6           0       25.407063   -6.199648   -0.631044
     30          6           0       24.563235   -4.330719   -3.841316
     31          6           0       23.073228   -3.905665   -3.801495
     32          7           0       25.734652   -0.010061   -1.265240
     33          6           0       26.371300   -0.586025   -2.375493
     34          6           0       27.220720    0.409215   -2.914200
     35          6           0       27.094327    1.518505   -2.087316
     36          6           0       26.203369    1.204824   -1.114525
     37          6           0       28.033936    0.273803   -4.161997
     38          6           0       27.601315    2.789551   -1.858178
     39          8           0       28.463380    3.423609   -2.493520
     40          6           0       26.964940    3.402463   -0.574361
     41          6           0       26.250407    4.685451   -1.102519
     42          8           0       25.245685    4.702049   -1.835698
     43          8           0       26.937034    5.791653   -0.613803
     44          6           0       26.607049    7.139109   -1.177740
     45          1           0       22.952645    0.470435    4.103826
     46          1           0       22.960533   -4.985404    0.476145
     47          1           0       26.631211   -2.174521   -3.688519
     48          1           0       25.937869    3.702431    2.331775
     49          1           0       23.768925    2.682178    3.833208
     50          1           0       26.720794    2.141365    3.961689
     51          1           0       25.924057    0.650658    3.981186
     52          1           0       25.514435    1.963331    5.192678
     53          1           0       23.132870    4.187605    2.153652
     54          1           0       24.002058    4.285052    0.561977
     55          1           0       25.599638    5.713985    1.940234
     56          1           0       24.339057    5.776613    3.163777
     57          1           0       21.018781   -0.522616    4.670143
     58          1           0       21.271256   -2.282514    5.265280
     59          1           0       19.921267   -1.787608    4.300270
     60          1           0       19.941653   -5.758774    3.917672
     61          1           0       18.984917   -4.398586    3.333902
     62          1           0       20.221049   -4.170314    4.645207
     63          1           0       23.693490   -5.547266   -1.761850
     64          1           0       26.312220   -4.730059   -2.584853
     65          1           0       25.909574   -5.780589    0.241139
     66          1           0       26.183314   -6.676431   -1.229763
     67          1           0       24.839362   -7.055112   -0.263855
     68          1           0       24.719636   -5.333248   -4.239897
     69          1           0       25.168479   -3.680488   -4.472875
     70          1           0       22.863842   -3.048449   -4.441682
     71          1           0       22.840871   -3.682343   -2.759855
     72          1           0       22.401165   -4.698392   -4.128788
     73          1           0       29.061904    0.485215   -3.867709
     74          1           0       27.633312    0.973312   -4.895663
     75          1           0       28.063642   -0.725694   -4.596020
     76          1           0       27.771700    3.698505    0.095634
     77          1           0       26.819754    7.078931   -2.244849
     78          1           0       27.145284    8.000238   -0.781803
     79          1           0       25.545917    7.127204   -0.928671
     80         12           0      -25.179786   -0.522649   -0.295793
     81          6           0      -23.919810    2.787801   -0.555790
     82          6           0      -25.720991    0.213528    3.121393
     83          6           0      -26.022721   -3.639184    0.174319
     84          6           0      -24.276415   -1.069637   -3.609599
     85          7           0      -24.841581    1.329325    1.153124
     86          6           0      -24.408703    2.559960    0.723881
     87          6           0      -24.473888    3.626924    1.803542
     88          6           0      -24.942667    2.716392    3.018211
     89          6           0      -25.228251    1.337441    2.403710
     90          6           0      -23.941313    2.780166    4.167750
     91          6           0      -25.493154    4.724674    1.427289
     92          6           0      -25.178383    6.215689    1.830171
     93          1           0      -24.152457    6.463766    2.960988
     94          7           0      -25.866221   -1.566954    1.395956
     95          6           0      -25.935482   -1.100050    2.708858
     96          6           0      -26.449907   -2.189512    3.553698
     97          6           0      -26.636420   -3.301096    2.668659
     98          6           0      -26.201237   -2.815004    1.345273
     99          6           0      -26.606664   -2.077643    4.975458
    100          6           0      -27.148634   -4.700132    2.995904
    101          8           0      -27.163419   -5.593754    2.134526
    102          6           0      -27.802759   -4.981582    4.291367
    103          7           0      -25.055871   -2.157476   -1.516986
    104          6           0      -25.567094   -3.325696   -1.119736
    105          6           0      -25.400177   -4.417530   -2.226043
    106          6           0      -25.031395   -3.544992   -3.467658
    107          6           0      -24.749240   -2.197667   -2.880453
    108          6           0      -24.387549   -5.561314   -1.858889
    109          6           0      -26.333379   -3.521378   -4.356192
    110          6           0      -27.372276   -2.357007   -4.206849
    111          7           0      -24.385510    0.606735   -1.831086
    112          6           0      -24.059161    0.221433   -3.144001
    113          6           0      -23.419481    1.376512   -3.821478
    114          6           0      -23.308848    2.341666   -2.827367
    115          6           0      -23.905081    1.907562   -1.662353
    116          6           0      -22.795320    1.210303   -5.122717
    117          6           0      -22.692178    3.641063   -2.571769
    118          8           0      -22.019896    4.319978   -3.339761
    119          6           0      -23.040521    3.993844   -1.049920
    120          6           0      -21.808296    4.211807   -0.253778
    121          8           0      -21.223576    3.370014    0.421950
    122          8           0      -21.415355    5.557930   -0.377199
    123          6           0      -20.208529    6.053260    0.245329
    124          1           0      -26.144410    0.422659    4.106394
    125          1           0      -26.308749   -4.690138    0.257344
    126          1           0      -24.079667   -1.348981   -4.646482
    127          1           0      -23.505511    4.089336    1.996393
    128          1           0      -25.823128    3.206252    3.433155
    129          1           0      -24.361854    3.077453    5.127768
    130          1           0      -23.070373    3.416805    4.011827
    131          1           0      -23.608632    1.755957    4.341502
    132          1           0      -26.479747    4.490783    1.827147
    133          1           0      -25.529902    4.594119    0.345202
    134          1           0      -26.072659    6.697620    2.223871
    135          1           0      -25.043995    6.740401    0.884288
    136          1           0      -27.631064   -2.380754    5.192824
    137          1           0      -26.217253   -1.126573    5.337392
    138          1           0      -25.848386   -2.788079    5.306203
    139          1           0      -27.108828   -5.014367    5.131843
    140          1           0      -28.267248   -5.966780    4.254352
    141          1           0      -28.453962   -4.138641    4.520833
    142          1           0      -26.417091   -4.809488   -2.205809
    143          1           0      -24.229579   -3.992711   -4.055342
    144          1           0      -24.925370   -6.421733   -1.460513
    145          1           0      -23.645455   -5.119287   -1.194837
    146          1           0      -23.896446   -5.833633   -2.792957
    147          1           0      -26.775214   -4.517899   -4.371468
    148          1           0      -25.950095   -3.238779   -5.337119
    149          1           0      -28.330456   -2.875680   -4.218230
    150          1           0      -27.355969   -1.659990   -5.045696
    151          1           0      -27.328282   -1.789878   -3.277678
    152          1           0      -22.162515    0.324252   -5.091975
    153          1           0      -22.154136    2.080034   -5.269620
    154          1           0      -23.530580    1.291637   -5.922807
    155          1           0      -23.585914    4.934508   -1.132134
    156          1           0      -19.351883    6.074999   -0.427867
    157          1           0      -20.070490    5.627995    1.239524
    158          1           0      -20.523272    7.061450    0.516269
 ---------------------------------------------------------------------

 SCF Done:  E(RPBE1PBE) =  -4067.38131093     A.U. after   16 cycles

 Excitation energies and oscillator strengths:

 Excited State   1:      Singlet-A      1.8237 eV  679.85 nm  f=0.3604  <S**2>=0.000
     309 -> 316        0.15450
     311 -> 313        0.69684
     311 <- 313       -0.11766
 This state for optimization and/or second-order correction.
 Total Energy, E(TD-HF/TD-DFT) =  -4067.31429086
 Copying the excited state density for this state as the 1-particle RhoCI density.

 Excited State   2:      Singlet-A      1.8430 eV  672.73 nm  f=0.0000  <S**2>=0.000
     312 -> 313        0.70711

 Excited State   3:      Singlet-A      1.8853 eV  657.63 nm  f=0.3635  <S**2>=0.000
     310 -> 315        0.18510
     312 -> 314        0.68868
     312 <- 314       -0.10057

 Excited State   4:      Singlet-A      2.1429 eV  578.59 nm  f=0.0000  <S**2>=0.000
     311 -> 314        0.70711

 Excited State   5:      Singlet-A      2.2325 eV  555.35 nm  f=0.1210  <S**2>=0.000
     309 -> 313        0.65179
     311 -> 316       -0.24364

 The electronic state is 1-A.
 Alpha  occ. eigenvalues --  -46.91919 -46.91701 -19.25392 -19.24659 -19.20215
 Alpha  occ. eigenvalues --  -19.20087 -19.19661 -19.18979 -19.18820 -19.17850
 Alpha  occ. eigenvalues --  -14.41537 -14.41447 -14.40988 -14.40914 -14.39211
 Alpha  occ. eigenvalues --  -14.39015 -14.38724 -14.38146 -10.37057 -10.36461
 Alpha  occ. eigenvalues --  -10.32642 -10.32455 -10.32261 -10.30721 -10.29159
 Alpha  occ. eigenvalues --  -10.28693 -10.28651 -10.28556 -10.28409 -10.28358
 Alpha  occ. eigenvalues --  -10.28120 -10.28116 -10.28034 -10.27994 -10.27869
 Alpha  occ. eigenvalues --  -10.27851 -10.27778 -10.27144 -10.26943 -10.26934
 Alpha  occ. eigenvalues --  -10.26756 -10.26544 -10.26360 -10.26177 -10.26127
 Alpha  occ. eigenvalues --  -10.25998 -10.25923 -10.25809 -10.25758 -10.25705
 Alpha  occ. eigenvalues --  -10.25500 -10.25482 -10.25383 -10.25317 -10.25131
 Alpha  occ. eigenvalues --  -10.25116 -10.25027 -10.25019 -10.24987 -10.24984
 Alpha  occ. eigenvalues --  -10.24974 -10.24833 -10.24780 -10.24671 -10.24467
 Alpha  occ. eigenvalues --  -10.24442 -10.24262 -10.24261 -10.24177 -10.24133
 Alpha  occ. eigenvalues --  -10.24008 -10.23893 -10.23657 -10.23580 -10.23346
 Alpha  occ. eigenvalues --  -10.23286 -10.23259 -10.23223 -10.23142 -10.23086
 Alpha  occ. eigenvalues --  -10.22965 -10.22778 -10.22738 -10.22702 -10.22574
 Alpha  occ. eigenvalues --  -10.21378  -3.14043  -3.13875  -1.86892  -1.86695
 Alpha  occ. eigenvalues --   -1.86431  -1.86253  -1.86253  -1.86100  -1.09396
 Alpha  occ. eigenvalues --   -1.09132  -1.04512  -1.04218  -1.03775  -1.02605
 Alpha  occ. eigenvalues --   -1.02062  -1.01430  -0.99432  -0.99287  -0.98602
 Alpha  occ. eigenvalues --   -0.98585  -0.98152  -0.97773  -0.96841  -0.96192
 Alpha  occ. eigenvalues --   -0.86875  -0.86385  -0.83963  -0.83449  -0.83298
 Alpha  occ. eigenvalues --   -0.82924  -0.82881  -0.82740  -0.82101  -0.81599
 Alpha  occ. eigenvalues --   -0.81422  -0.81125  -0.80832  -0.80641  -0.78873
 Alpha  occ. eigenvalues --   -0.78343  -0.77784  -0.77624  -0.76689  -0.76450
 Alpha  occ. eigenvalues --   -0.76261  -0.75784  -0.75239  -0.75199  -0.74824
 Alpha  occ. eigenvalues --   -0.74708  -0.73096  -0.72540  -0.71474  -0.71354
 Alpha  occ. eigenvalues --   -0.71208  -0.71202  -0.70319  -0.70097  -0.69812
 Alpha  occ. eigenvalues --   -0.69140  -0.67664  -0.66639  -0.66459  -0.65771
 Alpha  occ. eigenvalues --   -0.64120  -0.63660  -0.63213  -0.63175  -0.62365
 Alpha  occ. eigenvalues --   -0.61966  -0.61048  -0.60926  -0.59840  -0.59353
 Alpha  occ. eigenvalues --   -0.59200  -0.59067  -0.59012  -0.59009  -0.58779
 Alpha  occ. eigenvalues --   -0.58546  -0.56144  -0.56128  -0.54772  -0.54443
 Alpha  occ. eigenvalues --   -0.54296  -0.53936  -0.53749  -0.53585  -0.53093
 Alpha  occ. eigenvalues --   -0.52585  -0.52463  -0.52156  -0.51761  -0.51339
 Alpha  occ. eigenvalues --   -0.50831  -0.50546  -0.50128  -0.50079  -0.49862
 Alpha  occ. eigenvalues --   -0.49797  -0.49445  -0.49290  -0.48817  -0.48435
 Alpha  occ. eigenvalues --   -0.48197  -0.48049  -0.47816  -0.47715  -0.47634
 Alpha  occ. eigenvalues --   -0.47537  -0.47416  -0.47362  -0.47004  -0.46904
 Alpha  occ. eigenvalues --   -0.46475  -0.46333  -0.46172  -0.46100  -0.46014
 Alpha  occ. eigenvalues --   -0.45981  -0.45337  -0.45157  -0.45044  -0.44927
 Alpha  occ. eigenvalues --   -0.44470  -0.44319  -0.44122  -0.44091  -0.44020
 Alpha  occ. eigenvalues --   -0.43818  -0.43670  -0.43578  -0.43463  -0.43354
 Alpha  occ. eigenvalues --   -0.43168  -0.43122  -0.42986  -0.42724  -0.42694
 Alpha  occ. eigenvalues --   -0.42642  -0.42322  -0.42236  -0.42069  -0.42047
 Alpha  occ. eigenvalues --   -0.41659  -0.41643  -0.41312  -0.41283  -0.41031
 Alpha  occ. eigenvalues --   -0.40914  -0.40758  -0.40687  -0.40523  -0.40252
 Alpha  occ. eigenvalues --   -0.40206  -0.39735  -0.39406  -0.39363  -0.39148
 Alpha  occ. eigenvalues --   -0.39070  -0.38977  -0.38929  -0.38813  -0.38764
 Alpha  occ. eigenvalues --   -0.38510  -0.38487  -0.38297  -0.38235  -0.38208
 Alpha  occ. eigenvalues --   -0.38163  -0.37956  -0.37832  -0.37759  -0.37573
 Alpha  occ. eigenvalues --   -0.37517  -0.37096  -0.36816  -0.36768  -0.36662
 Alpha  occ. eigenvalues --   -0.36527  -0.36367  -0.36060  -0.35956  -0.35920
 Alpha  occ. eigenvalues --   -0.35748  -0.35473  -0.35422  -0.35214  -0.35090
 Alpha  occ. eigenvalues --   -0.34864  -0.34820  -0.34227  -0.33987  -0.33458
 Alpha  occ. eigenvalues --   -0.33191  -0.33012  -0.32718  -0.32427  -0.32382
 Alpha  occ. eigenvalues --   -0.32153  -0.31901  -0.31714  -0.31612  -0.31045
 Alpha  occ. eigenvalues --   -0.30983  -0.30741  -0.29294  -0.29286  -0.29092
 Alpha  occ. eigenvalues --   -0.29078  -0.28698  -0.28697  -0.26978  -0.26614
 Alpha  occ. eigenvalues --   -0.25860  -0.25782  -0.25679  -0.25640  -0.25302
 Alpha  occ. eigenvalues --   -0.25120  -0.25014  -0.24784  -0.21150  -0.20779
 Alpha  occ. eigenvalues --   -0.18828  -0.18451
 Alpha virt. eigenvalues --   -0.11412  -0.10688  -0.05173  -0.05118  -0.03989
 Alpha virt. eigenvalues --   -0.03652  -0.02195  -0.02005  -0.00491   0.00249
 Alpha virt. eigenvalues --    0.00394   0.00530   0.00743   0.01074   0.01610

 Mulliken charges:
               1
     1  Mg  12.002573
     2  C    5.975388
     3  C    6.003385
     4  C    6.032582
     5  C    6.016566
     6  N    6.978643
     7  C    6.031946
     8  C    5.996985
     9  C    6.006777
    10  C    5.976764
    11  C    6.003206
    12  C    5.994147
    13  C    6.000543
    14  H    0.998667
    15  N    7.007115
    16  C    5.964692
    17  C    5.980305
    18  C    5.987121
    19  C    5.961943
    20  C    6.003139
    21  C    5.987717
    22  O    7.970758
    23  C    6.004919
    24  N    7.016581
    25  C    5.958188
    26  C    6.014723
    27  C    5.992508
    28  C    6.017825
    29  C    5.999537
    30  C    5.992296
    31  C    5.994613
    32  N    6.998083
    33  C    6.027277
    34  C    6.030323
    35  C    6.000219
    36  C    6.027624
    37  C    5.997042
    38  C    6.014824
    39  O    8.028631
    40  C    6.003878
    41  C    6.003170
    42  O    8.003552
    43  O    8.001577
    44  C    5.999481
    45  H    0.985877
    46  H    0.995853
    47  H    1.015985
    48  H    0.998509
    49  H    0.998606
    50  H    0.984164
    51  H    1.000529
    52  H    0.996649
    53  H    1.011834
    54  H    0.994360
    55  H    0.996273
    56  H    1.005408
    57  H    0.985675
    58  H    0.981522
    59  H    0.982645
    60  H    0.987051
    61  H    0.989361
    62  H    0.996031
    63  H    0.999182
    64  H    1.002919
    65  H    1.000496
    66  H    0.990801
    67  H    1.003449
    68  H    1.009752
    69  H    0.993574
    70  H    0.997390
    71  H    1.013296
    72  H    1.006756
    73  H    1.017487
    74  H    1.018807
    75  H    1.016159
    76  H    1.008078
    77  H    0.999072
    78  H    1.004284
    79  H    1.004332
    80  Mg  11.999986
    81  C    5.999944
    82  C    5.999996
    83  C    6.000024
    84  C    6.000045
    85  N    6.999972
    86  C    5.999991
    87  C    6.000026
    88  C    5.999997
    89  C    6.000117
    90  C    5.999988
    91  C    6.000001
    92  C    6.000000
    93  H    1.000029
    94  N    7.000085
    95  C    6.000025
    96  C    5.999968
    97  C    5.999988
    98  C    5.999987
    99  C    5.999975
   100  C    6.000074
   101  O    8.000061
   102  C    5.999992
   103  N    6.999987
   104  C    6.000021
   105  C    5.999996
   106  C    6.000021
   107  C    5.999949
   108  C    5.999989
   109  C    5.999991
   110  C    6.000026
   111  N    7.000027
   112  C    5.999939
   113  C    5.999934
   114  C    6.000023
   115  C    5.999964
   116  C    6.000012
   117  C    5.999970
   118  O    7.999955
   119  C    6.000032
   120  C    6.000002
   121  O    7.999996
   122  O    8.000004
   123  C    5.999996
   124  H    1.000020
   125  H    0.999983
   126  H    0.999959
   127  H    1.000011
   128  H    0.999983
   129  H    1.000000
   130  H    1.000035
   131  H    1.000014
   132  H    0.999968
   133  H    1.000001
   134  H    0.999969
   135  H    0.999986
   136  H    1.000011
   137  H    1.000046
   138  H    1.000058
   139  H    1.000029
   140  H    1.000012
   141  H    0.999983
   142  H    0.999974
   143  H    1.000004
   144  H    0.999998
   145  H    1.000033
   146  H    1.000016
   147  H    0.999978
   148  H    0.999993
   149  H    0.999965
   150  H    0.999988
   151  H    1.000000
   152  H    0.999987
   153  H    0.999985
   154  H    0.999939
   155  H    0.999968
   156  H    1.000009
   157  H    1.000017
   158  H    0.999974
 Sum of Mulliken charges = 624.00000

 Dipole moment (field-independent basis, Debye):
    X=              6.1765    Y=              3.5318    Z=             -7.3219  Tot=             10.2094
 Quadrupole moment (field-independent basis, Debye-Ang):
   XX=            302.0519   YY=             -4.0940   ZZ=             -2.4150
   XY=             80.9943   XZ=           -179.3295   YZ=              7.3296

 Normal termination of Gaussian 16 at Thu Oct 14 14:44:18 2021.
