 Gaussian 16, Revision A.03,
 Gaussian 16:  ES64L-G16RevA.03 25-Dec-2016

 --------------------------------------------------------
 #p PBE1PBE/Def2SVP td=(nstates=5) density=(transition=1)
 --------------------------------------------------------

 --------------------------------
 TDDFT excited states in gaussian
 --------------------------------
 Symbolic Z-matrix:
 Charge =  0 Multiplicity = 1

                         Standard orientation:
 ---------------------------------------------------------------------
 Center     Atomic      Atomic             Coordinates (Angstroms)
 Number     Number       Type             X           Y           Z
 ---------------------------------------------------------------------
      1         12           0       20.507103   -0.818123   -0.110530
      2          6           0       22.419652    1.989241   -0.411388
      3          6           0       17.933125    1.184219    1.260303
      4          6           0       18.685101   -3.577603    0.417500
      5          6           0       23.051178   -2.650199   -1.514080
      6          7           0       20.311384    1.257468    0.659662
      7          6           0       21.220464    2.260778    0.300496
      8          6           0       20.752103    3.666163    0.773241
      9          6           0       19.360965    3.278945    1.341566
     10          6           0       19.190496    1.783987    1.140640
     11          6           0       18.918943    3.690024    2.810460
     12          6           0       20.666368    4.804184   -0.336763
     13          6           0       20.153433    6.147624    0.247661
     14          1           0       21.242998    7.215601    0.353102
     15          7           0       18.508844   -1.140346    0.700836
     16          6           0       17.577868   -0.159744    0.968103
     17          6           0       16.394330   -0.860527    1.452400
     18          6           0       16.630905   -2.251567    1.207890
     19          6           0       17.970935   -2.393864    0.732146
     20          6           0       15.227070   -0.113597    1.972224
     21          6           0       15.604246   -3.374583    1.589192
     22          8           0       15.876610   -4.592231    1.580233
     23          6           0       14.225784   -3.001714    2.069087
     24          7           0       20.814320   -2.719977   -0.445436
     25          6           0       19.895188   -3.760118   -0.130660
     26          6           0       20.553560   -5.116442   -0.243886
     27          6           0       21.655130   -4.789522   -1.250293
     28          6           0       21.849487   -3.284964   -1.126809
     29          6           0       21.111136   -5.641745    1.121551
     30          6           0       21.244995   -5.098330   -2.707589
     31          6           0       21.443184   -6.496951   -3.227269
     32          7           0       22.419728   -0.513285   -0.817256
     33          6           0       23.282712   -1.289118   -1.492858
     34          6           0       24.454153   -0.528696   -1.814303
     35          6           0       24.174290    0.767566   -1.437203
     36          6           0       22.892265    0.741998   -0.866497
     37          6           0       25.625181   -1.119861   -2.518686
     38          6           0       24.699149    2.066004   -1.425829
     39          8           0       25.744286    2.520132   -1.849899
     40          6           0       23.551915    2.947576   -0.741559
     41          6           0       24.144199    3.629368    0.440637
     42          8           0       24.530788    3.114879    1.461730
     43          8           0       24.074992    4.958266    0.317689
     44          6           0       24.599041    5.768981    1.483611
     45          1           0       17.137121    1.883081    1.525133
     46          1           0       18.100070   -4.485503    0.577454
     47          1           0       23.848090   -3.137051   -2.079458
     48          1           0       21.406003    3.993148    1.581757
     49          1           0       18.580607    3.704745    0.710114
     50          1           0       17.870944    3.960770    2.941622
     51          1           0       19.639482    4.392640    3.229471
     52          1           0       18.995139    2.761867    3.376711
     53          1           0       20.033427    4.358751   -1.103293
     54          1           0       21.660437    4.938860   -0.762934
     55          1           0       19.617363    5.967066    1.179397
     56          1           0       19.431431    6.538740   -0.468565
     57          1           0       15.158806   -0.303825    3.043494
     58          1           0       14.387129   -0.399590    1.339110
     59          1           0       15.343366    0.956206    1.798137
     60          1           0       13.632756   -3.902284    2.228465
     61          1           0       13.772177   -2.516574    1.203716
     62          1           0       14.163577   -2.345919    2.937118
     63          1           0       19.853439   -5.864513   -0.616832
     64          1           0       22.599840   -5.288745   -1.035863
     65          1           0       22.017614   -5.109052    1.406375
     66          1           0       21.299774   -6.714171    1.065670
     67          1           0       20.313489   -5.467848    1.842942
     68          1           0       21.698802   -4.419734   -3.428738
     69          1           0       20.196095   -4.838741   -2.851532
     70          1           0       20.459210   -6.860653   -3.521891
     71          1           0       21.692092   -7.058706   -2.326816
     72          1           0       22.215604   -6.592384   -3.990567
     73          1           0       25.568989   -0.912615   -3.586619
     74          1           0       25.883575   -2.159274   -2.313995
     75          1           0       26.484388   -0.553089   -2.159613
     76          1           0       23.212726    3.687809   -1.466566
     77          1           0       24.122962    5.376374    2.382385
     78          1           0       24.332527    6.824738    1.427637
     79          1           0       25.680673    5.637131    1.519295
     80         12           0      -21.061040   -0.575555   -0.037905
     81          6           0      -20.065935    2.866756   -0.624623
     82          6           0      -20.482740    0.061703    3.221598
     83          6           0      -21.882058   -3.623817    0.448731
     84          6           0      -21.262609   -1.033035   -3.543180
     85          7           0      -20.348560    1.375198    1.182947
     86          6           0      -20.112255    2.619913    0.733839
     87          6           0      -19.910890    3.584432    1.918208
     88          6           0      -19.609198    2.479065    3.034308
     89          6           0      -20.225201    1.260616    2.487057
     90          6           0      -18.211222    2.414094    3.626263
     91          6           0      -21.190860    4.418497    2.099665
     92          6           0      -20.926433    5.791548    2.784826
     93          1           0      -19.462126    6.398237    2.991337
     94          7           0      -21.224027   -1.676081    1.644046
     95          6           0      -20.860291   -1.286004    2.918674
     96          6           0      -21.032437   -2.432881    3.805166
     97          6           0      -21.518574   -3.505013    3.016868
     98          6           0      -21.547945   -2.940162    1.637964
     99          6           0      -20.734659   -2.420570    5.238388
    100          6           0      -21.980320   -4.992063    3.454514
    101          8           0      -22.535504   -5.728933    2.686273
    102          6           0      -22.009507   -5.422867    4.931945
    103          7           0      -21.243231   -2.170288   -1.398797
    104          6           0      -21.747155   -3.305724   -0.921998
    105          6           0      -22.132026   -4.306718   -1.978008
    106          6           0      -22.305069   -3.341397   -3.176045
    107          6           0      -21.399968   -2.153301   -2.700250
    108          6           0      -21.018621   -5.417360   -2.269431
    109          6           0      -23.795151   -2.934305   -3.536881
    110          6           0      -24.962124   -3.921899   -3.244726
    111          7           0      -20.641827    0.574247   -1.745274
    112          6           0      -20.813517    0.323412   -3.066773
    113          6           0      -20.627637    1.466172   -3.840502
    114          6           0      -20.292738    2.429415   -2.932166
    115          6           0      -20.322830    1.891380   -1.660761
    116          6           0      -20.836168    1.574259   -5.348545
    117          6           0      -19.959097    3.860047   -2.863544
    118          8           0      -19.669026    4.690421   -3.711706
    119          6           0      -19.883995    4.181284   -1.307176
    120          6           0      -18.618634    4.850580   -1.061244
    121          8           0      -17.503874    4.325315   -0.978061
    122          8           0      -18.841735    6.173862   -1.202581
    123          6           0      -17.613266    6.931650   -1.359760
    124          1           0      -20.121167    0.219710    4.239884
    125          1           0      -22.118878   -4.670197    0.649598
    126          1           0      -21.431426   -1.198159   -4.609165
    127          1           0      -19.004729    4.179107    1.802053
    128          1           0      -20.214586    2.760939    3.894709
    129          1           0      -18.195943    2.707943    4.675360
    130          1           0      -17.535871    3.062940    3.068907
    131          1           0      -17.736592    1.436649    3.539770
    132          1           0      -21.826947    3.883626    2.805288
    133          1           0      -21.775871    4.539052    1.188078
    134          1           0      -21.465996    5.882440    3.728087
    135          1           0      -21.571253    6.452856    2.206220
    136          1           0      -20.777670   -1.413145    5.651784
    137          1           0      -19.731857   -2.839821    5.322132
    138          1           0      -21.424597   -3.011496    5.841192
    139          1           0      -22.737548   -4.880044    5.534725
    140          1           0      -20.966838   -5.379984    5.247513
    141          1           0      -22.223481   -6.489730    5.001269
    142          1           0      -23.029988   -4.761815   -1.560778
    143          1           0      -21.879242   -3.728230   -4.101539
    144          1           0      -21.619003   -6.326675   -2.285768
    145          1           0      -20.254953   -5.504066   -1.495721
    146          1           0      -20.510886   -5.338876   -3.229999
    147          1           0      -23.828021   -2.631792   -4.582582
    148          1           0      -23.955470   -2.123669   -2.825834
    149          1           0      -25.320815   -3.794289   -2.223663
    150          1           0      -24.534765   -4.893424   -3.495372
    151          1           0      -25.792733   -3.794949   -3.938178
    152          1           0      -21.604883    0.833637   -5.570398
    153          1           0      -19.960428    1.279545   -5.926015
    154          1           0      -21.161178    2.589451   -5.575548
    155          1           0      -20.724723    4.841383   -1.090078
    156          1           0      -17.778470    7.999788   -1.497875
    157          1           0      -16.874808    6.527114   -2.052150
    158          1           0      -17.044998    6.929266   -0.428978
 ---------------------------------------------------------------------

 SCF Done:  E(RPBE1PBE) =  -4067.37444346     A.U. after   16 cycles

 Excitation energies and oscillator strengths:

 Excited State   1:      Singlet-A      1.8106 eV  684.78 nm  f=0.3737  <S**2>=0.000
     309 -> 315       -0.15520
     312 -> 313        0.69951
     312 <- 313       -0.12511
 This state for optimization and/or second-order correction.
 Total Energy, E(TD-HF/TD-DFT) =  -4067.30790663
 Copying the excited state density for this state as the 1-particle RhoCI density.

 Excited State   2:      Singlet-A      1.9249 eV  644.11 nm  f=0.0000  <S**2>=0.000
     311 -> 313        0.70711

 Excited State   3:      Singlet-A      1.9475 eV  636.65 nm  f=0.3558  <S**2>=0.000
     310 -> 316       -0.18531
     311 -> 314        0.68730

 Excited State   4:      Singlet-A      2.0877 eV  593.88 nm  f=0.0000  <S**2>=0.000
     312 -> 314        0.70711

 Excited State   5:      Singlet-A      2.2406 eV  553.35 nm  f=0.1490  <S**2>=0.000
     310 -> 314        0.66537
     311 -> 316        0.23012

 The electronic state is 1-A.
 Alpha  occ. eigenvalues --  -46.92775 -46.90895 -19.25591 -19.25488 -19.20521
 Alpha  occ. eigenvalues --  -19.19471 -19.19335 -19.19056 -19.18879 -19.18877
 Alpha  occ. eigenvalues --  -14.42138 -14.41362 -14.40797 -14.40758 -14.39456
 Alpha  occ. eigenvalues --  -14.38590 -14.38493 -14.38453 -10.35446 -10.35247
 Alpha  occ. eigenvalues --  -10.33961 -10.32472 -10.32205 -10.31947 -10.29755
 Alpha  occ. eigenvalues --  -10.29471 -10.29022 -10.28607 -10.28364 -10.28255
 Alpha  occ. eigenvalues --  -10.28137 -10.28056 -10.27836 -10.27811 -10.27559
 Alpha  occ. eigenvalues --  -10.27519 -10.27327 -10.27146 -10.26964 -10.26760
 Alpha  occ. eigenvalues --  -10.26685 -10.26558 -10.26536 -10.26519 -10.26383
 Alpha  occ. eigenvalues --  -10.26184 -10.25944 -10.25823 -10.25759 -10.25603
 Alpha  occ. eigenvalues --  -10.25600 -10.25596 -10.25589 -10.25307 -10.25253
 Alpha  occ. eigenvalues --  -10.25214 -10.25210 -10.25197 -10.25192 -10.25143
 Alpha  occ. eigenvalues --  -10.25067 -10.24951 -10.24936 -10.24842 -10.24539
 Alpha  occ. eigenvalues --  -10.24459 -10.24448 -10.24266 -10.24257 -10.24051
 Alpha  occ. eigenvalues --  -10.24007 -10.23934 -10.23604 -10.23511 -10.23481
 Alpha  occ. eigenvalues --  -10.23479 -10.23271 -10.23248 -10.23191 -10.23187
 Alpha  occ. eigenvalues --  -10.23132 -10.23038 -10.22926 -10.22550 -10.22513
 Alpha  occ. eigenvalues --  -10.21759  -3.14858  -3.13250  -1.87700  -1.87250
 Alpha  occ. eigenvalues --   -1.87066  -1.86095  -1.85643  -1.85471  -1.11613
 Alpha  occ. eigenvalues --   -1.11321  -1.07178  -1.05064  -1.04425  -1.03089
 Alpha  occ. eigenvalues --   -1.01889  -1.01486  -1.00462  -1.00047  -0.99783
 Alpha  occ. eigenvalues --   -0.99180  -0.98516  -0.98395  -0.97728  -0.96716
 Alpha  occ. eigenvalues --   -0.87606  -0.86821  -0.83382  -0.83240  -0.83118
 Alpha  occ. eigenvalues --   -0.82983  -0.82926  -0.82429  -0.82187  -0.81745
 Alpha  occ. eigenvalues --   -0.81486  -0.81267  -0.80889  -0.80194  -0.78633
 Alpha  occ. eigenvalues --   -0.78610  -0.78261  -0.77488  -0.76798  -0.76644
 Alpha  occ. eigenvalues --   -0.75917  -0.75814  -0.75497  -0.75100  -0.74903
 Alpha  occ. eigenvalues --   -0.74478  -0.72735  -0.72706  -0.71855  -0.71512
 Alpha  occ. eigenvalues --   -0.71169  -0.71000  -0.70465  -0.70130  -0.69609
 Alpha  occ. eigenvalues --   -0.69583  -0.67633  -0.67330  -0.66254  -0.66081
 Alpha  occ. eigenvalues --   -0.63988  -0.63864  -0.63312  -0.63179  -0.62662
 Alpha  occ. eigenvalues --   -0.62213  -0.61090  -0.60554  -0.60232  -0.59940
 Alpha  occ. eigenvalues --   -0.59555  -0.59395  -0.59186  -0.59152  -0.58691
 Alpha  occ. eigenvalues --   -0.58274  -0.56619  -0.56463  -0.55202  -0.54804
 Alpha  occ. eigenvalues --   -0.54575  -0.54021  -0.53858  -0.53705  -0.53492
 Alpha  occ. eigenvalues --   -0.52984  -0.52890  -0.52532  -0.52402  -0.52150
 Alpha  occ. eigenvalues --   -0.51140  -0.51020  -0.50451  -0.50037  -0.49830
 Alpha  occ. eigenvalues --   -0.49655  -0.49227  -0.49158  -0.48816  -0.48571
 Alpha  occ. eigenvalues --   -0.48238  -0.48052  -0.48015  -0.47978  -0.47579
 Alpha  occ. eigenvalues --   -0.47391  -0.47272  -0.47256  -0.46844  -0.46799
 Alpha  occ. eigenvalues --   -0.46302  -0.46277  -0.46095  -0.45950  -0.45892
 Alpha  occ. eigenvalues --   -0.45763  -0.45268  -0.45015  -0.45003  -0.44882
 Alpha  occ. eigenvalues --   -0.44767  -0.44579  -0.44441  -0.44297  -0.44266
 Alpha  occ. eigenvalues --   -0.43816  -0.43579  -0.43571  -0.43472  -0.43400
 Alpha  occ. eigenvalues --   -0.43358  -0.43323  -0.42961  -0.42896  -0.42727
 Alpha  occ. eigenvalues --   -0.42670  -0.42363  -0.42245  -0.42139  -0.42105
 Alpha  occ. eigenvalues --   -0.41834  -0.41748  -0.41598  -0.41474  -0.41322
 Alpha  occ. eigenvalues --   -0.41116  -0.40841  -0.40799  -0.40587  -0.40553
 Alpha  occ. eigenvalues --   -0.40294  -0.40174  -0.39940  -0.39855  -0.39453
 Alpha  occ. eigenvalues --   -0.39423  -0.39138  -0.38989  -0.38982  -0.38846
 Alpha  occ. eigenvalues --   -0.38691  -0.38564  -0.38554  -0.38432  -0.38340
 Alpha  occ. eigenvalues --   -0.38207  -0.38089  -0.38026  -0.37846  -0.37699
 Alpha  occ. eigenvalues --   -0.37579  -0.37418  -0.37173  -0.37082  -0.36873
 Alpha  occ. eigenvalues --   -0.36704  -0.36536  -0.36350  -0.36313  -0.36187
 Alpha  occ. eigenvalues --   -0.35980  -0.35778  -0.35579  -0.35366  -0.35321
 Alpha  occ. eigenvalues --   -0.34915  -0.34732  -0.34654  -0.34237  -0.33630
 Alpha  occ. eigenvalues --   -0.33356  -0.33193  -0.33011  -0.32971  -0.32466
 Alpha  occ. eigenvalues --   -0.32450  -0.31973  -0.31691  -0.31671  -0.31492
 Alpha  occ. eigenvalues --   -0.30880  -0.30717  -0.29487  -0.29438  -0.29105
 Alpha  occ. eigenvalues --   -0.28688  -0.28465  -0.28005  -0.27057  -0.26973
 Alpha  occ. eigenvalues --   -0.26590  -0.26194  -0.26176  -0.25981  -0.25547
 Alpha  occ. eigenvalues --   -0.25405  -0.25309  -0.24804  -0.21458  -0.20362
 Alpha  occ. eigenvalues --   -0.18900  -0.18778
 Alpha virt. eigenvalues --   -0.11508  -0.10786  -0.05102  -0.04659  -0.03829
 Alpha virt. eigenvalues --   -0.03637  -0.02060  -0.01845  -0.00460   0.00101
 Alpha virt. eigenvalues --    0.00199   0.01001   0.01082   0.01375   0.01730

 Mulliken charges:
               1
     1  Mg  11.998546
     2  C    5.975181
     3  C    5.995409
     4  C    6.029667
     5  C    6.013460
     6  N    6.988152
     7  C    6.038910
     8  C    5.985309
     9  C    6.006722
    10  C    5.975246
    11  C    6.004207
    12  C    5.997180
    13  C    6.002409
    14  H    0.995921
    15  N    7.005999
    16  C    5.963753
    17  C    5.976390
    18  C    5.992467
    19  C    5.955072
    20  C    6.004760
    21  C    5.987512
    22  O    7.974923
    23  C    6.005567
    24  N    7.017934
    25  C    5.961465
    26  C    6.007940
    27  C    5.994675
    28  C    6.020923
    29  C    6.001073
    30  C    5.992637
    31  C    5.999391
    32  N    6.996252
    33  C    6.022533
    34  C    6.035068
    35  C    5.998679
    36  C    6.031621
    37  C    5.995953
    38  C    6.015302
    39  O    8.026366
    40  C    6.002828
    41  C    6.001787
    42  O    8.003876
    43  O    8.001689
    44  C    5.999120
    45  H    0.983693
    46  H    0.995711
    47  H    1.013965
    48  H    1.001861
    49  H    0.998874
    50  H    0.999766
    51  H    0.985453
    52  H    1.001594
    53  H    1.005208
    54  H    0.992612
    55  H    1.006938
    56  H    1.002277
    57  H    0.981696
    58  H    0.982794
    59  H    0.984814
    60  H    0.986360
    61  H    0.994326
    62  H    0.994511
    63  H    1.001572
    64  H    1.001200
    65  H    0.987914
    66  H    0.994484
    67  H    1.007454
    68  H    0.995334
    69  H    1.015159
    70  H    1.007188
    71  H    1.004574
    72  H    0.999459
    73  H    1.022011
    74  H    1.017620
    75  H    1.015892
    76  H    1.007621
    77  H    1.005020
    78  H    1.004967
    79  H    1.000202
    80  Mg  12.000001
    81  C    6.000114
    82  C    6.000061
    83  C    5.999896
    84  C    5.999907
    85  N    7.000067
    86  C    5.999935
    87  C    6.000015
    88  C    5.999991
    89  C    5.999977
    90  C    5.999974
    91  C    6.000003
    92  C    6.000003
    93  H    1.000084
    94  N    6.999992
    95  C    5.999989
    96  C    6.000044
    97  C    5.999961
    98  C    6.000058
    99  C    6.000000
   100  C    6.000037
   101  O    7.999983
   102  C    5.999991
   103  N    6.999958
   104  C    6.000083
   105  C    5.999976
   106  C    6.000008
   107  C    6.000058
   108  C    6.000012
   109  C    6.000014
   110  C    6.000005
   111  N    7.000014
   112  C    6.000041
   113  C    5.999952
   114  C    6.000037
   115  C    5.999973
   116  C    6.000000
   117  C    5.999955
   118  O    7.999973
   119  C    5.999983
   120  C    5.999996
   121  O    8.000072
   122  O    7.999971
   123  C    5.999971
   124  H    1.000057
   125  H    0.999988
   126  H    0.999957
   127  H    1.000046
   128  H    0.999978
   129  H    1.000026
   130  H    1.000077
   131  H    1.000075
   132  H    0.999958
   133  H    0.999965
   134  H    0.999961
   135  H    0.999948
   136  H    1.000003
   137  H    1.000094
   138  H    0.999985
   139  H    0.999961
   140  H    1.000069
   141  H    0.999992
   142  H    0.999953
   143  H    0.999989
   144  H    0.999956
   145  H    1.000056
   146  H    1.000023
   147  H    0.999967
   148  H    0.999990
   149  H    0.999978
   150  H    0.999994
   151  H    0.999925
   152  H    0.999942
   153  H    1.000006
   154  H    0.999943
   155  H    0.999947
   156  H    0.999954
   157  H    1.000050
   158  H    1.000051
 Sum of Mulliken charges = 624.00000

 Dipole moment (field-independent basis, Debye):
    X=              9.5561    Y=              0.8919    Z=             -4.0904  Tot=             10.4329
 Quadrupole moment (field-independent basis, Debye-Ang):
   XX=            388.9135   YY=              0.7716   ZZ=              1.6876
   XY=             12.0415   XZ=            -85.2038   YZ=              4.3656

 Normal termination of Gaussian 16 at Fri Oct 15 05:20:36 2021.
