 Gaussian 16, Revision A.03,
 Gaussian 16:  ES64L-G16RevA.03 25-Dec-2016

 --------------------------------------------------------
 #p PBE1PBE/Def2SVP td=(nstates=5) density=(transition=1)
 --------------------------------------------------------

 --------------------------------
 TDDFT excited states in gaussian
 --------------------------------
 Symbolic Z-matrix:
 Charge =  0 Multiplicity = 1

                         Standard orientation:
 ---------------------------------------------------------------------
 Center     Atomic      Atomic             Coordinates (Angstroms)
 Number     Number       Type             X           Y           Z
 ---------------------------------------------------------------------
      1         12           0       12.378935   -0.001314    0.256241
      2          6           0        9.044216   -0.368107   -0.282844
      3          6           0       12.883571    1.736097   -2.681414
      4          6           0       15.737721    0.067079    0.917485
      5          6           0       12.057971   -2.181232    3.126053
      6          7           0       11.138453    0.416572   -1.377719
      7          6           0        9.706331    0.403313   -1.284263
      8          6           0        9.099452    1.210740   -2.361065
      9          6           0       10.363064    1.491579   -3.291990
     10          6           0       11.574268    1.205722   -2.432420
     11          6           0       10.381920    0.587813   -4.624297
     12          6           0        8.249479    2.422527   -1.869441
     13          6           0        6.933159    2.598627   -2.555561
     14          1           0        6.919776    2.331195   -4.112219
     15          7           0       14.069686    0.857471   -0.711446
     16          6           0       14.008178    1.503198   -1.910453
     17          6           0       15.323250    1.944887   -2.226259
     18          6           0       16.208773    1.556674   -1.146278
     19          6           0       15.336786    0.830082   -0.163646
     20          6           0       15.661891    2.623577   -3.571516
     21          6           0       17.664333    1.786054   -0.883452
     22          8           0       18.363780    1.322664    0.024350
     23          6           0       18.372379    2.788728   -1.871248
     24          7           0       13.772838   -1.029940    1.776544
     25          6           0       15.047190   -0.741358    1.867414
     26          6           0       15.667930   -1.247106    3.168004
     27          6           0       14.473518   -1.963546    3.860457
     28          6           0       13.348530   -1.732899    2.853375
     29          6           0       16.931491   -2.224123    2.945007
     30          6           0       14.195445   -1.258059    5.260523
     31          6           0       13.669746    0.196983    5.331296
     32          7           0       10.898126   -1.201298    1.149799
     33          6           0       10.920533   -1.956964    2.306813
     34          6           0        9.522156   -2.351550    2.572583
     35          6           0        8.712827   -1.778984    1.637866
     36          6           0        9.628544   -1.074535    0.774810
     37          6           0        9.117810   -3.349736    3.602105
     38          6           0        7.345492   -1.601988    1.149427
     39          8           0        6.283530   -2.042350    1.556554
     40          6           0        7.540571   -0.676468   -0.130695
     41          6           0        7.086894   -1.453429   -1.302091
     42          8           0        7.481722   -2.570398   -1.679533
     43          8           0        6.115461   -0.658229   -1.875525
     44          6           0        5.632009   -1.134246   -3.178187
     45          1           0       13.076320    2.333841   -3.574559
     46          1           0       16.797639    0.228767    1.127714
     47          1           0       11.928887   -2.775902    4.032093
     48          1           0        8.406844    0.526078   -2.852227
     49          1           0       10.353501    2.548258   -3.557538
     50          1           0        9.429108    0.103020   -4.836962
     51          1           0       11.040389   -0.252969   -4.406564
     52          1           0       10.788469    1.260586   -5.378268
     53          1           0        8.810513    3.346102   -2.012379
     54          1           0        8.086952    2.186969   -0.817777
     55          1           0        6.560488    3.621035   -2.507064
     56          1           0        6.038107    2.076827   -2.216595
     57          1           0       15.362754    3.667446   -3.665435
     58          1           0       15.183559    1.959572   -4.291320
     59          1           0       16.733964    2.726176   -3.738176
     60          1           0       18.505665    2.298783   -2.835795
     61          1           0       19.237939    3.208765   -1.359252
     62          1           0       17.814934    3.712062   -2.030088
     63          1           0       15.964553   -0.385905    3.766236
     64          1           0       14.651223   -3.021464    4.053888
     65          1           0       17.811232   -1.637089    3.211155
     66          1           0       17.003710   -2.511122    1.895452
     67          1           0       17.022507   -3.133442    3.537736
     68          1           0       15.025574   -1.290149    5.965995
     69          1           0       13.374103   -1.868588    5.637104
     70          1           0       12.683547    0.068240    5.777535
     71          1           0       13.647353    0.684242    4.357331
     72          1           0       14.270349    0.853807    5.960505
     73          1           0        8.135267   -2.990235    3.906277
     74          1           0        9.813757   -3.401607    4.439610
     75          1           0        8.860558   -4.268386    3.076465
     76          1           0        6.804510    0.093606    0.098657
     77          1           0        4.813025   -0.443769   -3.381776
     78          1           0        5.207466   -2.121258   -2.994669
     79          1           0        6.392332   -1.260688   -3.949191
     80         12           0      -12.087378   -0.423265   -0.589359
     81          6           0      -11.673768    2.945503    0.321975
     82          6           0       -8.998811   -0.318812   -2.096673
     83          6           0      -12.225571   -3.725818   -0.729331
     84          6           0      -15.139767   -0.466136    1.226936
     85          7           0      -10.439520    1.047422   -0.626062
     86          6           0      -10.478786    2.396451   -0.188244
     87          6           0       -9.390941    3.213209   -0.753509
     88          6           0       -8.587803    2.149679   -1.619924
     89          6           0       -9.402768    0.873794   -1.478396
     90          6           0       -8.304109    2.647201   -3.057981
     91          6           0       -8.439161    3.775302    0.257971
     92          6           0       -8.101798    2.881968    1.461009
     93          1           0       -6.661448    2.880936    2.106440
     94          7           0      -10.809190   -1.874803   -1.348760
     95          6           0       -9.675859   -1.597218   -2.021195
     96          6           0       -9.158813   -2.826387   -2.568706
     97          6           0      -10.108255   -3.830317   -2.256084
     98          6           0      -11.138574   -3.175339   -1.434198
     99          6           0       -7.850045   -2.988514   -3.294039
    100          6           0      -10.036126   -5.292787   -2.694245
    101          8           0       -9.106340   -5.702307   -3.361521
    102          6           0      -10.961151   -6.407724   -2.305176
    103          7           0      -13.333745   -1.907296    0.353651
    104          6           0      -13.213935   -3.245306    0.087697
    105          6           0      -14.477980   -4.037907    0.557233
    106          6           0      -15.212479   -2.984304    1.440446
    107          6           0      -14.545333   -1.708644    0.974815
    108          6           0      -15.403595   -4.545874   -0.574545
    109          6           0      -14.907623   -3.047688    3.011259
    110          6           0      -16.076557   -2.970216    3.925172
    111          7           0      -13.236608    0.891182    0.431493
    112          6           0      -14.479120    0.763669    0.916386
    113          6           0      -15.100676    2.127066    1.115618
    114          6           0      -14.001718    2.997859    0.828467
    115          6           0      -12.857284    2.194300    0.561566
    116          6           0      -16.503458    2.520319    1.555869
    117          6           0      -13.601301    4.373655    0.896009
    118          8           0      -14.226525    5.368287    1.228194
    119          6           0      -12.061499    4.387232    0.533361
    120          6           0      -11.318907    4.818856    1.780909
    121          8           0      -11.197225    4.218335    2.797057
    122          8           0      -10.689092    6.014109    1.506271
    123          6           0       -9.704122    6.407492    2.518896
    124          1           0       -8.119398   -0.226288   -2.737101
    125          1           0      -12.378232   -4.789845   -0.917542
    126          1           0      -16.145566   -0.534918    1.646538
    127          1           0       -9.848274    4.030144   -1.311677
    128          1           0       -7.647756    1.798035   -1.194890
    129          1           0       -7.241691    2.416625   -3.138715
    130          1           0       -8.531544    3.713126   -3.075499
    131          1           0       -8.833024    2.074398   -3.819982
    132          1           0       -8.666384    4.798544    0.558225
    133          1           0       -7.440964    3.989256   -0.124667
    134          1           0       -8.362394    1.873175    1.139017
    135          1           0       -8.862691    3.179814    2.182632
    136          1           0       -7.302617   -3.856378   -2.924802
    137          1           0       -7.276511   -2.063698   -3.232998
    138          1           0       -8.143649   -3.163518   -4.329338
    139          1           0      -10.947402   -6.681866   -1.250793
    140          1           0      -10.481192   -7.254955   -2.795242
    141          1           0      -11.934929   -6.347863   -2.792429
    142          1           0      -14.133721   -4.906052    1.119147
    143          1           0      -16.287368   -2.943147    1.262433
    144          1           0      -16.343385   -3.996173   -0.525559
    145          1           0      -15.426694   -5.634520   -0.620912
    146          1           0      -14.957648   -4.276470   -1.531296
    147          1           0      -14.176489   -2.292488    3.298812
    148          1           0      -14.422177   -4.015203    3.140297
    149          1           0      -16.139587   -3.816083    4.609429
    150          1           0      -17.029570   -2.867385    3.405725
    151          1           0      -16.017522   -2.104436    4.584195
    152          1           0      -16.384946    3.117400    2.460070
    153          1           0      -17.106912    1.612436    1.590662
    154          1           0      -16.859619    3.217628    0.797683
    155          1           0      -11.841382    5.037086   -0.313302
    156          1           0       -9.241503    5.555704    3.017245
    157          1           0      -10.291598    6.990264    3.228437
    158          1           0       -9.050924    7.129295    2.029305
 ---------------------------------------------------------------------

 SCF Done:  E(RPBE1PBE) =  -4067.36317064     A.U. after   16 cycles

 Excitation energies and oscillator strengths:

 Excited State   1:      Singlet-A      1.8290 eV  677.89 nm  f=0.4220  <S**2>=0.000
     310 -> 316       -0.16244
     311 -> 314       -0.15018
     312 -> 313        0.67889
     312 <- 313       -0.11199
 This state for optimization and/or second-order correction.
 Total Energy, E(TD-HF/TD-DFT) =  -4067.29595765
 Copying the excited state density for this state as the 1-particle RhoCI density.

 Excited State   2:      Singlet-A      1.8387 eV  674.31 nm  f=0.3201  <S**2>=0.000
     309 -> 315       -0.17558
     311 -> 314        0.67533
     312 -> 313        0.15064
     311 <- 314       -0.10125

 Excited State   3:      Singlet-A      1.8848 eV  657.81 nm  f=0.0000  <S**2>=0.000
     311 -> 313        0.70710

 Excited State   4:      Singlet-A      1.9187 eV  646.18 nm  f=0.0000  <S**2>=0.000
     312 -> 314        0.70709

 Excited State   5:      Singlet-A      2.2558 eV  549.63 nm  f=0.0516  <S**2>=0.000
     309 -> 314        0.62863
     311 -> 315        0.31576

 The electronic state is 1-A.
 Alpha  occ. eigenvalues --  -46.92651 -46.91926 -19.26366 -19.25235 -19.20563
 Alpha  occ. eigenvalues --  -19.20561 -19.19945 -19.19559 -19.19330 -19.18375
 Alpha  occ. eigenvalues --  -14.41982 -14.41848 -14.41586 -14.41373 -14.39233
 Alpha  occ. eigenvalues --  -14.39214 -14.39093 -14.39081 -10.36610 -10.36211
 Alpha  occ. eigenvalues --  -10.32718 -10.32676 -10.32107 -10.31677 -10.29649
 Alpha  occ. eigenvalues --  -10.29599 -10.29096 -10.28962 -10.28644 -10.28578
 Alpha  occ. eigenvalues --  -10.28518 -10.28456 -10.28399 -10.28316 -10.28119
 Alpha  occ. eigenvalues --  -10.28028 -10.27930 -10.27616 -10.27549 -10.27348
 Alpha  occ. eigenvalues --  -10.27038 -10.26741 -10.26659 -10.26617 -10.26454
 Alpha  occ. eigenvalues --  -10.26317 -10.26290 -10.26170 -10.26113 -10.26088
 Alpha  occ. eigenvalues --  -10.25905 -10.25895 -10.25888 -10.25765 -10.25754
 Alpha  occ. eigenvalues --  -10.25613 -10.25582 -10.25431 -10.25400 -10.25386
 Alpha  occ. eigenvalues --  -10.25311 -10.25202 -10.25094 -10.25026 -10.24976
 Alpha  occ. eigenvalues --  -10.24743 -10.24683 -10.24403 -10.24229 -10.24094
 Alpha  occ. eigenvalues --  -10.24083 -10.24051 -10.24013 -10.24005 -10.23951
 Alpha  occ. eigenvalues --  -10.23734 -10.23566 -10.23344 -10.23125 -10.23017
 Alpha  occ. eigenvalues --  -10.22951 -10.22866 -10.22863 -10.22758 -10.22728
 Alpha  occ. eigenvalues --  -10.22668  -3.14640  -3.14148  -1.87483  -1.87003
 Alpha  occ. eigenvalues --   -1.86949  -1.86862  -1.86527  -1.86389  -1.11967
 Alpha  occ. eigenvalues --   -1.10782  -1.05098  -1.05068  -1.04673  -1.04166
 Alpha  occ. eigenvalues --   -1.03754  -1.02335  -0.99778  -0.99174  -0.98644
 Alpha  occ. eigenvalues --   -0.98604  -0.97875  -0.97449  -0.97224  -0.96331
 Alpha  occ. eigenvalues --   -0.87504  -0.86835  -0.84112  -0.83699  -0.83415
 Alpha  occ. eigenvalues --   -0.83115  -0.82660  -0.82311  -0.81808  -0.81723
 Alpha  occ. eigenvalues --   -0.81265  -0.80596  -0.80412  -0.80070  -0.78971
 Alpha  occ. eigenvalues --   -0.78961  -0.78424  -0.77692  -0.76963  -0.76698
 Alpha  occ. eigenvalues --   -0.75893  -0.75853  -0.75496  -0.75117  -0.74765
 Alpha  occ. eigenvalues --   -0.74145  -0.72354  -0.72254  -0.71759  -0.71692
 Alpha  occ. eigenvalues --   -0.71486  -0.71095  -0.70324  -0.70165  -0.69468
 Alpha  occ. eigenvalues --   -0.69322  -0.67133  -0.66951  -0.66664  -0.66057
 Alpha  occ. eigenvalues --   -0.64196  -0.63901  -0.63666  -0.63254  -0.62990
 Alpha  occ. eigenvalues --   -0.62862  -0.61849  -0.61481  -0.60254  -0.59826
 Alpha  occ. eigenvalues --   -0.59584  -0.59493  -0.59236  -0.59026  -0.58953
 Alpha  occ. eigenvalues --   -0.58864  -0.57137  -0.56628  -0.54841  -0.54478
 Alpha  occ. eigenvalues --   -0.54037  -0.54011  -0.53511  -0.53483  -0.53397
 Alpha  occ. eigenvalues --   -0.53374  -0.52656  -0.52517  -0.52125  -0.51970
 Alpha  occ. eigenvalues --   -0.51072  -0.50568  -0.50499  -0.50106  -0.49933
 Alpha  occ. eigenvalues --   -0.49636  -0.49540  -0.49464  -0.49162  -0.49043
 Alpha  occ. eigenvalues --   -0.48651  -0.48144  -0.47940  -0.47693  -0.47578
 Alpha  occ. eigenvalues --   -0.47529  -0.46993  -0.46927  -0.46854  -0.46729
 Alpha  occ. eigenvalues --   -0.46573  -0.46494  -0.46327  -0.46228  -0.46221
 Alpha  occ. eigenvalues --   -0.45911  -0.45734  -0.45661  -0.45498  -0.45418
 Alpha  occ. eigenvalues --   -0.44574  -0.44546  -0.44298  -0.44193  -0.43975
 Alpha  occ. eigenvalues --   -0.43966  -0.43903  -0.43491  -0.43488  -0.43387
 Alpha  occ. eigenvalues --   -0.43273  -0.43222  -0.43148  -0.43128  -0.43037
 Alpha  occ. eigenvalues --   -0.42773  -0.42353  -0.42188  -0.42102  -0.42017
 Alpha  occ. eigenvalues --   -0.41854  -0.41766  -0.41613  -0.41564  -0.41415
 Alpha  occ. eigenvalues --   -0.41352  -0.41065  -0.40892  -0.40653  -0.40613
 Alpha  occ. eigenvalues --   -0.40563  -0.40324  -0.40211  -0.39954  -0.39941
 Alpha  occ. eigenvalues --   -0.39512  -0.39438  -0.39312  -0.39127  -0.38809
 Alpha  occ. eigenvalues --   -0.38763  -0.38665  -0.38382  -0.38267  -0.38026
 Alpha  occ. eigenvalues --   -0.37993  -0.37754  -0.37696  -0.37662  -0.37620
 Alpha  occ. eigenvalues --   -0.37341  -0.37129  -0.37108  -0.37074  -0.36997
 Alpha  occ. eigenvalues --   -0.36964  -0.36900  -0.36870  -0.36672  -0.36516
 Alpha  occ. eigenvalues --   -0.36446  -0.36028  -0.35683  -0.35616  -0.35381
 Alpha  occ. eigenvalues --   -0.35235  -0.34751  -0.34746  -0.34493  -0.33995
 Alpha  occ. eigenvalues --   -0.33385  -0.32870  -0.32797  -0.32536  -0.32216
 Alpha  occ. eigenvalues --   -0.32160  -0.32052  -0.31748  -0.31499  -0.31421
 Alpha  occ. eigenvalues --   -0.31396  -0.30709  -0.29877  -0.29642  -0.29392
 Alpha  occ. eigenvalues --   -0.29373  -0.29028  -0.28629  -0.26961  -0.26887
 Alpha  occ. eigenvalues --   -0.26344  -0.26055  -0.25956  -0.25666  -0.25461
 Alpha  occ. eigenvalues --   -0.25447  -0.25214  -0.25081  -0.21309  -0.21187
 Alpha  occ. eigenvalues --   -0.18673  -0.18665
 Alpha virt. eigenvalues --   -0.11198  -0.11075  -0.05803  -0.05280  -0.04461
 Alpha virt. eigenvalues --   -0.03962  -0.02284  -0.01864  -0.01290  -0.00879
 Alpha virt. eigenvalues --    0.00061   0.00780   0.00927   0.01026   0.01051

 Mulliken charges:
               1
     1  Mg  11.999205
     2  C    5.995813
     3  C    6.004148
     4  C    6.000424
     5  C    5.996304
     6  N    6.999694
     7  C    6.007557
     8  C    5.997491
     9  C    6.002155
    10  C    5.992540
    11  C    6.000206
    12  C    5.999473
    13  C    5.999004
    14  H    1.002146
    15  N    7.001608
    16  C    5.992201
    17  C    5.995357
    18  C    5.996291
    19  C    5.994819
    20  C    6.000018
    21  C    5.997347
    22  O    7.993320
    23  C    6.000942
    24  N    6.999257
    25  C    5.994551
    26  C    6.001956
    27  C    5.997752
    28  C    6.006988
    29  C    6.000263
    30  C    5.999563
    31  C    5.999124
    32  N    6.999568
    33  C    6.009248
    34  C    6.005499
    35  C    6.000797
    36  C    6.006542
    37  C    5.999728
    38  C    6.003883
    39  O    8.006309
    40  C    6.000398
    41  C    6.000774
    42  O    8.001116
    43  O    8.000323
    44  C    5.999462
    45  H    0.998355
    46  H    0.998331
    47  H    1.001671
    48  H    1.000582
    49  H    0.999714
    50  H    0.997403
    51  H    0.999946
    52  H    1.000113
    53  H    1.002338
    54  H    0.998804
    55  H    1.000567
    56  H    0.999667
    57  H    0.995665
    58  H    0.996966
    59  H    0.997180
    60  H    0.998094
    61  H    0.996846
    62  H    0.998237
    63  H    0.999795
    64  H    1.000456
    65  H    1.000294
    66  H    1.000691
    67  H    0.997968
    68  H    1.001818
    69  H    0.999044
    70  H    0.998792
    71  H    1.001866
    72  H    1.001193
    73  H    1.003183
    74  H    1.003621
    75  H    1.004402
    76  H    1.001683
    77  H    1.001350
    78  H    1.000927
    79  H    1.001275
    80  Mg  11.998070
    81  C    5.973107
    82  C    6.007572
    83  C    6.020860
    84  C    5.992996
    85  N    6.993586
    86  C    6.038468
    87  C    5.986476
    88  C    6.008308
    89  C    5.971654
    90  C    6.001867
    91  C    5.996601
    92  C    5.994562
    93  H    1.008026
    94  N    7.007856
    95  C    5.961070
    96  C    5.978459
    97  C    5.994657
    98  C    5.958336
    99  C    6.002662
   100  C    5.989618
   101  O    7.981995
   102  C    6.003535
   103  N    7.003840
   104  C    5.968035
   105  C    6.006169
   106  C    5.994687
   107  C    6.022679
   108  C    5.999827
   109  C    5.992973
   110  C    5.999741
   111  N    6.998815
   112  C    6.033283
   113  C    6.038209
   114  C    5.994994
   115  C    6.036262
   116  C    5.999632
   117  C    6.014671
   118  O    8.024392
   119  C    6.001929
   120  C    6.002640
   121  O    8.003597
   122  O    8.001993
   123  C    5.998802
   124  H    0.987999
   125  H    0.992618
   126  H    1.010910
   127  H    1.001311
   128  H    1.001691
   129  H    0.999775
   130  H    0.988089
   131  H    1.001782
   132  H    0.996627
   133  H    1.008300
   134  H    1.009241
   135  H    0.993559
   136  H    0.984420
   137  H    0.983214
   138  H    0.983041
   139  H    0.989747
   140  H    0.989576
   141  H    0.989198
   142  H    1.000366
   143  H    0.999795
   144  H    0.988300
   145  H    0.999937
   146  H    1.004549
   147  H    0.999223
   148  H    1.013534
   149  H    1.005176
   150  H    1.000599
   151  H    0.997131
   152  H    1.017866
   153  H    1.016932
   154  H    1.018236
   155  H    1.009551
   156  H    1.003808
   157  H    1.001383
   158  H    1.005005
 Sum of Mulliken charges = 624.00000

 Dipole moment (field-independent basis, Debye):
    X=             -7.5612    Y=              5.8877    Z=              5.4627  Tot=             11.0307
 Quadrupole moment (field-independent basis, Debye-Ang):
   XX=             91.3983   YY=             -3.9248   ZZ=             -5.0067
   XY=            -91.8752   XZ=            -38.7482   YZ=             -6.3091

 Normal termination of Gaussian 16 at Wed Oct 13 20:18:31 2021.
