 Gaussian 16, Revision A.03,
 Gaussian 16:  ES64L-G16RevA.03 25-Dec-2016

 --------------------------------------------------------
 #p PBE1PBE/Def2SVP td=(nstates=5) density=(transition=1)
 --------------------------------------------------------

 --------------------------------
 TDDFT excited states in gaussian
 --------------------------------
 Symbolic Z-matrix:
 Charge =  0 Multiplicity = 1

                         Standard orientation:
 ---------------------------------------------------------------------
 Center     Atomic      Atomic             Coordinates (Angstroms)
 Number     Number       Type             X           Y           Z
 ---------------------------------------------------------------------
      1         12           0      -29.326958    0.379348    0.386528
      2          6           0      -27.845675   -2.023474   -1.632536
      3          6           0      -29.099884    2.637966   -2.107705
      4          6           0      -30.599203    2.655022    2.485952
      5          6           0      -29.371066   -1.989750    2.964785
      6          7           0      -28.561396    0.228812   -1.657178
      7          6           0      -28.103926   -0.820294   -2.297764
      8          6           0      -27.789478   -0.368698   -3.797982
      9          6           0      -27.496373    1.091241   -3.523891
     10          6           0      -28.489720    1.385601   -2.355156
     11          6           0      -25.997224    1.286841   -3.210838
     12          6           0      -28.961423   -0.813386   -4.774739
     13          6           0      -28.571494   -0.868485   -6.255040
     14          1           0      -27.235391   -0.285827   -6.682267
     15          7           0      -29.943440    2.293574    0.164630
     16          6           0      -29.826579    3.041426   -1.004642
     17          6           0      -30.596806    4.306050   -0.808088
     18          6           0      -31.001312    4.359519    0.593353
     19          6           0      -30.428311    3.092396    1.120135
     20          6           0      -30.801459    5.319070   -1.909512
     21          6           0      -31.871689    5.428984    1.401410
     22          8           0      -32.196927    5.294168    2.585864
     23          6           0      -32.319505    6.653973    0.631689
     24          7           0      -29.785315    0.377804    2.404389
     25          6           0      -30.280295    1.427653    3.054429
     26          6           0      -30.442539    1.170154    4.584358
     27          6           0      -30.277247   -0.355978    4.618065
     28          6           0      -29.835935   -0.721735    3.235766
     29          6           0      -29.440401    1.946743    5.483423
     30          6           0      -31.454657   -1.232999    5.237234
     31          6           0      -32.347009   -1.958349    4.284442
     32          7           0      -28.560590   -1.534371    0.732169
     33          6           0      -28.704609   -2.385986    1.775204
     34          6           0      -28.087628   -3.645753    1.557816
     35          6           0      -27.718979   -3.563500    0.178166
     36          6           0      -28.046457   -2.285086   -0.212138
     37          6           0      -27.823308   -4.848109    2.426547
     38          6           0      -27.149698   -4.233041   -0.953223
     39          8           0      -26.696047   -5.348500   -1.091920
     40          6           0      -27.336611   -3.345144   -2.224666
     41          6           0      -26.059357   -3.229392   -2.934839
     42          8           0      -25.070869   -2.722556   -2.426522
     43          8           0      -26.028900   -3.914836   -4.176217
     44          6           0      -24.733653   -3.929396   -4.874024
     45          1           0      -28.948025    3.355659   -2.915221
     46          1           0      -30.973024    3.431601    3.155360
     47          1           0      -29.356780   -2.684903    3.806404
     48          1           0      -26.924003   -0.913650   -4.172503
     49          1           0      -27.799208    1.768258   -4.322272
     50          1           0      -25.658370    1.864351   -4.071592
     51          1           0      -25.449896    0.345792   -3.142317
     52          1           0      -25.957989    1.939291   -2.338840
     53          1           0      -29.800839   -0.122517   -4.691199
     54          1           0      -29.195050   -1.837150   -4.481531
     55          1           0      -29.369594   -0.369794   -6.804130
     56          1           0      -28.607106   -1.917076   -6.549470
     57          1           0      -30.882155    4.836937   -2.884418
     58          1           0      -30.061332    6.113733   -1.997670
     59          1           0      -31.769113    5.797454   -1.758934
     60          1           0      -31.394321    7.030075    0.195657
     61          1           0      -32.719067    7.457746    1.249396
     62          1           0      -33.089975    6.376672   -0.087930
     63          1           0      -31.434200    1.458461    4.932715
     64          1           0      -29.352856   -0.532236    5.166882
     65          1           0      -29.114150    1.223521    6.231221
     66          1           0      -29.807326    2.851817    5.964992
     67          1           0      -28.629679    2.300843    4.846622
     68          1           0      -32.013162   -0.611659    5.937408
     69          1           0      -31.019439   -2.056522    5.802900
     70          1           0      -32.155656   -3.024512    4.408302
     71          1           0      -32.105467   -1.856271    3.225735
     72          1           0      -33.412700   -1.813815    4.462300
     73          1           0      -28.107905   -4.680875    3.465961
     74          1           0      -26.789343   -5.164750    2.286553
     75          1           0      -28.430846   -5.732099    2.231554
     76          1           0      -28.073274   -3.766681   -2.908065
     77          1           0      -24.765233   -4.303764   -5.896935
     78          1           0      -24.124861   -4.580682   -4.246298
     79          1           0      -24.348420   -2.914283   -4.785375
     80         12           0       29.202464    0.618405   -0.480055
     81          6           0       27.948066   -2.592513    0.501219
     82          6           0       26.002597    1.915666    0.292627
     83          6           0       30.512919    3.703507   -0.638617
     84          6           0       32.377037   -0.735668   -0.524251
     85          7           0       27.171266   -0.229917    0.303733
     86          6           0       27.000358   -1.544906    0.635052
     87          6           0       25.693262   -1.714031    1.393171
     88          6           0       25.027928   -0.320899    1.029991
     89          6           0       26.092499    0.565704    0.505930
     90          6           0       23.824423   -0.340258    0.028769
     91          6           0       25.980885   -2.062975    2.888715
     92          6           0       25.162468   -3.216948    3.600979
     93          1           0       24.277345   -2.886131    4.816087
     94          7           0       28.403165    2.483422   -0.408228
     95          6           0       27.065248    2.840251   -0.094176
     96          6           0       26.890199    4.278507   -0.177447
     97          6           0       28.225898    4.788015   -0.443664
     98          6           0       29.095519    3.628677   -0.513188
     99          6           0       25.605476    4.923132    0.138957
    100          6           0       28.525048    6.286341   -0.624999
    101          8           0       27.557790    7.078188   -0.426863
    102          6           0       29.890072    6.885917   -1.024380
    103          7           0       31.211521    1.479492   -0.308109
    104          6           0       31.490445    2.740169   -0.578701
    105          6           0       32.974559    2.914611   -0.550196
    106          6           0       33.527263    1.464397   -0.573006
    107          6           0       32.287901    0.648540   -0.368708
    108          6           0       33.686056    3.836976   -1.630150
    109          6           0       34.667289    1.142940    0.525145
    110          6           0       36.090887    0.788247    0.030159
    111          7           0       30.003902   -1.248150   -0.301168
    112          6           0       31.284763   -1.652420   -0.340529
    113          6           0       31.395396   -3.051998   -0.148636
    114          6           0       30.091063   -3.460062    0.139906
    115          6           0       29.262712   -2.310926    0.080036
    116          6           0       32.564497   -3.950300   -0.215775
    117          6           0       29.356311   -4.632101    0.503955
    118          8           0       29.774414   -5.748638    0.713914
    119          6           0       27.831641   -4.062099    0.816013
    120          6           0       26.862166   -4.722359   -0.066273
    121          8           0       27.018323   -4.935197   -1.275335
    122          8           0       25.760919   -5.018085    0.708531
    123          6           0       24.653567   -5.692295    0.032872
    124          1           0       25.037501    2.375548    0.510654
    125          1           0       31.005534    4.676630   -0.592674
    126          1           0       33.315835   -1.245258   -0.751846
    127          1           0       25.119545   -2.463283    0.847066
    128          1           0       24.815203    0.009548    2.047357
    129          1           0       24.085047    0.314566   -0.803956
    130          1           0       22.892831    0.045216    0.442483
    131          1           0       23.617500   -1.302269   -0.441073
    132          1           0       25.735209   -1.102810    3.341849
    133          1           0       27.023922   -2.251216    3.142159
    134          1           0       25.913588   -3.958258    3.873087
    135          1           0       24.610823   -3.760662    2.834663
    136          1           0       25.310688    4.550515    1.120237
    137          1           0       24.836783    4.579321   -0.552834
    138          1           0       25.542191    6.007767    0.047586
    139          1           0       30.562144    6.786865   -0.171806
    140          1           0       29.633562    7.829287   -1.505292
    141          1           0       30.216739    6.220826   -1.824493
    142          1           0       33.209915    3.407692    0.392168
    143          1           0       33.775778    1.339807   -1.627036
    144          1           0       34.576975    4.206704   -1.121924
    145          1           0       32.992161    4.625296   -1.921555
    146          1           0       33.965935    3.183433   -2.456560
    147          1           0       34.239379    0.324109    1.103277
    148          1           0       34.675917    1.969081    1.236023
    149          1           0       36.487990   -0.112202    0.496877
    150          1           0       36.749246    1.632841    0.235162
    151          1           0       36.164486    0.681883   -1.052300
    152          1           0       32.267529   -4.990936   -0.342201
    153          1           0       32.963666   -3.739171    0.776458
    154          1           0       33.316314   -3.475989   -0.846443
    155          1           0       27.603593   -4.103962    1.880466
    156          1           0       24.990167   -6.574448   -0.512218
    157          1           0       24.152498   -4.994434   -0.639582
    158          1           0       23.941275   -6.030606    0.785429
 ---------------------------------------------------------------------

 SCF Done:  E(RPBE1PBE) =  -4067.36839744     A.U. after   16 cycles

 Excitation energies and oscillator strengths:

 Excited State   1:      Singlet-A      1.8632 eV  665.42 nm  f=0.3684  <S**2>=0.000
     309 -> 315       -0.18033
     312 -> 313        0.69243
     312 <- 313       -0.10915
 This state for optimization and/or second-order correction.
 Total Energy, E(TD-HF/TD-DFT) =  -4067.29992454
 Copying the excited state density for this state as the 1-particle RhoCI density.

 Excited State   2:      Singlet-A      1.8723 eV  662.21 nm  f=0.3887  <S**2>=0.000
     310 -> 316        0.17578
     311 -> 314        0.69304
     311 <- 314       -0.10655

 Excited State   3:      Singlet-A      2.0148 eV  615.37 nm  f=0.0000  <S**2>=0.000
     311 -> 313        0.70711

 Excited State   4:      Singlet-A      2.0179 eV  614.43 nm  f=0.0000  <S**2>=0.000
     312 -> 314        0.70711

 Excited State   5:      Singlet-A      2.2175 eV  559.12 nm  f=0.1409  <S**2>=0.000
     310 -> 314        0.66476
     311 -> 316       -0.23645

 The electronic state is 1-A.
 Alpha  occ. eigenvalues --  -46.92282 -46.91185 -19.26847 -19.24631 -19.20710
 Alpha  occ. eigenvalues --  -19.20494 -19.19957 -19.19733 -19.18416 -19.18347
 Alpha  occ. eigenvalues --  -14.41391 -14.41380 -14.41104 -14.40958 -14.39645
 Alpha  occ. eigenvalues --  -14.39594 -14.39438 -14.38436 -10.37017 -10.35927
 Alpha  occ. eigenvalues --  -10.34199 -10.32573 -10.32469 -10.31437 -10.29608
 Alpha  occ. eigenvalues --  -10.28920 -10.28886 -10.28544 -10.28486 -10.28407
 Alpha  occ. eigenvalues --  -10.28338 -10.28325 -10.28271 -10.28161 -10.28106
 Alpha  occ. eigenvalues --  -10.28038 -10.28024 -10.27820 -10.27660 -10.27427
 Alpha  occ. eigenvalues --  -10.26857 -10.26748 -10.26485 -10.26469 -10.26313
 Alpha  occ. eigenvalues --  -10.26286 -10.26154 -10.26044 -10.25925 -10.25786
 Alpha  occ. eigenvalues --  -10.25765 -10.25594 -10.25433 -10.25415 -10.25388
 Alpha  occ. eigenvalues --  -10.25377 -10.25354 -10.25329 -10.25257 -10.25184
 Alpha  occ. eigenvalues --  -10.25091 -10.25065 -10.25050 -10.24903 -10.24894
 Alpha  occ. eigenvalues --  -10.24795 -10.24783 -10.24704 -10.24641 -10.24290
 Alpha  occ. eigenvalues --  -10.24284 -10.24149 -10.24038 -10.23999 -10.23889
 Alpha  occ. eigenvalues --  -10.23762 -10.23688 -10.23510 -10.23438 -10.23285
 Alpha  occ. eigenvalues --  -10.23229 -10.23086 -10.22521 -10.22279 -10.22197
 Alpha  occ. eigenvalues --  -10.22018  -3.14416  -3.13524  -1.87245  -1.86777
 Alpha  occ. eigenvalues --   -1.86656  -1.86378  -1.85863  -1.85796  -1.11231
 Alpha  occ. eigenvalues --   -1.09270  -1.05567  -1.05020  -1.04529  -1.02896
 Alpha  occ. eigenvalues --   -1.01978  -1.01616  -1.00382  -1.00106  -0.99443
 Alpha  occ. eigenvalues --   -0.99396  -0.98798  -0.98327  -0.97721  -0.97024
 Alpha  occ. eigenvalues --   -0.87475  -0.86609  -0.83663  -0.83555  -0.82816
 Alpha  occ. eigenvalues --   -0.82604  -0.82524  -0.82407  -0.82281  -0.81809
 Alpha  occ. eigenvalues --   -0.81587  -0.81286  -0.80757  -0.80334  -0.78931
 Alpha  occ. eigenvalues --   -0.78528  -0.78101  -0.78029  -0.77022  -0.76970
 Alpha  occ. eigenvalues --   -0.76592  -0.76204  -0.75689  -0.75343  -0.74783
 Alpha  occ. eigenvalues --   -0.74455  -0.72753  -0.72573  -0.71948  -0.71614
 Alpha  occ. eigenvalues --   -0.71184  -0.71026  -0.70570  -0.70144  -0.69701
 Alpha  occ. eigenvalues --   -0.69436  -0.67660  -0.67348  -0.66656  -0.65631
 Alpha  occ. eigenvalues --   -0.64158  -0.63833  -0.63701  -0.63156  -0.62840
 Alpha  occ. eigenvalues --   -0.62371  -0.61208  -0.60891  -0.60581  -0.60142
 Alpha  occ. eigenvalues --   -0.59643  -0.59594  -0.59283  -0.59175  -0.58781
 Alpha  occ. eigenvalues --   -0.58421  -0.57488  -0.55903  -0.55065  -0.54710
 Alpha  occ. eigenvalues --   -0.54547  -0.54219  -0.54045  -0.53751  -0.53462
 Alpha  occ. eigenvalues --   -0.52911  -0.52704  -0.52556  -0.52214  -0.52108
 Alpha  occ. eigenvalues --   -0.50766  -0.50413  -0.50404  -0.50243  -0.50147
 Alpha  occ. eigenvalues --   -0.50017  -0.49430  -0.49333  -0.49107  -0.48432
 Alpha  occ. eigenvalues --   -0.48308  -0.48221  -0.47960  -0.47735  -0.47552
 Alpha  occ. eigenvalues --   -0.47465  -0.47142  -0.47090  -0.46931  -0.46642
 Alpha  occ. eigenvalues --   -0.46597  -0.46449  -0.46310  -0.45919  -0.45866
 Alpha  occ. eigenvalues --   -0.45851  -0.45201  -0.45159  -0.45099  -0.45048
 Alpha  occ. eigenvalues --   -0.44952  -0.44571  -0.44513  -0.44396  -0.44217
 Alpha  occ. eigenvalues --   -0.44100  -0.44025  -0.43882  -0.43606  -0.43487
 Alpha  occ. eigenvalues --   -0.43473  -0.43233  -0.43148  -0.43104  -0.42552
 Alpha  occ. eigenvalues --   -0.42425  -0.42349  -0.42344  -0.42321  -0.42150
 Alpha  occ. eigenvalues --   -0.42009  -0.41746  -0.41674  -0.41365  -0.41264
 Alpha  occ. eigenvalues --   -0.41141  -0.41127  -0.40780  -0.40759  -0.40683
 Alpha  occ. eigenvalues --   -0.40521  -0.40485  -0.40365  -0.40046  -0.39779
 Alpha  occ. eigenvalues --   -0.39679  -0.39443  -0.39305  -0.39142  -0.38834
 Alpha  occ. eigenvalues --   -0.38562  -0.38548  -0.38426  -0.38347  -0.38345
 Alpha  occ. eigenvalues --   -0.38091  -0.38079  -0.37940  -0.37915  -0.37785
 Alpha  occ. eigenvalues --   -0.37757  -0.37639  -0.37412  -0.37219  -0.36983
 Alpha  occ. eigenvalues --   -0.36674  -0.36420  -0.36270  -0.36119  -0.35918
 Alpha  occ. eigenvalues --   -0.35909  -0.35822  -0.35693  -0.35511  -0.35273
 Alpha  occ. eigenvalues --   -0.35174  -0.34987  -0.34880  -0.34117  -0.33930
 Alpha  occ. eigenvalues --   -0.33738  -0.33215  -0.33177  -0.33054  -0.32635
 Alpha  occ. eigenvalues --   -0.32575  -0.32562  -0.31706  -0.31513  -0.31228
 Alpha  occ. eigenvalues --   -0.30856  -0.30571  -0.29913  -0.29699  -0.29266
 Alpha  occ. eigenvalues --   -0.29035  -0.28631  -0.28579  -0.26986  -0.26853
 Alpha  occ. eigenvalues --   -0.26627  -0.26108  -0.26003  -0.25706  -0.25473
 Alpha  occ. eigenvalues --   -0.25255  -0.25194  -0.24898  -0.21141  -0.20841
 Alpha  occ. eigenvalues --   -0.18976  -0.18939
 Alpha virt. eigenvalues --   -0.11345  -0.11297  -0.05215  -0.04806  -0.04200
 Alpha virt. eigenvalues --   -0.03921  -0.02035  -0.02032  -0.00545  -0.00184
 Alpha virt. eigenvalues --    0.00123   0.00870   0.00903   0.01403   0.01839

 Mulliken charges:
               1
     1  Mg  12.000040
     2  C    5.999714
     3  C    6.000114
     4  C    6.000271
     5  C    5.999861
     6  N    6.999749
     7  C    6.000505
     8  C    5.999953
     9  C    6.000048
    10  C    5.999666
    11  C    5.999953
    12  C    5.999976
    13  C    5.999996
    14  H    1.000023
    15  N    7.000056
    16  C    5.999461
    17  C    5.999817
    18  C    5.999647
    19  C    5.999660
    20  C    6.000077
    21  C    5.999789
    22  O    7.999606
    23  C    6.000062
    24  N    7.000139
    25  C    5.999551
    26  C    6.000114
    27  C    5.999883
    28  C    6.000370
    29  C    6.000018
    30  C    5.999980
    31  C    5.999961
    32  N    7.000040
    33  C    6.000451
    34  C    6.000402
    35  C    6.000067
    36  C    6.000309
    37  C    5.999900
    38  C    6.000173
    39  O    8.000413
    40  C    6.000050
    41  C    6.000049
    42  O    8.000068
    43  O    8.000051
    44  C    5.999984
    45  H    0.999833
    46  H    0.999955
    47  H    1.000189
    48  H    0.999961
    49  H    1.000018
    50  H    0.999948
    51  H    0.999820
    52  H    1.000027
    53  H    1.000151
    54  H    0.999910
    55  H    1.000050
    56  H    0.999967
    57  H    0.999789
    58  H    0.999697
    59  H    0.999800
    60  H    0.999935
    61  H    0.999807
    62  H    0.999899
    63  H    1.000027
    64  H    1.000021
    65  H    0.999874
    66  H    1.000040
    67  H    1.000010
    68  H    1.000142
    69  H    1.000004
    70  H    0.999987
    71  H    0.999975
    72  H    1.000138
    73  H    1.000235
    74  H    1.000233
    75  H    1.000312
    76  H    1.000097
    77  H    1.000067
    78  H    0.999999
    79  H    1.000064
    80  Mg  11.999515
    81  C    6.013602
    82  C    5.981683
    83  C    5.984585
    84  C    6.019822
    85  N    6.995913
    86  C    5.973943
    87  C    6.007190
    88  C    5.991439
    89  C    6.029674
    90  C    5.997779
    91  C    6.007257
    92  C    6.000596
    93  H    0.990322
    94  N    6.997059
    95  C    6.045712
    96  C    6.019663
    97  C    6.011833
    98  C    6.031444
    99  C    5.996100
   100  C    6.012976
   101  O    8.021859
   102  C    6.001830
   103  N    7.000147
   104  C    6.031296
   105  C    5.989685
   106  C    6.010747
   107  C    5.965522
   108  C    5.998545
   109  C    6.001540
   110  C    6.001111
   111  N    7.000453
   112  C    5.964773
   113  C    5.972357
   114  C    5.995798
   115  C    5.972267
   116  C    5.998804
   117  C    5.984106
   118  O    7.973696
   119  C    5.996066
   120  C    5.995059
   121  O    7.995599
   122  O    7.997468
   123  C    6.002259
   124  H    1.008170
   125  H    1.007239
   126  H    0.993588
   127  H    1.000373
   128  H    1.001948
   129  H    0.995101
   130  H    1.001444
   131  H    1.012231
   132  H    0.988147
   133  H    1.005158
   134  H    1.003478
   135  H    1.000053
   136  H    1.018885
   137  H    1.019475
   138  H    1.013200
   139  H    1.010441
   140  H    1.011466
   141  H    1.007501
   142  H    1.001052
   143  H    0.997863
   144  H    1.005271
   145  H    0.992615
   146  H    1.006803
   147  H    1.005760
   148  H    0.990949
   149  H    1.002156
   150  H    0.994366
   151  H    0.998776
   152  H    0.987364
   153  H    0.981398
   154  H    0.981476
   155  H    0.990616
   156  H    0.998161
   157  H    0.993553
   158  H    0.994833
 Sum of Mulliken charges = 624.00000

 Dipole moment (field-independent basis, Debye):
    X=             -3.4487    Y=              9.5888    Z=             -0.6528  Tot=             10.2110
 Quadrupole moment (field-independent basis, Debye-Ang):
   XX=           -206.9085   YY=             11.8132   ZZ=             -0.6383
   XY=            283.0333   XZ=            -19.5098   YZ=             -1.5419

 Normal termination of Gaussian 16 at Fri Oct 15 18:18:18 2021.
