 Gaussian 16, Revision A.03,
 Gaussian 16:  ES64L-G16RevA.03 25-Dec-2016

 --------------------------------------------------------
 #p PBE1PBE/Def2SVP td=(nstates=5) density=(transition=1)
 --------------------------------------------------------

 --------------------------------
 TDDFT excited states in gaussian
 --------------------------------
 Symbolic Z-matrix:
 Charge =  0 Multiplicity = 1

                         Standard orientation:
 ---------------------------------------------------------------------
 Center     Atomic      Atomic             Coordinates (Angstroms)
 Number     Number       Type             X           Y           Z
 ---------------------------------------------------------------------
      1         12           0        9.277000    0.648041   -0.065038
      2          6           0        6.886528   -1.735769   -1.503340
      3          6           0        7.291390    3.073013   -1.533556
      4          6           0       10.619662    2.715112    1.958411
      5          6           0       10.710603   -2.203799    1.585284
      6          7           0        7.149678    0.607208   -1.301003
      7          6           0        6.395342   -0.447506   -1.766637
      8          6           0        5.094120    0.106665   -2.454014
      9          6           0        5.388616    1.597944   -2.691842
     10          6           0        6.674935    1.779211   -1.799430
     11          6           0        5.695951    2.083851   -4.169112
     12          6           0        3.782844   -0.180721   -1.645403
     13          6           0        2.561058   -0.555711   -2.456225
     14          1           0        1.495292    0.563049   -2.677772
     15          7           0        9.102840    2.612042    0.107226
     16          6           0        8.334717    3.469880   -0.632116
     17          6           0        8.560662    4.869137   -0.177339
     18          6           0        9.518698    4.750466    0.863020
     19          6           0        9.750348    3.319083    1.040290
     20          6           0        7.842388    6.134434   -0.674149
     21          6           0       10.029072    5.834084    1.817179
     22          8           0        9.654623    6.985318    1.610887
     23          6           0       10.917700    5.613028    2.888937
     24          7           0       10.309187    0.245448    1.743669
     25          6           0       10.968469    1.361326    2.219770
     26          6           0       12.008702    0.886972    3.307066
     27          6           0       11.784358   -0.666041    3.379529
     28          6           0       10.958144   -0.893660    2.090939
     29          6           0       13.486923    1.285436    3.044170
     30          6           0       11.113189   -1.282036    4.672746
     31          6           0       11.995699   -1.492577    5.915367
     32          7           0        8.982477   -1.545268    0.047096
     33          6           0        9.726680   -2.537657    0.653152
     34          6           0        9.304745   -3.854381    0.240821
     35          6           0        8.185219   -3.583045   -0.631773
     36          6           0        7.945720   -2.166696   -0.710694
     37          6           0        9.904433   -5.128528    0.750627
     38          6           0        7.180068   -4.203490   -1.372737
     39          8           0        6.837039   -5.376152   -1.438738
     40          6           0        6.221481   -3.079886   -1.862981
     41          6           0        6.169401   -3.254376   -3.362852
     42          8           0        5.117779   -3.289997   -4.006601
     43          8           0        7.453444   -3.213279   -4.041499
     44          6           0        7.315797   -3.023450   -5.484600
     45          1           0        6.727010    3.855121   -2.044681
     46          1           0       11.283993    3.309342    2.589284
     47          1           0       11.300323   -2.966594    2.097785
     48          1           0        5.050553   -0.282442   -3.472266
     49          1           0        4.632706    2.237967   -2.236803
     50          1           0        4.796569    2.618659   -4.473656
     51          1           0        5.806709    1.237980   -4.846975
     52          1           0        6.605358    2.671938   -4.292097
     53          1           0        3.382548    0.678982   -1.107417
     54          1           0        3.936793   -1.012610   -0.957781
     55          1           0        2.146837   -1.457419   -2.005141
     56          1           0        2.903006   -0.832723   -3.453948
     57          1           0        8.555026    6.955796   -0.753652
     58          1           0        7.053272    6.290587    0.061295
     59          1           0        7.446874    5.990675   -1.678716
     60          1           0       11.881696    5.320128    2.471759
     61          1           0       10.555589    4.921469    3.649739
     62          1           0       10.886532    6.585493    3.381497
     63          1           0       11.804979    1.271789    4.305760
     64          1           0       12.710698   -1.209668    3.195474
     65          1           0       14.036168    0.343949    3.029219
     66          1           0       13.826422    1.903185    3.874986
     67          1           0       13.440763    1.813783    2.091113
     68          1           0       10.746671   -2.249278    4.327388
     69          1           0       10.323292   -0.631865    5.049408
     70          1           0       12.969472   -1.201689    5.520302
     71          1           0       12.095093   -2.552334    6.154484
     72          1           0       11.748064   -0.913753    6.804835
     73          1           0        9.796803   -5.082064    1.833509
     74          1           0       10.981444   -5.194256    0.597308
     75          1           0        9.324166   -6.010041    0.477737
     76          1           0        5.236108   -3.307616   -1.456890
     77          1           0        8.297187   -2.568970   -5.625516
     78          1           0        6.404759   -2.484314   -5.744207
     79          1           0        7.368186   -4.017579   -5.928691
     80         12           0       -9.229437    0.226523    0.148435
     81          6           0       -6.525558   -1.994811   -0.398119
     82          6           0       -7.246714    2.642645   -1.416736
     83          6           0      -11.678853    2.388567    0.473185
     84          6           0      -10.637903   -2.070378    2.346250
     85          7           0       -7.154759    0.257220   -0.808535
     86          6           0       -6.305777   -0.780839   -1.046847
     87          6           0       -5.000302   -0.428690   -1.780417
     88          6           0       -5.271797    1.149388   -1.966772
     89          6           0       -6.623896    1.332257   -1.343411
     90          6           0       -4.219363    2.080651   -1.244764
     91          6           0       -4.839618   -1.183883   -3.140009
     92          6           0       -3.788879   -2.252248   -3.416288
     93          1           0       -3.137912   -2.385110   -4.786721
     94          7           0       -9.495664    2.227649   -0.454611
     95          6           0       -8.537317    3.078351   -1.024212
     96          6           0       -9.123678    4.397709   -1.101940
     97          6           0      -10.458631    4.320261   -0.712674
     98          6           0      -10.612799    2.924611   -0.257993
     99          6           0       -8.344628    5.483261   -1.762715
    100          6           0      -11.547386    5.388045   -0.612007
    101          8           0      -12.697542    5.182713   -0.212451
    102          6           0      -11.232277    6.721885   -1.165214
    103          7           0      -10.883427    0.245070    1.324140
    104          6           0      -11.890970    1.152737    1.148792
    105          6           0      -13.230665    0.635661    1.774298
    106          6           0      -12.821787   -0.684578    2.414493
    107          6           0      -11.313244   -0.836420    2.073662
    108          6           0      -13.919866    1.671855    2.721133
    109          6           0      -13.695182   -1.820081    1.859554
    110          6           0      -14.236912   -2.824335    2.810673
    111          7           0       -8.692025   -1.610079    0.946907
    112          6           0       -9.366260   -2.444381    1.802273
    113          6           0       -8.646579   -3.663798    2.018537
    114          6           0       -7.502338   -3.631903    1.079738
    115          6           0       -7.610897   -2.329087    0.451514
    116          6           0       -9.048361   -4.786410    2.990471
    117          6           0       -6.312484   -4.335904    0.538578
    118          8           0       -5.930942   -5.507404    0.700996
    119          6           0       -5.652603   -3.282867   -0.443871
    120          6           0       -4.297948   -3.160974    0.180960
    121          8           0       -3.941209   -2.422300    1.090833
    122          8           0       -3.424703   -3.888299   -0.460371
    123          6           0       -2.054681   -4.044969    0.085607
    124          1           0       -6.591086    3.241494   -2.051820
    125          1           0      -12.545571    3.015726    0.690609
    126          1           0      -11.131152   -2.806928    2.983372
    127          1           0       -4.176629   -0.592602   -1.084454
    128          1           0       -5.377329    1.539418   -2.979590
    129          1           0       -3.583049    1.619318   -0.490027
    130          1           0       -4.734568    2.892935   -0.733264
    131          1           0       -3.572761    2.519139   -2.005072
    132          1           0       -4.651068   -0.418525   -3.893031
    133          1           0       -5.763057   -1.702867   -3.393780
    134          1           0       -4.401276   -3.150813   -3.339711
    135          1           0       -3.079987   -2.075610   -2.607291
    136          1           0       -8.845488    5.858813   -2.653950
    137          1           0       -7.357370    5.131386   -2.063124
    138          1           0       -8.191177    6.353095   -1.124731
    139          1           0      -10.822398    6.611093   -2.169200
    140          1           0      -10.398347    7.199920   -0.651064
    141          1           0      -12.092810    7.382523   -1.265825
    142          1           0      -13.849992    0.511543    0.886119
    143          1           0      -13.024645   -0.682301    3.485319
    144          1           0      -13.473717    2.665982    2.697712
    145          1           0      -13.913818    1.380524    3.770808
    146          1           0      -14.992558    1.688325    2.528919
    147          1           0      -13.020459   -2.310802    1.159256
    148          1           0      -14.596411   -1.490613    1.343096
    149          1           0      -13.899511   -3.782557    2.416312
    150          1           0      -15.314050   -2.698166    2.919574
    151          1           0      -13.796359   -2.797629    3.807551
    152          1           0       -8.586838   -4.597821    3.959064
    153          1           0       -8.729685   -5.736965    2.562966
    154          1           0      -10.123075   -4.808777    3.172318
    155          1           0       -5.589508   -3.764416   -1.419524
    156          1           0       -1.503658   -3.109522    0.176240
    157          1           0       -1.432897   -4.750014   -0.465766
    158          1           0       -1.968607   -4.488316    1.077172
 ---------------------------------------------------------------------

 SCF Done:  E(RPBE1PBE) =  -4067.32121291     A.U. after   16 cycles

 Excitation energies and oscillator strengths:

 Excited State   1:      Singlet-A      1.7742 eV  698.83 nm  f=0.0000  <S**2>=0.000
     312 -> 313        0.70708
 This state for optimization and/or second-order correction.
 Total Energy, E(TD-HF/TD-DFT) =  -4067.25601385
 Copying the excited state density for this state as the 1-particle RhoCI density.

 Excited State   2:      Singlet-A      1.8608 eV  666.31 nm  f=0.0933  <S**2>=0.000
     310 -> 316       -0.16235
     311 -> 313       -0.31204
     312 -> 314        0.61473

 Excited State   3:      Singlet-A      1.8728 eV  662.02 nm  f=0.5923  <S**2>=0.000
     309 -> 315       -0.17157
     311 -> 313        0.61142
     312 -> 314        0.31285

 Excited State   4:      Singlet-A      2.0399 eV  607.81 nm  f=0.0000  <S**2>=0.000
     311 -> 314        0.70708

 Excited State   5:      Singlet-A      2.2113 eV  560.69 nm  f=0.1166  <S**2>=0.000
     310 -> 314        0.64838
     312 -> 316        0.26648

 The electronic state is 1-A.
 Alpha  occ. eigenvalues --  -46.94218 -46.91857 -19.25722 -19.24478 -19.20443
 Alpha  occ. eigenvalues --  -19.19432 -19.19227 -19.19002 -19.18299 -19.18267
 Alpha  occ. eigenvalues --  -14.42174 -14.41842 -14.41713 -14.41458 -14.40406
 Alpha  occ. eigenvalues --  -14.39259 -14.38991 -14.38745 -10.36568 -10.35515
 Alpha  occ. eigenvalues --  -10.32733 -10.32710 -10.32043 -10.30791 -10.29999
 Alpha  occ. eigenvalues --  -10.29655 -10.29566 -10.29160 -10.29049 -10.28940
 Alpha  occ. eigenvalues --  -10.28919 -10.28864 -10.28846 -10.28741 -10.28366
 Alpha  occ. eigenvalues --  -10.28309 -10.28096 -10.27942 -10.27323 -10.27235
 Alpha  occ. eigenvalues --  -10.27212 -10.26887 -10.26813 -10.26793 -10.26755
 Alpha  occ. eigenvalues --  -10.26746 -10.26723 -10.26519 -10.26360 -10.26251
 Alpha  occ. eigenvalues --  -10.26227 -10.26201 -10.26094 -10.26076 -10.26073
 Alpha  occ. eigenvalues --  -10.26017 -10.25812 -10.25756 -10.25652 -10.25645
 Alpha  occ. eigenvalues --  -10.25252 -10.25243 -10.25145 -10.25128 -10.24834
 Alpha  occ. eigenvalues --  -10.24806 -10.24727 -10.24598 -10.24584 -10.24575
 Alpha  occ. eigenvalues --  -10.24564 -10.24150 -10.24047 -10.23937 -10.23844
 Alpha  occ. eigenvalues --  -10.23806 -10.23737 -10.23571 -10.23431 -10.23389
 Alpha  occ. eigenvalues --  -10.23328 -10.23254 -10.23229 -10.23163 -10.22853
 Alpha  occ. eigenvalues --  -10.22280  -3.16211  -3.14031  -1.88993  -1.88637
 Alpha  occ. eigenvalues --   -1.88398  -1.86874  -1.86408  -1.86259  -1.12422
 Alpha  occ. eigenvalues --   -1.08775  -1.05176  -1.04449  -1.03883  -1.03207
 Alpha  occ. eigenvalues --   -1.01287  -1.01147  -0.99924  -0.99647  -0.98348
 Alpha  occ. eigenvalues --   -0.98078  -0.97996  -0.97338  -0.96185  -0.95923
 Alpha  occ. eigenvalues --   -0.87407  -0.86180  -0.83751  -0.83379  -0.83292
 Alpha  occ. eigenvalues --   -0.83102  -0.82839  -0.82828  -0.81755  -0.81361
 Alpha  occ. eigenvalues --   -0.81202  -0.80987  -0.80424  -0.79409  -0.79330
 Alpha  occ. eigenvalues --   -0.78571  -0.78176  -0.78036  -0.77754  -0.77022
 Alpha  occ. eigenvalues --   -0.76944  -0.76590  -0.75620  -0.75045  -0.74735
 Alpha  occ. eigenvalues --   -0.74326  -0.72785  -0.72601  -0.71737  -0.71732
 Alpha  occ. eigenvalues --   -0.71450  -0.71068  -0.70460  -0.70237  -0.69696
 Alpha  occ. eigenvalues --   -0.69396  -0.67422  -0.66686  -0.66474  -0.66122
 Alpha  occ. eigenvalues --   -0.63576  -0.63383  -0.63106  -0.62553  -0.62275
 Alpha  occ. eigenvalues --   -0.62105  -0.61508  -0.61148  -0.60126  -0.60035
 Alpha  occ. eigenvalues --   -0.59941  -0.59604  -0.59562  -0.59284  -0.58689
 Alpha  occ. eigenvalues --   -0.58653  -0.56920  -0.56503  -0.55179  -0.54962
 Alpha  occ. eigenvalues --   -0.54513  -0.53888  -0.53877  -0.53595  -0.53512
 Alpha  occ. eigenvalues --   -0.53000  -0.52304  -0.52123  -0.51935  -0.51622
 Alpha  occ. eigenvalues --   -0.51313  -0.51043  -0.50364  -0.50051  -0.49498
 Alpha  occ. eigenvalues --   -0.49449  -0.48806  -0.48780  -0.48641  -0.48506
 Alpha  occ. eigenvalues --   -0.48385  -0.48290  -0.48224  -0.47937  -0.47819
 Alpha  occ. eigenvalues --   -0.47544  -0.47279  -0.47218  -0.47108  -0.46808
 Alpha  occ. eigenvalues --   -0.46738  -0.46605  -0.46540  -0.45997  -0.45969
 Alpha  occ. eigenvalues --   -0.45676  -0.45297  -0.45208  -0.44901  -0.44630
 Alpha  occ. eigenvalues --   -0.44575  -0.44479  -0.44273  -0.44133  -0.44125
 Alpha  occ. eigenvalues --   -0.43968  -0.43823  -0.43717  -0.43458  -0.43364
 Alpha  occ. eigenvalues --   -0.43356  -0.43114  -0.43033  -0.42944  -0.42712
 Alpha  occ. eigenvalues --   -0.42710  -0.42528  -0.42511  -0.42274  -0.42062
 Alpha  occ. eigenvalues --   -0.41971  -0.41544  -0.41280  -0.41139  -0.41012
 Alpha  occ. eigenvalues --   -0.40883  -0.40707  -0.40696  -0.40540  -0.40248
 Alpha  occ. eigenvalues --   -0.40240  -0.40078  -0.39875  -0.39822  -0.39712
 Alpha  occ. eigenvalues --   -0.39581  -0.39410  -0.39389  -0.39261  -0.39003
 Alpha  occ. eigenvalues --   -0.38987  -0.38796  -0.38763  -0.38722  -0.38568
 Alpha  occ. eigenvalues --   -0.38155  -0.37956  -0.37763  -0.37568  -0.37479
 Alpha  occ. eigenvalues --   -0.37440  -0.37263  -0.37261  -0.36928  -0.36828
 Alpha  occ. eigenvalues --   -0.36577  -0.36476  -0.36324  -0.36253  -0.36218
 Alpha  occ. eigenvalues --   -0.35909  -0.35607  -0.35267  -0.35243  -0.35236
 Alpha  occ. eigenvalues --   -0.34889  -0.34844  -0.34724  -0.34409  -0.34280
 Alpha  occ. eigenvalues --   -0.33887  -0.33291  -0.32954  -0.32803  -0.32665
 Alpha  occ. eigenvalues --   -0.32311  -0.32122  -0.31628  -0.31520  -0.31138
 Alpha  occ. eigenvalues --   -0.30698  -0.30359  -0.29761  -0.29574  -0.29309
 Alpha  occ. eigenvalues --   -0.28753  -0.28509  -0.27897  -0.27196  -0.27169
 Alpha  occ. eigenvalues --   -0.26738  -0.26251  -0.26150  -0.25846  -0.25557
 Alpha  occ. eigenvalues --   -0.25254  -0.24575  -0.24518  -0.21466  -0.20714
 Alpha  occ. eigenvalues --   -0.19194  -0.18676
 Alpha virt. eigenvalues --   -0.11416  -0.10962  -0.06194  -0.05287  -0.04460
 Alpha virt. eigenvalues --   -0.04280  -0.02498  -0.02231  -0.02173  -0.00063
 Alpha virt. eigenvalues --   -0.00016   0.00034   0.01110   0.01263   0.01753

 Mulliken charges:
               1
     1  Mg  12.000000
     2  C    5.999998
     3  C    6.000001
     4  C    5.999998
     5  C    6.000007
     6  N    7.000003
     7  C    5.999997
     8  C    6.000000
     9  C    5.999999
    10  C    6.000005
    11  C    5.999999
    12  C    5.999999
    13  C    6.000001
    14  H    1.000004
    15  N    6.999998
    16  C    6.000007
    17  C    6.000006
    18  C    6.000002
    19  C    6.000008
    20  C    6.000000
    21  C    6.000002
    22  O    8.000004
    23  C    5.999999
    24  N    7.000002
    25  C    6.000006
    26  C    5.999998
    27  C    6.000001
    28  C    5.999994
    29  C    6.000000
    30  C    6.000001
    31  C    6.000000
    32  N    6.999998
    33  C    5.999996
    34  C    5.999996
    35  C    6.000002
    36  C    5.999996
    37  C    6.000000
    38  C    5.999997
    39  O    7.999995
    40  C    6.000001
    41  C    6.000000
    42  O    7.999998
    43  O    8.000000
    44  C    6.000000
    45  H    1.000001
    46  H    1.000001
    47  H    0.999999
    48  H    1.000000
    49  H    1.000000
    50  H    1.000001
    51  H    1.000002
    52  H    1.000000
    53  H    0.999998
    54  H    1.000002
    55  H    1.000001
    56  H    1.000000
    57  H    1.000002
    58  H    1.000003
    59  H    1.000003
    60  H    1.000001
    61  H    1.000002
    62  H    1.000002
    63  H    1.000001
    64  H    1.000000
    65  H    1.000002
    66  H    1.000000
    67  H    1.000000
    68  H    1.000001
    69  H    0.999999
    70  H    0.999999
    71  H    1.000000
    72  H    0.999999
    73  H    0.999997
    74  H    0.999997
    75  H    0.999998
    76  H    0.999999
    77  H    0.999999
    78  H    0.999999
    79  H    1.000000
    80  Mg  11.999999
    81  C    6.000001
    82  C    5.999995
    83  C    5.999998
    84  C    6.000001
    85  N    7.000000
    86  C    5.999995
    87  C    5.999999
    88  C    5.999999
    89  C    6.000002
    90  C    5.999990
    91  C    6.000000
    92  C    6.000000
    93  H    0.999999
    94  N    7.000000
    95  C    6.000004
    96  C    5.999997
    97  C    6.000001
    98  C    6.000000
    99  C    6.000000
   100  C    6.000001
   101  O    8.000001
   102  C    6.000000
   103  N    7.000000
   104  C    6.000000
   105  C    6.000000
   106  C    6.000001
   107  C    5.999994
   108  C    6.000000
   109  C    6.000000
   110  C    6.000000
   111  N    7.000000
   112  C    5.999995
   113  C    5.999996
   114  C    5.999998
   115  C    5.999996
   116  C    6.000000
   117  C    5.999997
   118  O    7.999996
   119  C    6.000000
   120  C    6.000000
   121  O    7.999999
   122  O    8.000000
   123  C    6.000000
   124  H    1.000000
   125  H    1.000001
   126  H    1.000000
   127  H    1.000001
   128  H    0.999999
   129  H    1.000006
   130  H    1.000001
   131  H    1.000009
   132  H    1.000001
   133  H    0.999999
   134  H    1.000001
   135  H    1.000005
   136  H    1.000001
   137  H    1.000001
   138  H    1.000001
   139  H    1.000001
   140  H    1.000001
   141  H    1.000001
   142  H    1.000000
   143  H    1.000000
   144  H    1.000000
   145  H    1.000001
   146  H    1.000000
   147  H    1.000000
   148  H    0.999999
   149  H    1.000000
   150  H    1.000000
   151  H    1.000000
   152  H    0.999998
   153  H    0.999999
   154  H    0.999999
   155  H    0.999999
   156  H    1.000000
   157  H    1.000000
   158  H    1.000000
 Sum of Mulliken charges = 624.00000

 Dipole moment (field-independent basis, Debye):
    X=              0.0022    Y=              0.0026    Z=             -0.0002  Tot=              0.0034
 Quadrupole moment (field-independent basis, Debye-Ang):
   XX=             -0.0005   YY=              0.0019   ZZ=             -0.0002
   XY=              0.0093   XZ=              0.0049   YZ=              0.0005

 Normal termination of Gaussian 16 at Fri Oct 15 08:56:36 2021.
