 Gaussian 16, Revision A.03,
 Gaussian 16:  ES64L-G16RevA.03 25-Dec-2016

 --------------------------------------------------------
 #p PBE1PBE/Def2SVP td=(nstates=5) density=(transition=1)
 --------------------------------------------------------

 --------------------------------
 TDDFT excited states in gaussian
 --------------------------------
 Symbolic Z-matrix:
 Charge =  0 Multiplicity = 1

                         Standard orientation:
 ---------------------------------------------------------------------
 Center     Atomic      Atomic             Coordinates (Angstroms)
 Number     Number       Type             X           Y           Z
 ---------------------------------------------------------------------
      1         12           0        8.429646   -0.933002   -0.277234
      2          6           0       10.329049    1.970166   -0.074171
      3          6           0        5.655943    0.854183    0.402504
      4          6           0        6.748817   -3.811882    0.293725
      5          6           0       11.431294   -2.811371   -0.152363
      6          7           0        8.127309    1.153586    0.012852
      7          6           0        8.970014    2.239249   -0.085690
      8          6           0        8.191154    3.557989    0.174680
      9          6           0        6.890391    3.015173    0.842915
     10          6           0        6.821541    1.596207    0.297808
     11          6           0        6.914036    3.002351    2.411952
     12          6           0        8.150983    4.349740   -1.145212
     13          6           0        8.390229    5.803463   -0.990928
     14          1           0        8.808130    6.492589   -2.210182
     15          7           0        6.442724   -1.377327    0.046673
     16          6           0        5.443569   -0.477516    0.237771
     17          6           0        4.182404   -1.161319    0.098653
     18          6           0        4.511977   -2.564223    0.061536
     19          6           0        5.967300   -2.635849    0.221455
     20          6           0        2.863485   -0.476611    0.143882
     21          6           0        3.603391   -3.836566    0.049484
     22          8           0        4.057113   -4.981969    0.008558
     23          6           0        2.108187   -3.725672   -0.058391
     24          7           0        9.072617   -2.978100    0.369009
     25          6           0        8.115455   -4.028759    0.399763
     26          6           0        8.727610   -5.387822    0.483521
     27          6           0       10.195879   -4.999273    0.113179
     28          6           0       10.231868   -3.475187    0.037030
     29          6           0        8.554199   -6.086680    1.874482
     30          6           0       10.680231   -5.613779   -1.250761
     31          6           0        9.747070   -5.373900   -2.464863
     32          7           0       10.470429   -0.551317   -0.248800
     33          6           0       11.577208   -1.414306   -0.250596
     34          6           0       12.729055   -0.592512   -0.261850
     35          6           0       12.272280    0.718984   -0.222247
     36          6           0       10.917036    0.680295   -0.203763
     37          6           0       14.140562   -1.077682   -0.356245
     38          6           0       12.699110    2.035257   -0.120548
     39          8           0       13.856466    2.489269   -0.063566
     40          6           0       11.474951    2.995270   -0.027657
     41          6           0       11.638040    3.910956   -1.280848
     42          8           0       11.501884    3.547831   -2.462751
     43          8           0       11.964214    5.188840   -0.839709
     44          6           0       12.421449    6.194568   -1.850650
     45          1           0        4.852817    1.522551    0.720123
     46          1           0        6.375435   -4.838046    0.331864
     47          1           0       12.376570   -3.330122   -0.325338
     48          1           0        8.760314    4.208655    0.837749
     49          1           0        6.033706    3.563380    0.452039
     50          1           0        7.793537    3.441980    2.883249
     51          1           0        6.951127    1.979747    2.785280
     52          1           0        6.070082    3.586707    2.777945
     53          1           0        7.122627    4.277152   -1.496440
     54          1           0        8.865649    3.889355   -1.827951
     55          1           0        9.221191    5.890394   -0.290701
     56          1           0        7.515369    6.249030   -0.517848
     57          1           0        2.961158    0.590587   -0.054323
     58          1           0        2.347211   -0.794263    1.050409
     59          1           0        2.244606   -0.837538   -0.677666
     60          1           0        1.736806   -4.648642    0.387504
     61          1           0        1.794540   -3.708924   -1.102409
     62          1           0        1.717272   -2.883941    0.514094
     63          1           0        8.361052   -6.085180   -0.271060
     64          1           0       10.857195   -5.331656    0.914006
     65          1           0        8.344075   -5.326683    2.627530
     66          1           0        9.405284   -6.657072    2.246850
     67          1           0        7.741040   -6.809442    1.947417
     68          1           0       10.869962   -6.668127   -1.048904
     69          1           0       11.667507   -5.172368   -1.386514
     70          1           0       10.240951   -4.835849   -3.274234
     71          1           0        8.887497   -4.816524   -2.091577
     72          1           0        9.377237   -6.301644   -2.900432
     73          1           0       14.653936   -0.659737    0.509659
     74          1           0       14.543074   -0.740945   -1.311583
     75          1           0       14.272261   -2.156323   -0.269970
     76          1           0       11.587834    3.602549    0.870043
     77          1           0       13.319043    5.776738   -2.305986
     78          1           0       12.666681    7.195370   -1.495317
     79          1           0       11.534832    6.154111   -2.483464
     80         12           0       -8.860625   -0.388673   -0.067194
     81          6           0       -7.243951    2.590867    0.541593
     82          6           0      -11.367268    1.450222   -1.828865
     83          6           0      -10.642451   -3.125312   -0.381164
     84          6           0       -6.476899   -2.114057    1.804821
     85          7           0       -9.180035    1.775360   -0.545248
     86          6           0       -8.378319    2.795301   -0.225017
     87          6           0       -8.933901    4.100903   -0.881830
     88          6           0      -10.337799    3.676731   -1.514601
     89          6           0      -10.334783    2.161701   -1.233363
     90          6           0      -11.586682    4.221190   -0.848270
     91          6           0       -7.969852    4.792786   -1.857311
     92          6           0       -7.815451    6.268691   -1.530881
     93          1           0       -7.444247    7.286485   -2.619192
     94          7           0      -10.705138   -0.777348   -1.051616
     95          6           0      -11.543292    0.050606   -1.741210
     96          6           0      -12.625942   -0.631701   -2.295500
     97          6           0      -12.535075   -1.978374   -1.797956
     98          6           0      -11.236878   -2.022496   -1.040135
     99          6           0      -13.681179    0.016296   -3.180060
    100          6           0      -13.528077   -3.120161   -1.941550
    101          8           0      -13.333315   -4.161570   -1.285133
    102          6           0      -14.764239   -2.985816   -2.733511
    103          7           0       -8.556297   -2.289905    0.587575
    104          6           0       -9.413406   -3.329163    0.289103
    105          6           0       -8.995043   -4.718730    0.898261
    106          6           0       -7.511533   -4.365873    1.342527
    107          6           0       -7.507241   -2.828234    1.263991
    108          6           0       -9.813698   -5.385563    2.073236
    109          6           0       -6.302271   -5.141433    0.647156
    110          6           0       -5.939205   -4.670731   -0.736437
    111          7           0       -7.295836    0.074221    1.073482
    112          6           0       -6.392921   -0.685276    1.792889
    113          6           0       -5.392678    0.099898    2.392050
    114          6           0       -5.682384    1.372825    1.887340
    115          6           0       -6.853786    1.331200    1.076308
    116          6           0       -4.300362   -0.487825    3.179691
    117          6           0       -5.237987    2.704675    2.039454
    118          8           0       -4.346003    3.121362    2.781184
    119          6           0       -6.222019    3.615645    1.135689
    120          6           0       -6.838967    4.626117    1.976842
    121          8           0       -7.726193    4.457286    2.781778
    122          8           0       -6.215647    5.789303    1.834411
    123          6           0       -6.593439    6.888285    2.670666
    124          1           0      -12.153650    2.026300   -2.320129
    125          1           0      -11.121006   -4.106353   -0.399979
    126          1           0       -5.754255   -2.692386    2.384365
    127          1           0       -9.118378    4.697439    0.011029
    128          1           0      -10.341300    4.109226   -2.515745
    129          1           0      -11.398409    4.944459   -0.054271
    130          1           0      -12.136196    3.414705   -0.363505
    131          1           0      -12.289542    4.566527   -1.607047
    132          1           0       -8.230310    4.692332   -2.911102
    133          1           0       -7.006230    4.290170   -1.777562
    134          1           0       -6.964069    6.334457   -0.852473
    135          1           0       -8.757745    6.573692   -1.076124
    136          1           0      -13.379606    1.012707   -3.503210
    137          1           0      -14.570595    0.208258   -2.579497
    138          1           0      -13.989287   -0.655557   -3.980304
    139          1           0      -15.505810   -3.722631   -2.422786
    140          1           0      -14.504735   -3.223768   -3.765547
    141          1           0      -15.180115   -1.984917   -2.620522
    142          1           0       -8.828888   -5.474462    0.129899
    143          1           0       -7.372519   -4.698695    2.370365
    144          1           0      -10.651445   -4.729375    2.305920
    145          1           0       -9.235103   -5.304092    2.994253
    146          1           0      -10.157713   -6.412548    1.947159
    147          1           0       -6.643296   -6.168078    0.515985
    148          1           0       -5.408460   -5.216673    1.265288
    149          1           0       -4.868200   -4.833222   -0.852312
    150          1           0       -6.188616   -3.664941   -1.072165
    151          1           0       -6.498941   -5.298937   -1.429385
    152          1           0       -3.953050   -1.489383    2.927276
    153          1           0       -4.376684   -0.378311    4.260815
    154          1           0       -3.492411    0.208287    2.955863
    155          1           0       -5.615274    4.097701    0.369392
    156          1           0       -7.397157    7.483457    2.235676
    157          1           0       -5.728252    7.548113    2.732635
    158          1           0       -6.923658    6.518441    3.641490
 ---------------------------------------------------------------------

 SCF Done:  E(RPBE1PBE) =  -4067.39740917     A.U. after   16 cycles

 Excitation energies and oscillator strengths:

 Excited State   1:      Singlet-A      1.7168 eV  722.17 nm  f=0.0000  <S**2>=0.000
     312 -> 313        0.70704
 This state for optimization and/or second-order correction.
 Total Energy, E(TD-HF/TD-DFT) =  -4067.33431703
 Copying the excited state density for this state as the 1-particle RhoCI density.

 Excited State   2:      Singlet-A      1.8205 eV  681.05 nm  f=0.5263  <S**2>=0.000
     310 -> 316        0.14936
     311 -> 313        0.15241
     312 -> 314        0.68003
     312 <- 314       -0.11436

 Excited State   3:      Singlet-A      1.8698 eV  663.08 nm  f=0.2719  <S**2>=0.000
     309 -> 315        0.16213
     311 -> 313        0.67634
     312 -> 314       -0.15218
     311 <- 313       -0.10877

 Excited State   4:      Singlet-A      1.9437 eV  637.89 nm  f=0.0000  <S**2>=0.000
     311 -> 314        0.70704

 Excited State   5:      Singlet-A      2.2316 eV  555.57 nm  f=0.0561  <S**2>=0.000
     309 -> 313       -0.16543
     310 -> 314        0.63134
     312 -> 316       -0.23487

 The electronic state is 1-A.
 Alpha  occ. eigenvalues --  -46.91635 -46.91272 -19.25602 -19.25328 -19.20152
 Alpha  occ. eigenvalues --  -19.19118 -19.18985 -19.18961 -19.18560 -19.17786
 Alpha  occ. eigenvalues --  -14.42006 -14.41842 -14.41464 -14.40851 -14.39495
 Alpha  occ. eigenvalues --  -14.38950 -14.38851 -14.38080 -10.36994 -10.35406
 Alpha  occ. eigenvalues --  -10.32439 -10.32079 -10.31903 -10.30657 -10.29388
 Alpha  occ. eigenvalues --  -10.29100 -10.29093 -10.29069 -10.28591 -10.28575
 Alpha  occ. eigenvalues --  -10.28552 -10.28276 -10.28103 -10.28064 -10.27937
 Alpha  occ. eigenvalues --  -10.27791 -10.27159 -10.26975 -10.26968 -10.26869
 Alpha  occ. eigenvalues --  -10.26869 -10.26535 -10.26306 -10.26152 -10.26098
 Alpha  occ. eigenvalues --  -10.26040 -10.26012 -10.25958 -10.25931 -10.25856
 Alpha  occ. eigenvalues --  -10.25689 -10.25658 -10.25625 -10.25609 -10.25432
 Alpha  occ. eigenvalues --  -10.25359 -10.25344 -10.25223 -10.25194 -10.25181
 Alpha  occ. eigenvalues --  -10.24993 -10.24921 -10.24916 -10.24791 -10.24596
 Alpha  occ. eigenvalues --  -10.24344 -10.24332 -10.24197 -10.24089 -10.24088
 Alpha  occ. eigenvalues --  -10.23989 -10.23976 -10.23785 -10.23754 -10.23642
 Alpha  occ. eigenvalues --  -10.23523 -10.23472 -10.23314 -10.23244 -10.23195
 Alpha  occ. eigenvalues --  -10.23193 -10.23033 -10.22941 -10.22639 -10.22540
 Alpha  occ. eigenvalues --  -10.21313  -3.13809  -3.13630  -1.86629  -1.86472
 Alpha  occ. eigenvalues --   -1.86187  -1.86034  -1.86023  -1.85858  -1.12878
 Alpha  occ. eigenvalues --   -1.09069  -1.04204  -1.03862  -1.03301  -1.02754
 Alpha  occ. eigenvalues --   -1.02541  -1.01368  -0.99462  -0.99367  -0.98536
 Alpha  occ. eigenvalues --   -0.98522  -0.98099  -0.98089  -0.97377  -0.96763
 Alpha  occ. eigenvalues --   -0.86807  -0.86628  -0.83831  -0.83379  -0.83202
 Alpha  occ. eigenvalues --   -0.83186  -0.82831  -0.82772  -0.82127  -0.82061
 Alpha  occ. eigenvalues --   -0.82037  -0.81351  -0.81234  -0.80763  -0.79030
 Alpha  occ. eigenvalues --   -0.78787  -0.78292  -0.77727  -0.77391  -0.76659
 Alpha  occ. eigenvalues --   -0.76388  -0.75764  -0.75729  -0.75183  -0.75149
 Alpha  occ. eigenvalues --   -0.74653  -0.72761  -0.72471  -0.71831  -0.71403
 Alpha  occ. eigenvalues --   -0.71297  -0.71122  -0.70435  -0.70234  -0.69785
 Alpha  occ. eigenvalues --   -0.69750  -0.68104  -0.67596  -0.66391  -0.66049
 Alpha  occ. eigenvalues --   -0.64157  -0.64066  -0.63479  -0.63110  -0.62332
 Alpha  occ. eigenvalues --   -0.61894  -0.61633  -0.60864  -0.60023  -0.59769
 Alpha  occ. eigenvalues --   -0.59592  -0.59312  -0.59056  -0.58994  -0.58936
 Alpha  occ. eigenvalues --   -0.58497  -0.57078  -0.56081  -0.55105  -0.54766
 Alpha  occ. eigenvalues --   -0.54389  -0.54222  -0.53761  -0.53676  -0.53323
 Alpha  occ. eigenvalues --   -0.53026  -0.53013  -0.52385  -0.52098  -0.51305
 Alpha  occ. eigenvalues --   -0.51274  -0.50790  -0.50481  -0.50066  -0.49821
 Alpha  occ. eigenvalues --   -0.49808  -0.49383  -0.49332  -0.49226  -0.49089
 Alpha  occ. eigenvalues --   -0.48282  -0.47971  -0.47961  -0.47573  -0.47472
 Alpha  occ. eigenvalues --   -0.47460  -0.47349  -0.47076  -0.46938  -0.46935
 Alpha  occ. eigenvalues --   -0.46809  -0.46545  -0.46422  -0.46060  -0.46040
 Alpha  occ. eigenvalues --   -0.45965  -0.45113  -0.45003  -0.44935  -0.44882
 Alpha  occ. eigenvalues --   -0.44668  -0.44466  -0.44244  -0.44062  -0.44055
 Alpha  occ. eigenvalues --   -0.43973  -0.43912  -0.43761  -0.43729  -0.43501
 Alpha  occ. eigenvalues --   -0.43290  -0.43239  -0.43091  -0.42995  -0.42658
 Alpha  occ. eigenvalues --   -0.42594  -0.42593  -0.42251  -0.42162  -0.41975
 Alpha  occ. eigenvalues --   -0.41802  -0.41599  -0.41410  -0.41313  -0.41226
 Alpha  occ. eigenvalues --   -0.40976  -0.40956  -0.40621  -0.40468  -0.40394
 Alpha  occ. eigenvalues --   -0.40373  -0.40184  -0.40045  -0.39864  -0.39494
 Alpha  occ. eigenvalues --   -0.39402  -0.39305  -0.39094  -0.38879  -0.38855
 Alpha  occ. eigenvalues --   -0.38574  -0.38450  -0.38422  -0.38244  -0.38240
 Alpha  occ. eigenvalues --   -0.38143  -0.37875  -0.37772  -0.37685  -0.37559
 Alpha  occ. eigenvalues --   -0.37516  -0.37037  -0.37032  -0.36698  -0.36513
 Alpha  occ. eigenvalues --   -0.36511  -0.36496  -0.36311  -0.36252  -0.36097
 Alpha  occ. eigenvalues --   -0.36011  -0.35895  -0.35705  -0.35560  -0.35401
 Alpha  occ. eigenvalues --   -0.35027  -0.34778  -0.34291  -0.33970  -0.33900
 Alpha  occ. eigenvalues --   -0.33286  -0.33138  -0.32935  -0.32908  -0.32371
 Alpha  occ. eigenvalues --   -0.32321  -0.31828  -0.31787  -0.31541  -0.31513
 Alpha  occ. eigenvalues --   -0.31345  -0.30920  -0.29611  -0.29223  -0.29044
 Alpha  occ. eigenvalues --   -0.29027  -0.28649  -0.28633  -0.27273  -0.26911
 Alpha  occ. eigenvalues --   -0.26059  -0.25666  -0.25622  -0.25572  -0.25469
 Alpha  occ. eigenvalues --   -0.25240  -0.24953  -0.24721  -0.21264  -0.21083
 Alpha  occ. eigenvalues --   -0.19265  -0.18761
 Alpha virt. eigenvalues --   -0.11671  -0.11346  -0.05198  -0.05061  -0.03887
 Alpha virt. eigenvalues --   -0.03592  -0.02083  -0.01947  -0.00438   0.00078
 Alpha virt. eigenvalues --    0.00460   0.00814   0.01058   0.01604   0.02118

 Mulliken charges:
               1
     1  Mg  12.000001
     2  C    5.999996
     3  C    6.000000
     4  C    6.000005
     5  C    6.000002
     6  N    6.999996
     7  C    6.000007
     8  C    6.000000
     9  C    6.000001
    10  C    5.999999
    11  C    6.000001
    12  C    6.000000
    13  C    6.000000
    14  H    1.000000
    15  N    7.000000
    16  C    5.999995
    17  C    6.000002
    18  C    5.999998
    19  C    5.999995
    20  C    6.000002
    21  C    5.999998
    22  O    7.999996
    23  C    6.000001
    24  N    7.000003
    25  C    5.999995
    26  C    6.000002
    27  C    5.999999
    28  C    6.000004
    29  C    6.000000
    30  C    5.999999
    31  C    5.999999
    32  N    7.000000
    33  C    6.000005
    34  C    6.000005
    35  C    6.000001
    36  C    6.000005
    37  C    6.000000
    38  C    6.000002
    39  O    8.000005
    40  C    6.000000
    41  C    6.000000
    42  O    8.000000
    43  O    8.000000
    44  C    6.000000
    45  H    0.999998
    46  H    1.000000
    47  H    1.000002
    48  H    1.000000
    49  H    1.000000
    50  H    0.999998
    51  H    1.000000
    52  H    1.000000
    53  H    1.000002
    54  H    0.999999
    55  H    0.999999
    56  H    1.000001
    57  H    0.999998
    58  H    0.999989
    59  H    0.999999
    60  H    0.999998
    61  H    0.999998
    62  H    0.999997
    63  H    1.000000
    64  H    1.000001
    65  H    1.000000
    66  H    0.999999
    67  H    1.000001
    68  H    1.000002
    69  H    0.999999
    70  H    1.000000
    71  H    1.000002
    72  H    1.000001
    73  H    1.000003
    74  H    1.000003
    75  H    1.000002
    76  H    1.000001
    77  H    1.000000
    78  H    1.000001
    79  H    1.000001
    80  Mg  12.000000
    81  C    5.999998
    82  C    6.000000
    83  C    6.000001
    84  C    5.999999
    85  N    6.999998
    86  C    6.000002
    87  C    5.999999
    88  C    6.000001
    89  C    5.999998
    90  C    6.000000
    91  C    6.000000
    92  C    6.000000
    93  H    1.000000
    94  N    7.000000
    95  C    5.999997
    96  C    5.999998
    97  C    5.999998
    98  C    5.999997
    99  C    6.000000
   100  C    5.999999
   101  O    7.999997
   102  C    6.000000
   103  N    6.999999
   104  C    5.999997
   105  C    6.000001
   106  C    5.999999
   107  C    6.000002
   108  C    6.000000
   109  C    6.000000
   110  C    6.000000
   111  N    7.000000
   112  C    6.000003
   113  C    6.000004
   114  C    5.999998
   115  C    6.000002
   116  C    6.000002
   117  C    6.000001
   118  O    8.000001
   119  C    6.000000
   120  C    6.000000
   121  O    8.000000
   122  O    8.000000
   123  C    6.000000
   124  H    0.999999
   125  H    1.000000
   126  H    1.000001
   127  H    1.000000
   128  H    0.999999
   129  H    0.999999
   130  H    1.000000
   131  H    1.000000
   132  H    1.000001
   133  H    1.000000
   134  H    1.000000
   135  H    1.000000
   136  H    0.999999
   137  H    0.999999
   138  H    0.999999
   139  H    0.999999
   140  H    0.999999
   141  H    1.000000
   142  H    1.000000
   143  H    1.000000
   144  H    1.000000
   145  H    0.999999
   146  H    1.000000
   147  H    1.000001
   148  H    1.000000
   149  H    1.000000
   150  H    1.000000
   151  H    1.000001
   152  H    0.999999
   153  H    1.000003
   154  H    0.999997
   155  H    1.000001
   156  H    1.000000
   157  H    1.000000
   158  H    1.000000
 Sum of Mulliken charges = 624.00000

 Dipole moment (field-independent basis, Debye):
    X=              0.0034    Y=              0.0003    Z=              0.0002  Tot=              0.0034
 Quadrupole moment (field-independent basis, Debye-Ang):
   XX=              0.0146   YY=              0.0002   ZZ=             -0.0002
   XY=             -0.0022   XZ=             -0.0049   YZ=             -0.0001

 Normal termination of Gaussian 16 at Thu Oct 14 15:55:11 2021.
