 Gaussian 16, Revision A.03,
 Gaussian 16:  ES64L-G16RevA.03 25-Dec-2016

 --------------------------------------------------------
 #p PBE1PBE/Def2SVP td=(nstates=5) density=(transition=1)
 --------------------------------------------------------

 --------------------------------
 TDDFT excited states in gaussian
 --------------------------------
 Symbolic Z-matrix:
 Charge =  0 Multiplicity = 1

                         Standard orientation:
 ---------------------------------------------------------------------
 Center     Atomic      Atomic             Coordinates (Angstroms)
 Number     Number       Type             X           Y           Z
 ---------------------------------------------------------------------
      1         12           0        8.690162    0.473495   -0.104779
      2          6           0        6.436452   -2.172251   -0.980697
      3          6           0        6.535407    2.661492   -1.862269
      4          6           0       10.306331    3.054276    1.305134
      5          6           0       10.249756   -1.699160    2.077104
      6          7           0        6.698094    0.286672   -1.311636
      7          6           0        6.029364   -0.897117   -1.451712
      8          6           0        4.639202   -0.634643   -2.008852
      9          6           0        4.864987    0.850965   -2.516176
     10          6           0        6.101902    1.362388   -1.881745
     11          6           0        4.939864    1.076740   -4.063646
     12          6           0        3.559784   -0.918902   -0.915604
     13          6           0        2.256187   -1.737771   -1.288254
     14          1           0        0.874129   -1.073055   -1.156207
     15          7           0        8.611248    2.485307   -0.366905
     16          6           0        7.673372    3.221649   -1.137728
     17          6           0        7.977074    4.639909   -1.088133
     18          6           0        9.081637    4.737950   -0.147447
     19          6           0        9.366801    3.382814    0.285477
     20          6           0        7.136468    5.637448   -1.769648
     21          6           0        9.751626    6.075012    0.214124
     22          8           0        9.222542    7.116130   -0.273738
     23          6           0       10.998220    6.239772    1.109192
     24          7           0        9.928512    0.761015    1.681604
     25          6           0       10.599920    1.868353    1.933275
     26          6           0       11.482028    1.630153    3.116060
     27          6           0       11.477656    0.087547    3.287734
     28          6           0       10.404739   -0.335674    2.332165
     29          6           0       12.954773    2.224897    3.140246
     30          6           0       11.209697   -0.438817    4.791088
     31          6           0       12.338724   -1.212249    5.515345
     32          7           0        8.574819   -1.518764    0.314659
     33          6           0        9.254483   -2.261184    1.204859
     34          6           0        8.837945   -3.615345    1.179823
     35          6           0        7.758273   -3.622930    0.293645
     36          6           0        7.595400   -2.300055   -0.189818
     37          6           0        9.357224   -4.802567    1.886295
     38          6           0        6.770069   -4.512103   -0.234456
     39          8           0        6.585298   -5.678118    0.033528
     40          6           0        5.775647   -3.520483   -1.114634
     41          6           0        5.742227   -3.962508   -2.513831
     42          8           0        6.723651   -4.313460   -3.181032
     43          8           0        4.428787   -3.876385   -2.923683
     44          6           0        4.151071   -4.276080   -4.302240
     45          1           0        5.913465    3.385824   -2.390445
     46          1           0       10.787518    3.854819    1.870233
     47          1           0       10.852080   -2.464695    2.571053
     48          1           0        4.553171   -1.241633   -2.910474
     49          1           0        4.027729    1.313560   -1.992261
     50          1           0        5.894643    1.560450   -4.274766
     51          1           0        4.167471    1.737479   -4.456642
     52          1           0        4.957361    0.171810   -4.671782
     53          1           0        3.291679    0.107158   -0.664750
     54          1           0        3.924434   -1.363864    0.009941
     55          1           0        2.305565   -2.630578   -0.665179
     56          1           0        2.403069   -2.172974   -2.276283
     57          1           0        6.113047    5.446187   -1.446105
     58          1           0        7.146489    5.459736   -2.844817
     59          1           0        7.427700    6.685661   -1.697390
     60          1           0       10.701976    6.033780    2.137871
     61          1           0       11.446823    7.172203    0.768094
     62          1           0       11.653373    5.444130    0.752868
     63          1           0       11.002217    2.118932    3.963082
     64          1           0       12.413022   -0.190902    2.802123
     65          1           0       13.164835    2.378028    4.199092
     66          1           0       12.964825    3.145340    2.556686
     67          1           0       13.605923    1.450902    2.733629
     68          1           0       10.316951   -1.055580    4.688919
     69          1           0       10.857110    0.411251    5.375038
     70          1           0       11.993087   -2.143423    5.962304
     71          1           0       12.762043   -0.566612    6.285252
     72          1           0       13.198825   -1.427642    4.881089
     73          1           0        9.036450   -5.728450    1.409912
     74          1           0        8.867066   -4.624502    2.843622
     75          1           0       10.397596   -4.609247    2.147435
     76          1           0        4.804642   -3.406162   -0.634115
     77          1           0        4.562095   -5.260336   -4.527884
     78          1           0        4.548396   -3.528088   -4.989928
     79          1           0        3.071026   -4.339510   -4.435046
     80         12           0       -8.702929    0.360458   -0.195578
     81          6           0       -6.333083   -2.264912   -0.779416
     82          6           0       -6.839847    2.377733   -1.995887
     83          6           0      -10.535252    2.794464    1.109274
     84          6           0      -10.381521   -2.004595    2.066630
     85          7           0       -6.825272    0.057499   -1.299620
     86          6           0       -5.988534   -1.072255   -1.394857
     87          6           0       -4.699583   -0.836955   -2.269715
     88          6           0       -4.991016    0.730837   -2.692473
     89          6           0       -6.289928    1.112671   -1.989598
     90          6           0       -3.811039    1.701975   -2.257731
     91          6           0       -4.489268   -1.836850   -3.459645
     92          6           0       -3.507464   -1.388945   -4.535793
     93          1           0       -2.225564   -2.236617   -4.629414
     94          7           0       -8.744957    2.314099   -0.497170
     95          6           0       -7.914958    3.052551   -1.307541
     96          6           0       -8.269747    4.455947   -1.328696
     97          6           0       -9.383604    4.545657   -0.403008
     98          6           0       -9.637961    3.135365    0.061083
     99          6           0       -7.674475    5.495136   -2.157017
    100          6           0      -10.211740    5.748560    0.014238
    101          8           0      -11.191322    5.684087    0.702700
    102          6           0       -9.660846    7.077008   -0.431510
    103          7           0      -10.205440    0.402829    1.420217
    104          6           0      -10.827933    1.570447    1.720671
    105          6           0      -11.945481    1.349151    2.774819
    106          6           0      -11.943734   -0.210119    2.942770
    107          6           0      -10.802664   -0.658988    2.050321
    108          6           0      -11.828315    2.098729    4.145585
    109          6           0      -13.271246   -0.949620    2.550252
    110          6           0      -14.379049   -0.827611    3.619873
    111          7           0       -8.468332   -1.662501    0.548313
    112          6           0       -9.231355   -2.472908    1.357043
    113          6           0       -8.685080   -3.771492    1.350526
    114          6           0       -7.560789   -3.759969    0.613383
    115          6           0       -7.413880   -2.425518    0.127110
    116          6           0       -9.392549   -4.928707    2.043547
    117          6           0       -6.380545   -4.475932    0.118713
    118          8           0       -6.024799   -5.612995    0.292337
    119          6           0       -5.525448   -3.480544   -0.801570
    120          6           0       -4.249183   -3.193888   -0.076766
    121          8           0       -3.964471   -2.365963    0.759006
    122          8           0       -3.340585   -4.091114   -0.602183
    123          6           0       -1.954548   -4.029484   -0.080314
    124          1           0       -6.262326    3.134734   -2.530337
    125          1           0      -10.996782    3.652118    1.604570
    126          1           0      -11.052011   -2.604113    2.686718
    127          1           0       -3.843207   -0.813462   -1.595591
    128          1           0       -5.051186    0.777479   -3.780062
    129          1           0       -3.586795    2.385914   -3.076147
    130          1           0       -2.877487    1.272386   -1.895346
    131          1           0       -4.151326    2.382290   -1.477646
    132          1           0       -5.522719   -1.949603   -3.789894
    133          1           0       -4.222228   -2.868526   -3.229606
    134          1           0       -3.212417   -0.358363   -4.340455
    135          1           0       -3.962686   -1.554697   -5.511824
    136          1           0       -8.533954    5.733285   -2.783621
    137          1           0       -6.803015    5.119702   -2.693621
    138          1           0       -7.359787    6.418967   -1.672046
    139          1           0      -10.126133    7.361153   -1.375273
    140          1           0       -8.594741    7.196388   -0.236292
    141          1           0       -9.906395    7.731893    0.404038
    142          1           0      -12.877841    1.504958    2.231294
    143          1           0      -11.591965   -0.457179    3.944675
    144          1           0      -11.797393    1.472620    5.037758
    145          1           0      -12.775240    2.625285    4.262536
    146          1           0      -10.980517    2.777791    4.236150
    147          1           0      -13.067433   -2.012649    2.426653
    148          1           0      -13.549103   -0.529077    1.582793
    149          1           0      -13.945359   -0.590927    4.591660
    150          1           0      -14.912303   -1.778053    3.603726
    151          1           0      -15.083550   -0.014404    3.442762
    152          1           0       -9.138967   -5.881296    1.578261
    153          1           0      -10.466504   -4.742849    2.026795
    154          1           0       -9.161827   -4.930664    3.109078
    155          1           0       -5.352831   -3.896842   -1.794327
    156          1           0       -1.632545   -5.066735    0.011164
    157          1           0       -1.859219   -3.529103    0.883227
    158          1           0       -1.480664   -3.500587   -0.907821
 ---------------------------------------------------------------------

 SCF Done:  E(RPBE1PBE) =  -4067.36806153     A.U. after   16 cycles

 Excitation energies and oscillator strengths:

 Excited State   1:      Singlet-A      1.7533 eV  707.15 nm  f=0.0000  <S**2>=0.000
     312 -> 313        0.70708
 This state for optimization and/or second-order correction.
 Total Energy, E(TD-HF/TD-DFT) =  -4067.30362879
 Copying the excited state density for this state as the 1-particle RhoCI density.

 Excited State   2:      Singlet-A      1.8550 eV  668.38 nm  f=0.0181  <S**2>=0.000
     309 -> 315       -0.11017
     310 -> 316       -0.13082
     311 -> 313       -0.42987
     312 -> 314        0.54420

 Excited State   3:      Singlet-A      1.8686 eV  663.50 nm  f=0.7188  <S**2>=0.000
     309 -> 315        0.14296
     310 -> 316       -0.10616
     311 -> 313        0.54288
     312 -> 314        0.42968

 Excited State   4:      Singlet-A      1.9654 eV  630.85 nm  f=0.0000  <S**2>=0.000
     311 -> 314        0.70708

 Excited State   5:      Singlet-A      2.2250 eV  557.24 nm  f=0.1438  <S**2>=0.000
     310 -> 314        0.65754
     312 -> 316        0.23879

 The electronic state is 1-A.
 Alpha  occ. eigenvalues --  -46.92359 -46.92032 -19.26963 -19.24498 -19.20808
 Alpha  occ. eigenvalues --  -19.20099 -19.20029 -19.19316 -19.19205 -19.18488
 Alpha  occ. eigenvalues --  -14.41753 -14.41469 -14.41029 -14.40910 -14.39672
 Alpha  occ. eigenvalues --  -14.39514 -14.39317 -14.38555 -10.37118 -10.35953
 Alpha  occ. eigenvalues --  -10.32649 -10.32539 -10.32437 -10.31928 -10.29726
 Alpha  occ. eigenvalues --  -10.29016 -10.28727 -10.28660 -10.28554 -10.28371
 Alpha  occ. eigenvalues --  -10.28345 -10.28187 -10.28150 -10.28117 -10.28106
 Alpha  occ. eigenvalues --  -10.28003 -10.27896 -10.27860 -10.27499 -10.27027
 Alpha  occ. eigenvalues --  -10.26832 -10.26830 -10.26827 -10.26773 -10.26756
 Alpha  occ. eigenvalues --  -10.26482 -10.26401 -10.26380 -10.26232 -10.25864
 Alpha  occ. eigenvalues --  -10.25736 -10.25567 -10.25537 -10.25467 -10.25404
 Alpha  occ. eigenvalues --  -10.25377 -10.25277 -10.25255 -10.25154 -10.24972
 Alpha  occ. eigenvalues --  -10.24930 -10.24871 -10.24865 -10.24753 -10.24726
 Alpha  occ. eigenvalues --  -10.24627 -10.24484 -10.24471 -10.24468 -10.24429
 Alpha  occ. eigenvalues --  -10.24405 -10.24337 -10.24221 -10.24061 -10.24029
 Alpha  occ. eigenvalues --  -10.23772 -10.23735 -10.23535 -10.23413 -10.23300
 Alpha  occ. eigenvalues --  -10.23051 -10.23038 -10.23031 -10.22613 -10.22428
 Alpha  occ. eigenvalues --  -10.22352  -3.14493  -3.14153  -1.87322  -1.86990
 Alpha  occ. eigenvalues --   -1.86854  -1.86733  -1.86508  -1.86400  -1.11341
 Alpha  occ. eigenvalues --   -1.10417  -1.06164  -1.05639  -1.05549  -1.02998
 Alpha  occ. eigenvalues --   -1.02262  -1.02049  -1.00178  -0.99468  -0.98510
 Alpha  occ. eigenvalues --   -0.98422  -0.98031  -0.97169  -0.97102  -0.96255
 Alpha  occ. eigenvalues --   -0.87563  -0.87386  -0.83729  -0.83259  -0.82687
 Alpha  occ. eigenvalues --   -0.82572  -0.82514  -0.82402  -0.82365  -0.81892
 Alpha  occ. eigenvalues --   -0.81529  -0.81229  -0.80420  -0.80414  -0.79022
 Alpha  occ. eigenvalues --   -0.78253  -0.78178  -0.77494  -0.77045  -0.76487
 Alpha  occ. eigenvalues --   -0.76320  -0.76275  -0.75769  -0.75083  -0.74875
 Alpha  occ. eigenvalues --   -0.74456  -0.72644  -0.72470  -0.72030  -0.71317
 Alpha  occ. eigenvalues --   -0.71301  -0.70987  -0.70669  -0.69888  -0.69792
 Alpha  occ. eigenvalues --   -0.69245  -0.67738  -0.67248  -0.66743  -0.65785
 Alpha  occ. eigenvalues --   -0.64211  -0.64031  -0.63916  -0.63163  -0.63011
 Alpha  occ. eigenvalues --   -0.62246  -0.61482  -0.61303  -0.60641  -0.60245
 Alpha  occ. eigenvalues --   -0.59734  -0.59563  -0.59373  -0.59175  -0.58889
 Alpha  occ. eigenvalues --   -0.58497  -0.57586  -0.56029  -0.54787  -0.54671
 Alpha  occ. eigenvalues --   -0.54625  -0.54130  -0.54111  -0.53557  -0.53417
 Alpha  occ. eigenvalues --   -0.53013  -0.52690  -0.52536  -0.52286  -0.51565
 Alpha  occ. eigenvalues --   -0.50844  -0.50749  -0.50501  -0.50244  -0.50191
 Alpha  occ. eigenvalues --   -0.49635  -0.49511  -0.49196  -0.49053  -0.48856
 Alpha  occ. eigenvalues --   -0.48556  -0.48425  -0.48304  -0.48042  -0.47640
 Alpha  occ. eigenvalues --   -0.47337  -0.47164  -0.46970  -0.46687  -0.46573
 Alpha  occ. eigenvalues --   -0.46350  -0.46281  -0.46038  -0.45967  -0.45930
 Alpha  occ. eigenvalues --   -0.45497  -0.45276  -0.45208  -0.45013  -0.44860
 Alpha  occ. eigenvalues --   -0.44656  -0.44603  -0.44478  -0.44319  -0.44294
 Alpha  occ. eigenvalues --   -0.44115  -0.44103  -0.43790  -0.43542  -0.43460
 Alpha  occ. eigenvalues --   -0.43216  -0.43152  -0.42690  -0.42652  -0.42522
 Alpha  occ. eigenvalues --   -0.42481  -0.42447  -0.42439  -0.42399  -0.42217
 Alpha  occ. eigenvalues --   -0.41820  -0.41797  -0.41469  -0.41456  -0.41228
 Alpha  occ. eigenvalues --   -0.41067  -0.40855  -0.40777  -0.40616  -0.40482
 Alpha  occ. eigenvalues --   -0.40468  -0.40258  -0.40143  -0.40059  -0.39960
 Alpha  occ. eigenvalues --   -0.39857  -0.39808  -0.39677  -0.39521  -0.39442
 Alpha  occ. eigenvalues --   -0.38773  -0.38697  -0.38646  -0.38528  -0.38432
 Alpha  occ. eigenvalues --   -0.38319  -0.38159  -0.38049  -0.37996  -0.37868
 Alpha  occ. eigenvalues --   -0.37727  -0.37677  -0.37472  -0.37269  -0.36969
 Alpha  occ. eigenvalues --   -0.36784  -0.36486  -0.36465  -0.36200  -0.36043
 Alpha  occ. eigenvalues --   -0.35982  -0.35846  -0.35834  -0.35688  -0.35404
 Alpha  occ. eigenvalues --   -0.35403  -0.35249  -0.34382  -0.34070  -0.33877
 Alpha  occ. eigenvalues --   -0.33810  -0.33344  -0.33130  -0.32815  -0.32740
 Alpha  occ. eigenvalues --   -0.32695  -0.32140  -0.31628  -0.31585  -0.31481
 Alpha  occ. eigenvalues --   -0.30944  -0.30685  -0.30008  -0.29426  -0.29356
 Alpha  occ. eigenvalues --   -0.29163  -0.28710  -0.28298  -0.27069  -0.26910
 Alpha  occ. eigenvalues --   -0.26182  -0.25809  -0.25792  -0.25776  -0.25510
 Alpha  occ. eigenvalues --   -0.25392  -0.25268  -0.24972  -0.21219  -0.20611
 Alpha  occ. eigenvalues --   -0.19018  -0.18639
 Alpha virt. eigenvalues --   -0.11422  -0.11015  -0.05294  -0.04760  -0.04000
 Alpha virt. eigenvalues --   -0.03350  -0.02116  -0.01812  -0.00630  -0.00283
 Alpha virt. eigenvalues --   -0.00268   0.00194   0.00831   0.01363   0.01644

 Mulliken charges:
               1
     1  Mg  11.999991
     2  C    6.000001
     3  C    6.000020
     4  C    6.000013
     5  C    5.999950
     6  N    7.000004
     7  C    6.000037
     8  C    5.999987
     9  C    6.000019
    10  C    5.999950
    11  C    6.000001
    12  C    5.999990
    13  C    5.999993
    14  H    0.999980
    15  N    7.000001
    16  C    5.999930
    17  C    5.999977
    18  C    5.999982
    19  C    5.999957
    20  C    6.000005
    21  C    5.999979
    22  O    7.999964
    23  C    5.999994
    24  N    6.999988
    25  C    5.999962
    26  C    6.000018
    27  C    5.999984
    28  C    6.000048
    29  C    6.000002
    30  C    5.999998
    31  C    6.000000
    32  N    7.000005
    33  C    6.000048
    34  C    6.000027
    35  C    6.000010
    36  C    6.000029
    37  C    6.000003
    38  C    6.000025
    39  O    8.000035
    40  C    6.000005
    41  C    6.000007
    42  O    8.000008
    43  O    8.000004
    44  C    5.999997
    45  H    0.999986
    46  H    0.999981
    47  H    1.000000
    48  H    0.999999
    49  H    0.999997
    50  H    1.000007
    51  H    0.999998
    52  H    0.999982
    53  H    1.000021
    54  H    0.999996
    55  H    0.999992
    56  H    1.000000
    57  H    0.999970
    58  H    0.999968
    59  H    0.999979
    60  H    0.999985
    61  H    0.999980
    62  H    0.999989
    63  H    0.999995
    64  H    1.000002
    65  H    0.999988
    66  H    1.000008
    67  H    0.999990
    68  H    0.999990
    69  H    1.000010
    70  H    0.999994
    71  H    1.000005
    72  H    1.000001
    73  H    1.000013
    74  H    1.000023
    75  H    1.000026
    76  H    1.000015
    77  H    1.000002
    78  H    1.000009
    79  H    1.000007
    80  Mg  12.000006
    81  C    5.999993
    82  C    6.000020
    83  C    6.000002
    84  C    5.999988
    85  N    6.999999
    86  C    6.000014
    87  C    6.000014
    88  C    6.000001
    89  C    6.000000
    90  C    6.000037
    91  C    6.000004
    92  C    5.999995
    93  H    1.000009
    94  N    7.000000
    95  C    5.999979
    96  C    6.000013
    97  C    5.999989
    98  C    6.000001
    99  C    5.999998
   100  C    5.999995
   101  O    7.999990
   102  C    6.000001
   103  N    6.999991
   104  C    6.000000
   105  C    6.000006
   106  C    5.999993
   107  C    6.000036
   108  C    6.000002
   109  C    5.999996
   110  C    6.000006
   111  N    7.000000
   112  C    6.000032
   113  C    6.000014
   114  C    6.000010
   115  C    6.000024
   116  C    6.000005
   117  C    6.000011
   118  O    8.000021
   119  C    5.999999
   120  C    6.000003
   121  O    8.000013
   122  O    8.000006
   123  C    6.000004
   124  H    1.000003
   125  H    0.999998
   126  H    1.000007
   127  H    0.999961
   128  H    1.000004
   129  H    1.000000
   130  H    0.999942
   131  H    0.999999
   132  H    1.000000
   133  H    0.999999
   134  H    1.000000
   135  H    1.000003
   136  H    0.999997
   137  H    0.999996
   138  H    0.999997
   139  H    0.999997
   140  H    0.999998
   141  H    0.999998
   142  H    1.000003
   143  H    1.000004
   144  H    0.999997
   145  H    1.000001
   146  H    1.000003
   147  H    1.000000
   148  H    1.000004
   149  H    1.000001
   150  H    1.000001
   151  H    1.000004
   152  H    1.000010
   153  H    1.000010
   154  H    1.000014
   155  H    1.000006
   156  H    0.999999
   157  H    1.000006
   158  H    0.999987
 Sum of Mulliken charges = 624.00000

 Dipole moment (field-independent basis, Debye):
    X=             -0.0149    Y=             -0.0196    Z=              0.0028  Tot=              0.0248
 Quadrupole moment (field-independent basis, Debye-Ang):
   XX=             -0.0109   YY=             -0.0173   ZZ=              0.0017
   XY=             -0.0908   XZ=             -0.0048   YZ=              0.0006

 Normal termination of Gaussian 16 at Thu Oct 14 10:13:31 2021.
