 Gaussian 16, Revision A.03,
 Gaussian 16:  ES64L-G16RevA.03 25-Dec-2016

 --------------------------------------------------------
 #p PBE1PBE/Def2SVP td=(nstates=5) density=(transition=1)
 --------------------------------------------------------

 --------------------------------
 TDDFT excited states in gaussian
 --------------------------------
 Symbolic Z-matrix:
 Charge =  0 Multiplicity = 1

                         Standard orientation:
 ---------------------------------------------------------------------
 Center     Atomic      Atomic             Coordinates (Angstroms)
 Number     Number       Type             X           Y           Z
 ---------------------------------------------------------------------
      1         12           0       22.796852   -0.716631    0.235813
      2          6           0       22.259375    2.254744   -1.585237
      3          6           0       23.622151    1.201431    2.965526
      4          6           0       23.405587   -3.498607    2.016423
      5          6           0       22.514994   -2.596497   -2.701847
      6          7           0       22.767791    1.441705    0.585132
      7          6           0       22.536646    2.493522   -0.195281
      8          6           0       22.644056    3.881971    0.468978
      9          6           0       23.364931    3.394816    1.817768
     10          6           0       23.288101    1.888377    1.768879
     11          6           0       24.787397    3.880507    1.955716
     12          6           0       21.212444    4.605711    0.745118
     13          6           0       21.309779    6.133540    0.786519
     14          1           0       20.467581    6.852320   -0.298804
     15          7           0       23.278230   -1.135560    2.296566
     16          6           0       23.631582   -0.150278    3.251528
     17          6           0       23.678692   -0.813998    4.534878
     18          6           0       23.595789   -2.183134    4.297838
     19          6           0       23.397360   -2.350394    2.823917
     20          6           0       24.011914   -0.112426    5.838028
     21          6           0       23.607067   -3.366617    5.238052
     22          8           0       23.438753   -4.469660    4.806436
     23          6           0       23.748309   -3.204412    6.718687
     24          7           0       23.139397   -2.727535   -0.278005
     25          6           0       23.302221   -3.715359    0.649040
     26          6           0       23.297702   -5.056205   -0.136369
     27          6           0       22.492594   -4.803147   -1.398387
     28          6           0       22.721823   -3.279021   -1.529784
     29          6           0       24.731158   -5.424122   -0.516742
     30          6           0       21.066944   -5.206823   -1.317298
     31          6           0       20.260588   -4.812560   -0.104684
     32          7           0       22.426730   -0.322696   -1.751788
     33          6           0       22.345862   -1.159665   -2.848795
     34          6           0       22.042666   -0.351437   -4.039993
     35          6           0       21.979449    0.971750   -3.569613
     36          6           0       22.210764    0.935075   -2.221605
     37          6           0       21.900147   -0.844493   -5.414958
     38          6           0       21.630912    2.326379   -3.904873
     39          8           0       21.240755    2.835481   -4.996459
     40          6           0       21.782363    3.199441   -2.570754
     41          6           0       22.836079    4.236996   -2.859697
     42          8           0       23.886945    3.972348   -3.364020
     43          8           0       22.527542    5.558308   -2.436772
     44          6           0       23.682324    6.507079   -2.425154
     45          1           0       23.937516    1.791872    3.827626
     46          1           0       23.695508   -4.415746    2.534094
     47          1           0       22.243289   -3.129657   -3.615577
     48          1           0       23.201990    4.562061   -0.175883
     49          1           0       22.745742    3.817759    2.609822
     50          1           0       24.744702    4.761498    2.595929
     51          1           0       25.278060    4.033809    0.994311
     52          1           0       25.259850    3.124332    2.582599
     53          1           0       20.811796    4.278343    1.705000
     54          1           0       20.474784    4.291125    0.006604
     55          1           0       22.385601    6.283066    0.692847
     56          1           0       21.070336    6.533844    1.771486
     57          1           0       23.818313    0.939450    5.631288
     58          1           0       25.091040   -0.244180    5.911628
     59          1           0       23.390776   -0.454242    6.666197
     60          1           0       22.769502   -2.780623    6.943927
     61          1           0       24.518106   -2.497563    7.027146
     62          1           0       23.905374   -4.173712    7.193099
     63          1           0       22.924481   -5.917667    0.416345
     64          1           0       22.837207   -5.333275   -2.285634
     65          1           0       25.082587   -5.251391   -1.534026
     66          1           0       24.862512   -6.483300   -0.295649
     67          1           0       25.403297   -4.891024    0.156634
     68          1           0       20.938736   -6.279161   -1.466677
     69          1           0       20.611245   -4.724008   -2.181579
     70          1           0       19.533423   -4.082352   -0.460990
     71          1           0       20.694745   -4.373525    0.794058
     72          1           0       19.684159   -5.681172    0.213268
     73          1           0       22.884510   -1.152073   -5.767680
     74          1           0       21.465736    0.001128   -5.948048
     75          1           0       21.275527   -1.737824   -5.456411
     76          1           0       20.777460    3.574791   -2.376523
     77          1           0       23.902350    6.847066   -3.437082
     78          1           0       24.587462    6.077138   -1.993813
     79          1           0       23.517981    7.452462   -1.908894
     80         12           0      -22.196764   -0.649834   -0.100837
     81          6           0      -23.633079    2.101363    1.692908
     82          6           0      -20.339177    1.475507   -1.778300
     83          6           0      -21.614287   -3.183074   -2.157010
     84          6           0      -24.655524   -2.747428    1.655105
     85          7           0      -21.986266    1.537036   -0.002970
     86          6           0      -22.678772    2.492233    0.767472
     87          6           0      -22.233859    3.977656    0.488716
     88          6           0      -21.074815    3.662715   -0.642238
     89          6           0      -21.090813    2.150050   -0.838689
     90          6           0      -21.354017    4.410195   -2.016201
     91          6           0      -21.761390    4.795992    1.740537
     92          6           0      -20.957362    6.056121    1.443438
     93          1           0      -21.658102    7.371641    1.829378
     94          7           0      -21.038605   -0.844603   -1.691488
     95          6           0      -20.277368    0.128592   -2.295080
     96          6           0      -19.509617   -0.383759   -3.410381
     97          6           0      -19.901804   -1.778605   -3.489239
     98          6           0      -20.856747   -1.995224   -2.344617
     99          6           0      -18.524209    0.342019   -4.199427
    100          6           0      -19.447441   -2.867890   -4.445215
    101          8           0      -19.752973   -4.022794   -4.342424
    102          6           0      -18.635763   -2.379644   -5.615576
    103          7           0      -23.068399   -2.669874   -0.273512
    104          6           0      -22.595389   -3.521033   -1.218443
    105          6           0      -23.235976   -4.927052   -1.070557
    106          6           0      -24.089863   -4.770589    0.235556
    107          6           0      -23.897992   -3.313308    0.609059
    108          6           0      -24.073928   -5.488011   -2.269623
    109          6           0      -23.694964   -5.701513    1.435829
    110          6           0      -24.194454   -7.154246    1.273711
    111          7           0      -23.814847   -0.451934    1.328643
    112          6           0      -24.628062   -1.353758    1.975483
    113          6           0      -25.383220   -0.672473    2.950353
    114          6           0      -25.105411    0.640358    2.867664
    115          6           0      -24.133824    0.780008    1.830688
    116          6           0      -26.275340   -1.427312    3.927223
    117          6           0      -25.379900    2.008955    3.316969
    118          8           0      -26.153502    2.421810    4.142017
    119          6           0      -24.417018    3.012807    2.520696
    120          6           0      -25.280916    3.826846    1.611089
    121          8           0      -25.687311    3.623991    0.489158
    122          8           0      -25.529697    4.989016    2.314008
    123          6           0      -26.360500    6.017065    1.643092
    124          1           0      -19.722862    2.105824   -2.422563
    125          1           0      -21.494907   -3.924170   -2.951002
    126          1           0      -25.242973   -3.519074    2.158050
    127          1           0      -23.047602    4.471466   -0.042649
    128          1           0      -20.126675    4.045463   -0.263846
    129          1           0      -20.426088    4.848277   -2.383478
    130          1           0      -22.138127    5.165682   -2.058624
    131          1           0      -21.590624    3.687650   -2.796652
    132          1           0      -21.221647    4.015020    2.277714
    133          1           0      -22.506843    5.090748    2.479456
    134          1           0      -20.739292    6.094816    0.376547
    135          1           0      -20.078947    6.067575    2.088103
    136          1           0      -17.629560   -0.211461   -3.914269
    137          1           0      -18.513690    1.400506   -3.938984
    138          1           0      -18.602877    0.295562   -5.285403
    139          1           0      -17.575487   -2.454888   -5.374592
    140          1           0      -19.069653   -1.515090   -6.118795
    141          1           0      -18.959244   -3.035746   -6.423163
    142          1           0      -22.426131   -5.568343   -0.721433
    143          1           0      -25.147093   -4.826735   -0.024645
    144          1           0      -25.114907   -5.734388   -2.058432
    145          1           0      -23.641774   -6.464996   -2.484904
    146          1           0      -24.097820   -4.857798   -3.158639
    147          1           0      -24.140069   -5.315009    2.351986
    148          1           0      -22.609732   -5.617629    1.508434
    149          1           0      -25.030314   -7.193546    0.574948
    150          1           0      -24.452839   -7.492314    2.277160
    151          1           0      -23.459585   -7.833747    0.840996
    152          1           0      -26.399727   -0.872362    4.857158
    153          1           0      -25.848535   -2.415483    4.099155
    154          1           0      -27.236680   -1.653680    3.465513
    155          1           0      -23.830853    3.633098    3.199163
    156          1           0      -27.009542    6.418705    2.421150
    157          1           0      -26.965598    5.638249    0.819542
    158          1           0      -25.572080    6.706167    1.338797
 ---------------------------------------------------------------------

 SCF Done:  E(RPBE1PBE) =  -4067.37947533     A.U. after   16 cycles

 Excitation energies and oscillator strengths:

 Excited State   1:      Singlet-A      1.8249 eV  679.41 nm  f=0.3536  <S**2>=0.000
     309 -> 315       -0.17197
     311 -> 313        0.69444
     311 <- 313       -0.10917
 This state for optimization and/or second-order correction.
 Total Energy, E(TD-HF/TD-DFT) =  -4067.31241202
 Copying the excited state density for this state as the 1-particle RhoCI density.

 Excited State   2:      Singlet-A      1.8601 eV  666.53 nm  f=0.3886  <S**2>=0.000
     310 -> 316       -0.16830
     312 -> 314        0.69335
     312 <- 314       -0.10831

 Excited State   3:      Singlet-A      1.8622 eV  665.80 nm  f=0.0000  <S**2>=0.000
     312 -> 313        0.70711

 Excited State   4:      Singlet-A      2.1010 eV  590.13 nm  f=0.0000  <S**2>=0.000
     311 -> 314        0.70711

 Excited State   5:      Singlet-A      2.1781 eV  569.24 nm  f=0.1117  <S**2>=0.000
     309 -> 313        0.65716
     311 -> 315        0.25109

 The electronic state is 1-A.
 Alpha  occ. eigenvalues --  -46.92054 -46.91985 -19.25203 -19.24487 -19.20279
 Alpha  occ. eigenvalues --  -19.20074 -19.19285 -19.19167 -19.19066 -19.18755
 Alpha  occ. eigenvalues --  -14.42741 -14.41698 -14.41093 -14.40866 -14.39270
 Alpha  occ. eigenvalues --  -14.39266 -14.38915 -14.38512 -10.36487 -10.35929
 Alpha  occ. eigenvalues --  -10.32404 -10.32141 -10.32086 -10.31891 -10.29368
 Alpha  occ. eigenvalues --  -10.29056 -10.28968 -10.28847 -10.28669 -10.28601
 Alpha  occ. eigenvalues --  -10.28536 -10.28404 -10.28291 -10.28109 -10.27973
 Alpha  occ. eigenvalues --  -10.27955 -10.27854 -10.27817 -10.27520 -10.26865
 Alpha  occ. eigenvalues --  -10.26789 -10.26748 -10.26734 -10.26703 -10.26682
 Alpha  occ. eigenvalues --  -10.26438 -10.26406 -10.26348 -10.26188 -10.26145
 Alpha  occ. eigenvalues --  -10.25986 -10.25852 -10.25600 -10.25503 -10.25425
 Alpha  occ. eigenvalues --  -10.25338 -10.25272 -10.24936 -10.24925 -10.24902
 Alpha  occ. eigenvalues --  -10.24755 -10.24704 -10.24692 -10.24605 -10.24584
 Alpha  occ. eigenvalues --  -10.24548 -10.24430 -10.24425 -10.24422 -10.24389
 Alpha  occ. eigenvalues --  -10.24375 -10.23806 -10.23691 -10.23650 -10.23382
 Alpha  occ. eigenvalues --  -10.23376 -10.23257 -10.23098 -10.23016 -10.23012
 Alpha  occ. eigenvalues --  -10.23006 -10.22839 -10.22599 -10.22435 -10.22388
 Alpha  occ. eigenvalues --  -10.21931  -3.14132  -3.14106  -1.86996  -1.86943
 Alpha  occ. eigenvalues --   -1.86483  -1.86461  -1.86371  -1.86353  -1.10400
 Alpha  occ. eigenvalues --   -1.10393  -1.06656  -1.06127  -1.05519  -1.02265
 Alpha  occ. eigenvalues --   -1.02245  -1.01593  -0.99856  -0.98465  -0.97998
 Alpha  occ. eigenvalues --   -0.97987  -0.97864  -0.97124  -0.96440  -0.96197
 Alpha  occ. eigenvalues --   -0.87442  -0.87343  -0.84286  -0.83744  -0.83219
 Alpha  occ. eigenvalues --   -0.83017  -0.82532  -0.82301  -0.82019  -0.81480
 Alpha  occ. eigenvalues --   -0.81321  -0.81186  -0.80823  -0.80370  -0.78918
 Alpha  occ. eigenvalues --   -0.78189  -0.77926  -0.77459  -0.76850  -0.76588
 Alpha  occ. eigenvalues --   -0.76439  -0.76222  -0.75525  -0.75039  -0.74422
 Alpha  occ. eigenvalues --   -0.74251  -0.73009  -0.72426  -0.71699  -0.71529
 Alpha  occ. eigenvalues --   -0.71288  -0.70921  -0.70604  -0.69839  -0.69361
 Alpha  occ. eigenvalues --   -0.69197  -0.67202  -0.67033  -0.65778  -0.65730
 Alpha  occ. eigenvalues --   -0.64079  -0.63956  -0.63320  -0.63120  -0.62330
 Alpha  occ. eigenvalues --   -0.62187  -0.61434  -0.61426  -0.60228  -0.59522
 Alpha  occ. eigenvalues --   -0.59467  -0.59134  -0.58858  -0.58809  -0.58454
 Alpha  occ. eigenvalues --   -0.57920  -0.56416  -0.56009  -0.54794  -0.54628
 Alpha  occ. eigenvalues --   -0.54483  -0.54066  -0.53782  -0.53641  -0.53352
 Alpha  occ. eigenvalues --   -0.53096  -0.52662  -0.52489  -0.52312  -0.51523
 Alpha  occ. eigenvalues --   -0.50940  -0.50698  -0.50353  -0.50157  -0.49588
 Alpha  occ. eigenvalues --   -0.49268  -0.49093  -0.49011  -0.48816  -0.48676
 Alpha  occ. eigenvalues --   -0.48522  -0.48518  -0.48261  -0.48134  -0.47959
 Alpha  occ. eigenvalues --   -0.47722  -0.47298  -0.47147  -0.46947  -0.46545
 Alpha  occ. eigenvalues --   -0.46521  -0.46238  -0.46067  -0.45972  -0.45917
 Alpha  occ. eigenvalues --   -0.45501  -0.45467  -0.45381  -0.45124  -0.44824
 Alpha  occ. eigenvalues --   -0.44761  -0.44630  -0.44421  -0.44326  -0.44235
 Alpha  occ. eigenvalues --   -0.44054  -0.43987  -0.43868  -0.43755  -0.43745
 Alpha  occ. eigenvalues --   -0.43401  -0.43073  -0.43047  -0.42857  -0.42649
 Alpha  occ. eigenvalues --   -0.42478  -0.42417  -0.42409  -0.42211  -0.41951
 Alpha  occ. eigenvalues --   -0.41762  -0.41467  -0.41420  -0.41085  -0.41013
 Alpha  occ. eigenvalues --   -0.40783  -0.40581  -0.40450  -0.40402  -0.40220
 Alpha  occ. eigenvalues --   -0.40169  -0.40031  -0.39988  -0.39916  -0.39769
 Alpha  occ. eigenvalues --   -0.39634  -0.39626  -0.39485  -0.39148  -0.38892
 Alpha  occ. eigenvalues --   -0.38728  -0.38641  -0.38595  -0.38418  -0.38277
 Alpha  occ. eigenvalues --   -0.38045  -0.38006  -0.37861  -0.37670  -0.37627
 Alpha  occ. eigenvalues --   -0.37423  -0.37347  -0.37309  -0.36920  -0.36723
 Alpha  occ. eigenvalues --   -0.36712  -0.36439  -0.36428  -0.35933  -0.35908
 Alpha  occ. eigenvalues --   -0.35853  -0.35781  -0.35615  -0.35362  -0.35293
 Alpha  occ. eigenvalues --   -0.35225  -0.34732  -0.34473  -0.34346  -0.33783
 Alpha  occ. eigenvalues --   -0.33314  -0.33095  -0.32770  -0.32725  -0.32367
 Alpha  occ. eigenvalues --   -0.32132  -0.32075  -0.31491  -0.31474  -0.31423
 Alpha  occ. eigenvalues --   -0.31241  -0.30654  -0.29837  -0.29558  -0.29398
 Alpha  occ. eigenvalues --   -0.29121  -0.28835  -0.28254  -0.27150  -0.26863
 Alpha  occ. eigenvalues --   -0.26006  -0.25771  -0.25750  -0.25607  -0.25478
 Alpha  occ. eigenvalues --   -0.25349  -0.25321  -0.25281  -0.21053  -0.20564
 Alpha  occ. eigenvalues --   -0.18983  -0.18592
 Alpha virt. eigenvalues --   -0.11459  -0.10971  -0.05272  -0.04715  -0.03839
 Alpha virt. eigenvalues --   -0.03305  -0.02256  -0.01769  -0.00231   0.00013
 Alpha virt. eigenvalues --    0.00711   0.00823   0.00911   0.01324   0.01411

 Mulliken charges:
               1
     1  Mg  11.995533
     2  C    6.017234
     3  C    5.987879
     4  C    5.986091
     5  C    6.009868
     6  N    7.011138
     7  C    5.962154
     8  C    6.013787
     9  C    5.983499
    10  C    6.037309
    11  C    5.996484
    12  C    6.001022
    13  C    6.000138
    14  H    1.003379
    15  N    6.992820
    16  C    6.042549
    17  C    6.012359
    18  C    6.021185
    19  C    6.027232
    20  C    5.999600
    21  C    6.011516
    22  O    8.028017
    23  C    5.997420
    24  N    6.999070
    25  C    6.025750
    26  C    5.996679
    27  C    6.004085
    28  C    5.972940
    29  C    6.001619
    30  C    6.006083
    31  C    5.999644
    32  N    6.997993
    33  C    5.962379
    34  C    5.967319
    35  C    5.999746
    36  C    5.973794
    37  C    6.000452
    38  C    5.986440
    39  O    7.971071
    40  C    5.996645
    41  C    5.994646
    42  O    7.997831
    43  O    7.997132
    44  C    6.002090
    45  H    1.010325
    46  H    1.004409
    47  H    0.992166
    48  H    1.002135
    49  H    1.005455
    50  H    1.007864
    51  H    1.013578
    52  H    0.994354
    53  H    0.989361
    54  H    1.005942
    55  H    0.997181
    56  H    0.994743
    57  H    1.014019
    58  H    1.014240
    59  H    1.013689
    60  H    1.007554
    61  H    1.007089
    62  H    1.013629
    63  H    0.998778
    64  H    0.999581
    65  H    1.011283
    66  H    1.001481
    67  H    0.993676
    68  H    0.992960
    69  H    1.006286
    70  H    1.005884
    71  H    0.984788
    72  H    0.997240
    73  H    0.979032
    74  H    0.987228
    75  H    0.980612
    76  H    0.994092
    77  H    0.998528
    78  H    0.994706
    79  H    0.994492
    80  Mg  11.999973
    81  C    6.000143
    82  C    5.999977
    83  C    5.999944
    84  C    6.000100
    85  N    7.000102
    86  C    5.999739
    87  C    6.000133
    88  C    5.999880
    89  C    6.000233
    90  C    5.999979
    91  C    6.000035
    92  C    5.999983
    93  H    0.999988
    94  N    6.999946
    95  C    6.000375
    96  C    6.000181
    97  C    6.000172
    98  C    6.000252
    99  C    5.999980
   100  C    6.000155
   101  O    8.000281
   102  C    5.999941
   103  N    6.999989
   104  C    6.000260
   105  C    5.999889
   106  C    6.000092
   107  C    5.999696
   108  C    6.000004
   109  C    6.000066
   110  C    5.999984
   111  N    7.000021
   112  C    5.999690
   113  C    5.999687
   114  C    5.999980
   115  C    5.999637
   116  C    5.999966
   117  C    5.999821
   118  O    7.999671
   119  C    5.999963
   120  C    5.999988
   121  O    7.999923
   122  O    7.999993
   123  C    6.000013
   124  H    1.000118
   125  H    1.000050
   126  H    0.999879
   127  H    0.999960
   128  H    1.000045
   129  H    1.000034
   130  H    1.000114
   131  H    0.999957
   132  H    0.999968
   133  H    1.000029
   134  H    0.999960
   135  H    0.999970
   136  H    1.000190
   137  H    1.000181
   138  H    1.000223
   139  H    1.000138
   140  H    1.000079
   141  H    1.000162
   142  H    0.999995
   143  H    1.000000
   144  H    1.000070
   145  H    1.000006
   146  H    0.999971
   147  H    1.000031
   148  H    0.999908
   149  H    0.999979
   150  H    0.999970
   151  H    0.999936
   152  H    0.999842
   153  H    0.999828
   154  H    0.999799
   155  H    0.999906
   156  H    0.999955
   157  H    0.999975
   158  H    0.999950
 Sum of Mulliken charges = 624.00000

 Dipole moment (field-independent basis, Debye):
    X=              2.3479    Y=             -2.1117    Z=              9.6036  Tot=             10.1094
 Quadrupole moment (field-independent basis, Debye-Ang):
   XX=            100.5416   YY=              0.6942   ZZ=              5.7277
   XY=            -48.6460   XZ=            224.1269   YZ=             -6.8465

 Normal termination of Gaussian 16 at Wed Oct 13 21:33:47 2021.
