 Gaussian 16, Revision A.03,
 Gaussian 16:  ES64L-G16RevA.03 25-Dec-2016

 --------------------------------------------------------
 #p PBE1PBE/Def2SVP td=(nstates=5) density=(transition=1)
 --------------------------------------------------------

 --------------------------------
 TDDFT excited states in gaussian
 --------------------------------
 Symbolic Z-matrix:
 Charge =  0 Multiplicity = 1

                         Standard orientation:
 ---------------------------------------------------------------------
 Center     Atomic      Atomic             Coordinates (Angstroms)
 Number     Number       Type             X           Y           Z
 ---------------------------------------------------------------------
      1         12           0      -13.547213   -0.680518   -0.330012
      2          6           0      -12.379938    1.992072    1.583847
      3          6           0      -15.308550    1.428516   -2.207922
      4          6           0      -15.565605   -3.309149   -1.167563
      5          6           0      -11.726060   -2.852405    1.695469
      6          7           0      -13.682666    1.511991   -0.413594
      7          6           0      -13.117856    2.359920    0.437403
      8          6           0      -13.372071    3.828385   -0.061328
      9          6           0      -14.396985    3.612212   -1.200426
     10          6           0      -14.507363    2.092920   -1.286808
     11          6           0      -15.871866    4.161973   -0.867226
     12          6           0      -12.075961    4.607956   -0.570933
     13          6           0      -12.055892    6.028125   -0.119686
     14          1           0      -11.825546    7.134604   -1.137471
     15          7           0      -15.189818   -0.894133   -1.543853
     16          6           0      -15.770744    0.111751   -2.269744
     17          6           0      -16.685133   -0.487213   -3.251923
     18          6           0      -16.751248   -1.872956   -2.935913
     19          6           0      -15.836522   -2.053731   -1.796441
     20          6           0      -17.481557    0.352834   -4.300764
     21          6           0      -17.646275   -2.976320   -3.576473
     22          8           0      -17.632236   -4.155133   -3.240236
     23          6           0      -18.553164   -2.581048   -4.679907
     24          7           0      -13.663996   -2.707557    0.186421
     25          6           0      -14.628085   -3.632631   -0.225278
     26          6           0      -14.468196   -4.944577    0.586605
     27          6           0      -12.921658   -4.941845    0.962162
     28          6           0      -12.778833   -3.393828    0.925292
     29          6           0      -15.457091   -5.054874    1.766971
     30          6           0      -11.978532   -5.600159   -0.004339
     31          6           0      -11.550592   -4.906478   -1.263421
     32          7           0      -12.142037   -0.539023    1.177003
     33          6           0      -11.508110   -1.490160    1.942589
     34          6           0      -10.627191   -0.888740    2.946394
     35          6           0      -11.010057    0.527504    2.922784
     36          6           0      -11.945476    0.651966    1.822881
     37          6           0       -9.803365   -1.590963    3.899409
     38          6           0      -10.827535    1.829537    3.552631
     39          8           0      -10.233317    2.174280    4.504308
     40          6           0      -11.670300    2.857950    2.632715
     41          6           0      -12.562776    3.795462    3.406095
     42          8           0      -13.742419    3.589296    3.675560
     43          8           0      -11.851912    4.965091    3.673101
     44          6           0      -12.553401    6.039028    4.399512
     45          1           0      -15.800976    1.958941   -3.026056
     46          1           0      -16.260173   -4.097016   -1.467647
     47          1           0      -11.111381   -3.581331    2.227034
     48          1           0      -13.868256    4.438769    0.693626
     49          1           0      -14.158239    4.072251   -2.159296
     50          1           0      -15.919804    5.181843   -1.249430
     51          1           0      -16.108513    4.249896    0.192823
     52          1           0      -16.588535    3.540560   -1.405470
     53          1           0      -12.012070    4.616157   -1.659155
     54          1           0      -11.120285    4.168959   -0.284112
     55          1           0      -11.173186    6.069010    0.517897
     56          1           0      -12.890513    6.384813    0.483222
     57          1           0      -18.421675    0.613097   -3.815218
     58          1           0      -17.598449   -0.185176   -5.241809
     59          1           0      -17.098592    1.363847   -4.443675
     60          1           0      -19.112427   -1.645951   -4.653999
     61          1           0      -19.304488   -3.355744   -4.831054
     62          1           0      -18.042843   -2.730078   -5.631895
     63          1           0      -14.652279   -5.721938   -0.154408
     64          1           0      -12.733019   -5.377197    1.943319
     65          1           0      -15.025590   -5.246083    2.749510
     66          1           0      -16.318159   -5.690053    1.557891
     67          1           0      -15.967625   -4.102864    1.911270
     68          1           0      -12.318872   -6.566783   -0.373728
     69          1           0      -11.059538   -5.827383    0.536150
     70          1           0      -10.604256   -4.455062   -0.966009
     71          1           0      -12.193631   -4.093977   -1.602425
     72          1           0      -11.412592   -5.646756   -2.052147
     73          1           0       -8.907953   -0.981113    4.020853
     74          1           0       -9.528548   -2.542436    3.444809
     75          1           0      -10.324299   -1.682875    4.851936
     76          1           0      -10.944593    3.474101    2.101840
     77          1           0      -12.968281    5.591134    5.302892
     78          1           0      -13.388410    6.422398    3.813681
     79          1           0      -12.006954    6.934198    4.696904
     80         12           0       14.014310   -0.593574    0.155871
     81          6           0       11.932345    2.065281   -0.833515
     82          6           0       16.703743    1.595585   -0.099327
     83          6           0       15.968290   -3.206857    0.772542
     84          6           0       11.309106   -2.869366   -0.471128
     85          7           0       14.285642    1.543225   -0.417984
     86          6           0       13.247193    2.452847   -0.662290
     87          6           0       13.773503    3.865890   -0.491739
     88          6           0       15.321847    3.727117   -0.537369
     89          6           0       15.450599    2.187498   -0.332832
     90          6           0       16.035476    4.322005   -1.791793
     91          6           0       13.230573    4.618415    0.772273
     92          6           0       13.101992    6.194474    0.587259
     93          1           0       13.559792    6.797758   -0.743334
     94          7           0       15.974142   -0.740774    0.430088
     95          6           0       16.909799    0.277056    0.361387
     96          6           0       18.206348   -0.197462    0.750642
     97          6           0       18.058009   -1.614794    0.887593
     98          6           0       16.639549   -1.884997    0.734714
     99          6           0       19.479234    0.702057    0.793411
    100          6           0       19.108951   -2.645467    1.141725
    101          8           0       18.852524   -3.871694    1.081829
    102          6           0       20.628548   -2.451635    1.420637
    103          7           0       13.778501   -2.751670   -0.106864
    104          6           0       14.717179   -3.614507    0.325898
    105          6           0       14.125704   -5.041036    0.451741
    106          6           0       12.652840   -4.948948    0.037063
    107          6           0       12.556787   -3.371190   -0.154124
    108          6           0       14.983869   -6.063620   -0.228578
    109          6           0       11.607389   -5.517895    1.020256
    110          6           0       11.605486   -4.875826    2.429484
    111          7           0       12.008517   -0.503491   -0.579119
    112          6           0       11.049416   -1.457938   -0.609711
    113          6           0        9.781136   -0.769936   -0.845973
    114          6           0       10.021038    0.630594   -0.922865
    115          6           0       11.426663    0.753118   -0.801975
    116          6           0        8.402318   -1.424569   -0.860635
    117          6           0        9.424126    1.915370   -1.103096
    118          8           0        8.264700    2.315533   -1.166081
    119          6           0       10.720810    2.959336   -1.116290
    120          6           0       10.678239    3.790563   -2.384711
    121          8           0       11.065706    3.389692   -3.464701
    122          8           0       10.243916    5.069203   -2.118414
    123          6           0        9.770525    5.898314   -3.222057
    124          1           0       17.448882    2.393522   -0.087132
    125          1           0       16.642323   -4.011229    1.073462
    126          1           0       10.507096   -3.608988   -0.511146
    127          1           0       13.455160    4.472975   -1.339084
    128          1           0       15.710154    4.225888    0.350164
    129          1           0       16.585505    3.463002   -2.174619
    130          1           0       16.786688    5.055121   -1.495529
    131          1           0       15.441611    4.733450   -2.607933
    132          1           0       13.914363    4.525031    1.615392
    133          1           0       12.283946    4.165934    1.064864
    134          1           0       13.788180    6.659836    1.295021
    135          1           0       12.062411    6.457738    0.780832
    136          1           0       20.315015    0.104381    0.427564
    137          1           0       19.735249    1.018076    1.804129
    138          1           0       19.520164    1.652530    0.261619
    139          1           0       20.781320   -1.792307    2.275534
    140          1           0       21.172050   -2.097744    0.544626
    141          1           0       21.111911   -3.309354    1.886876
    142          1           0       14.280336   -5.326300    1.491533
    143          1           0       12.630592   -5.328597   -0.985052
    144          1           0       15.593697   -6.636805    0.470005
    145          1           0       15.598967   -5.584414   -0.990401
    146          1           0       14.427011   -6.797444   -0.812319
    147          1           0       11.909475   -6.560144    1.125042
    148          1           0       10.610770   -5.465904    0.580907
    149          1           0       10.606245   -4.457958    2.550296
    150          1           0       12.374226   -4.103056    2.423034
    151          1           0       11.903657   -5.551108    3.231625
    152          1           0        7.656667   -0.843595   -0.318631
    153          1           0        8.402370   -2.367172   -0.314030
    154          1           0        8.143814   -1.643661   -1.896989
    155          1           0       10.527775    3.632189   -0.280372
    156          1           0       10.440426    5.707773   -4.060938
    157          1           0        9.785770    6.970911   -3.028345
    158          1           0        8.730258    5.610837   -3.374909
 ---------------------------------------------------------------------

 SCF Done:  E(RPBE1PBE) =  -4067.39197375     A.U. after   16 cycles

 Excitation energies and oscillator strengths:

 Excited State   1:      Singlet-A      1.7101 eV  725.02 nm  f=0.0000  <S**2>=0.000
     312 -> 313        0.70710
 This state for optimization and/or second-order correction.
 Total Energy, E(TD-HF/TD-DFT) =  -4067.32912924
 Copying the excited state density for this state as the 1-particle RhoCI density.

 Excited State   2:      Singlet-A      1.8180 eV  681.96 nm  f=0.4421  <S**2>=0.000
     309 -> 315       -0.16194
     311 -> 313        0.69416
     311 <- 313       -0.11839

 Excited State   3:      Singlet-A      1.8401 eV  673.79 nm  f=0.3139  <S**2>=0.000
     310 -> 316       -0.17053
     312 -> 314        0.69198
     312 <- 314       -0.11289

 Excited State   4:      Singlet-A      2.0693 eV  599.17 nm  f=0.0000  <S**2>=0.000
     311 -> 314        0.70710

 Excited State   5:      Singlet-A      2.1901 eV  566.10 nm  f=0.1379  <S**2>=0.000
     309 -> 313        0.66496
     311 -> 315        0.22015

 The electronic state is 1-A.
 Alpha  occ. eigenvalues --  -46.92317 -46.91289 -19.25574 -19.24915 -19.20186
 Alpha  occ. eigenvalues --  -19.19714 -19.19677 -19.19453 -19.19420 -19.18518
 Alpha  occ. eigenvalues --  -14.41920 -14.41581 -14.41073 -14.40979 -14.39876
 Alpha  occ. eigenvalues --  -14.39129 -14.38880 -14.38864 -10.36570 -10.36105
 Alpha  occ. eigenvalues --  -10.32803 -10.32792 -10.32544 -10.32484 -10.29085
 Alpha  occ. eigenvalues --  -10.28966 -10.28923 -10.28625 -10.28618 -10.28531
 Alpha  occ. eigenvalues --  -10.28381 -10.28346 -10.28248 -10.28214 -10.28005
 Alpha  occ. eigenvalues --  -10.27782 -10.27723 -10.27607 -10.27309 -10.27179
 Alpha  occ. eigenvalues --  -10.27081 -10.26971 -10.26919 -10.26797 -10.26535
 Alpha  occ. eigenvalues --  -10.26189 -10.26042 -10.25925 -10.25920 -10.25906
 Alpha  occ. eigenvalues --  -10.25895 -10.25890 -10.25873 -10.25692 -10.25691
 Alpha  occ. eigenvalues --  -10.25556 -10.25476 -10.25345 -10.25335 -10.25325
 Alpha  occ. eigenvalues --  -10.25121 -10.25091 -10.24997 -10.24954 -10.24871
 Alpha  occ. eigenvalues --  -10.24685 -10.24407 -10.24405 -10.24399 -10.24268
 Alpha  occ. eigenvalues --  -10.23852 -10.23745 -10.23679 -10.23674 -10.23504
 Alpha  occ. eigenvalues --  -10.23419 -10.23388 -10.23148 -10.23143 -10.23122
 Alpha  occ. eigenvalues --  -10.23107 -10.23063 -10.23059 -10.22993 -10.22379
 Alpha  occ. eigenvalues --  -10.21904  -3.14466  -3.13567  -1.87275  -1.86840
 Alpha  occ. eigenvalues --   -1.86702  -1.86412  -1.85918  -1.85818  -1.10205
 Alpha  occ. eigenvalues --   -1.09782  -1.07577  -1.04903  -1.04267  -1.03031
 Alpha  occ. eigenvalues --   -1.02269  -1.02154  -0.99747  -0.98880  -0.98170
 Alpha  occ. eigenvalues --   -0.98058  -0.97879  -0.97530  -0.96873  -0.96752
 Alpha  occ. eigenvalues --   -0.86582  -0.86090  -0.83515  -0.83274  -0.82803
 Alpha  occ. eigenvalues --   -0.82779  -0.82402  -0.82323  -0.81717  -0.81387
 Alpha  occ. eigenvalues --   -0.81196  -0.80992  -0.80561  -0.79725  -0.78409
 Alpha  occ. eigenvalues --   -0.78054  -0.77811  -0.77660  -0.76771  -0.76448
 Alpha  occ. eigenvalues --   -0.76027  -0.75332  -0.75237  -0.74967  -0.74672
 Alpha  occ. eigenvalues --   -0.74122  -0.72857  -0.72530  -0.71514  -0.71279
 Alpha  occ. eigenvalues --   -0.71052  -0.70994  -0.70145  -0.70055  -0.69334
 Alpha  occ. eigenvalues --   -0.69184  -0.67028  -0.66640  -0.65876  -0.65498
 Alpha  occ. eigenvalues --   -0.64247  -0.63550  -0.63534  -0.62890  -0.62839
 Alpha  occ. eigenvalues --   -0.62052  -0.61905  -0.61101  -0.60080  -0.59755
 Alpha  occ. eigenvalues --   -0.59292  -0.59131  -0.58754  -0.58743  -0.58611
 Alpha  occ. eigenvalues --   -0.58509  -0.56317  -0.56235  -0.55400  -0.54708
 Alpha  occ. eigenvalues --   -0.54058  -0.54050  -0.53400  -0.53372  -0.52742
 Alpha  occ. eigenvalues --   -0.52712  -0.52261  -0.52029  -0.51577  -0.51453
 Alpha  occ. eigenvalues --   -0.50483  -0.50396  -0.50285  -0.50025  -0.49776
 Alpha  occ. eigenvalues --   -0.49362  -0.49324  -0.49281  -0.48554  -0.48484
 Alpha  occ. eigenvalues --   -0.48133  -0.48005  -0.47875  -0.47698  -0.47429
 Alpha  occ. eigenvalues --   -0.47303  -0.47145  -0.47014  -0.46695  -0.46681
 Alpha  occ. eigenvalues --   -0.46500  -0.46190  -0.46116  -0.45906  -0.45832
 Alpha  occ. eigenvalues --   -0.45704  -0.45646  -0.45324  -0.44943  -0.44705
 Alpha  occ. eigenvalues --   -0.44580  -0.44461  -0.44138  -0.44117  -0.44093
 Alpha  occ. eigenvalues --   -0.43866  -0.43842  -0.43786  -0.43707  -0.43431
 Alpha  occ. eigenvalues --   -0.43232  -0.43202  -0.42937  -0.42824  -0.42611
 Alpha  occ. eigenvalues --   -0.42470  -0.42399  -0.42330  -0.42082  -0.41609
 Alpha  occ. eigenvalues --   -0.41406  -0.41356  -0.41280  -0.41067  -0.40957
 Alpha  occ. eigenvalues --   -0.40956  -0.40749  -0.40582  -0.40391  -0.40178
 Alpha  occ. eigenvalues --   -0.40172  -0.39959  -0.39759  -0.39645  -0.39429
 Alpha  occ. eigenvalues --   -0.39425  -0.39274  -0.39108  -0.38985  -0.38909
 Alpha  occ. eigenvalues --   -0.38856  -0.38798  -0.38532  -0.38205  -0.38134
 Alpha  occ. eigenvalues --   -0.38046  -0.37981  -0.37667  -0.37652  -0.37467
 Alpha  occ. eigenvalues --   -0.37456  -0.37278  -0.36794  -0.36743  -0.36702
 Alpha  occ. eigenvalues --   -0.36495  -0.36365  -0.36290  -0.36272  -0.36142
 Alpha  occ. eigenvalues --   -0.35971  -0.35568  -0.35426  -0.35354  -0.35124
 Alpha  occ. eigenvalues --   -0.35004  -0.34592  -0.34120  -0.33997  -0.33652
 Alpha  occ. eigenvalues --   -0.33569  -0.32952  -0.32805  -0.32644  -0.32627
 Alpha  occ. eigenvalues --   -0.31908  -0.31883  -0.31576  -0.31396  -0.31363
 Alpha  occ. eigenvalues --   -0.30891  -0.30871  -0.29477  -0.29200  -0.29200
 Alpha  occ. eigenvalues --   -0.28905  -0.28420  -0.28317  -0.27067  -0.26753
 Alpha  occ. eigenvalues --   -0.26286  -0.26175  -0.25978  -0.25809  -0.25625
 Alpha  occ. eigenvalues --   -0.25258  -0.25102  -0.24955  -0.21058  -0.20862
 Alpha  occ. eigenvalues --   -0.18985  -0.18390
 Alpha virt. eigenvalues --   -0.11628  -0.10892  -0.05020  -0.04861  -0.04273
 Alpha virt. eigenvalues --   -0.03791  -0.02313  -0.01886  -0.01265  -0.00112
 Alpha virt. eigenvalues --    0.00202   0.00597   0.01073   0.01460   0.01837

 Mulliken charges:
               1
     1  Mg  12.000000
     2  C    6.000000
     3  C    6.000000
     4  C    6.000000
     5  C    6.000000
     6  N    7.000000
     7  C    6.000000
     8  C    6.000000
     9  C    6.000000
    10  C    6.000000
    11  C    6.000000
    12  C    6.000000
    13  C    6.000000
    14  H    1.000000
    15  N    7.000000
    16  C    6.000000
    17  C    6.000000
    18  C    6.000000
    19  C    6.000000
    20  C    6.000000
    21  C    6.000000
    22  O    8.000000
    23  C    6.000000
    24  N    7.000000
    25  C    6.000000
    26  C    6.000000
    27  C    6.000000
    28  C    6.000000
    29  C    6.000000
    30  C    6.000000
    31  C    6.000000
    32  N    7.000000
    33  C    6.000000
    34  C    6.000000
    35  C    6.000000
    36  C    6.000000
    37  C    6.000000
    38  C    6.000000
    39  O    8.000000
    40  C    6.000000
    41  C    6.000000
    42  O    8.000000
    43  O    8.000000
    44  C    6.000000
    45  H    1.000000
    46  H    1.000000
    47  H    1.000000
    48  H    1.000000
    49  H    1.000000
    50  H    1.000000
    51  H    1.000000
    52  H    1.000000
    53  H    1.000000
    54  H    1.000000
    55  H    1.000000
    56  H    1.000000
    57  H    1.000000
    58  H    1.000000
    59  H    1.000000
    60  H    1.000000
    61  H    1.000000
    62  H    1.000000
    63  H    1.000000
    64  H    1.000000
    65  H    1.000000
    66  H    1.000000
    67  H    1.000000
    68  H    1.000000
    69  H    1.000000
    70  H    1.000000
    71  H    1.000000
    72  H    1.000000
    73  H    1.000000
    74  H    1.000000
    75  H    1.000000
    76  H    1.000000
    77  H    1.000000
    78  H    1.000000
    79  H    1.000000
    80  Mg  12.000000
    81  C    6.000000
    82  C    6.000000
    83  C    6.000000
    84  C    6.000000
    85  N    7.000000
    86  C    6.000000
    87  C    6.000000
    88  C    6.000000
    89  C    6.000000
    90  C    6.000000
    91  C    6.000000
    92  C    6.000000
    93  H    1.000000
    94  N    7.000000
    95  C    6.000000
    96  C    6.000000
    97  C    6.000000
    98  C    6.000000
    99  C    6.000000
   100  C    6.000000
   101  O    8.000000
   102  C    6.000000
   103  N    7.000000
   104  C    6.000000
   105  C    6.000000
   106  C    6.000000
   107  C    6.000000
   108  C    6.000000
   109  C    6.000000
   110  C    6.000000
   111  N    7.000000
   112  C    6.000000
   113  C    6.000000
   114  C    6.000000
   115  C    6.000000
   116  C    6.000000
   117  C    6.000000
   118  O    8.000000
   119  C    6.000000
   120  C    6.000000
   121  O    8.000000
   122  O    8.000000
   123  C    6.000000
   124  H    1.000000
   125  H    1.000000
   126  H    1.000000
   127  H    1.000000
   128  H    1.000000
   129  H    1.000000
   130  H    1.000000
   131  H    1.000000
   132  H    1.000000
   133  H    1.000000
   134  H    1.000000
   135  H    1.000000
   136  H    1.000000
   137  H    1.000000
   138  H    1.000000
   139  H    1.000000
   140  H    1.000000
   141  H    1.000000
   142  H    1.000000
   143  H    1.000000
   144  H    1.000000
   145  H    1.000000
   146  H    1.000000
   147  H    1.000000
   148  H    1.000000
   149  H    1.000000
   150  H    1.000000
   151  H    1.000000
   152  H    1.000000
   153  H    1.000000
   154  H    1.000000
   155  H    1.000000
   156  H    1.000000
   157  H    1.000000
   158  H    1.000000
 Sum of Mulliken charges = 624.00000

 Dipole moment (field-independent basis, Debye):
    X=              0.0000    Y=              0.0000    Z=              0.0000  Tot=              0.0000
 Quadrupole moment (field-independent basis, Debye-Ang):
   XX=             -0.0000   YY=              0.0000   ZZ=             -0.0000
   XY=             -0.0000   XZ=             -0.0000   YZ=             -0.0000

 Normal termination of Gaussian 16 at Thu Oct 14 03:13:52 2021.
