 Gaussian 16, Revision A.03,
 Gaussian 16:  ES64L-G16RevA.03 25-Dec-2016

 --------------------------------------------------------
 #p PBE1PBE/Def2SVP td=(nstates=5) density=(transition=1)
 --------------------------------------------------------

 --------------------------------
 TDDFT excited states in gaussian
 --------------------------------
 Symbolic Z-matrix:
 Charge =  0 Multiplicity = 1

                         Standard orientation:
 ---------------------------------------------------------------------
 Center     Atomic      Atomic             Coordinates (Angstroms)
 Number     Number       Type             X           Y           Z
 ---------------------------------------------------------------------
      1         12           0      -22.882177    0.605838    0.230663
      2          6           0      -21.687905   -2.398051   -1.210483
      3          6           0      -21.328591    2.297114   -2.242234
      4          6           0      -23.898245    3.357595    1.684536
      5          6           0      -23.790713   -1.330566    3.110376
      6          7           0      -21.530897    0.035100   -1.516391
      7          6           0      -21.433322   -1.258225   -2.001739
      8          6           0      -20.876258   -1.160938   -3.380879
      9          6           0      -20.262788    0.237579   -3.455858
     10          6           0      -21.087311    0.956298   -2.358723
     11          6           0      -18.736462    0.203937   -3.069976
     12          6           0      -21.906644   -1.427556   -4.605545
     13          6           0      -21.470011   -2.282564   -5.834434
     14          1           0      -20.110529   -1.914816   -6.496273
     15          7           0      -22.610645    2.578788   -0.249742
     16          6           0      -21.974722    3.039408   -1.286327
     17          6           0      -22.002463    4.511189   -1.228180
     18          6           0      -22.931722    4.876635   -0.207557
     19          6           0      -23.174553    3.581962    0.489942
     20          6           0      -21.226856    5.544806   -2.123433
     21          6           0      -23.552404    6.221672    0.168599
     22          8           0      -24.267424    6.407955    1.171696
     23          6           0      -23.128155    7.406238   -0.561657
     24          7           0      -23.590490    0.952310    2.263858
     25          6           0      -24.062095    2.226667    2.567804
     26          6           0      -24.865376    2.163408    3.923896
     27          6           0      -24.911052    0.647557    4.239626
     28          6           0      -24.078592    0.025937    3.116017
     29          6           0      -24.295092    3.087734    4.999987
     30          6           0      -26.318468    0.034963    4.451120
     31          6           0      -26.483577   -1.022783    5.567215
     32          7           0      -22.772269   -1.420819    0.877897
     33          6           0      -23.124604   -2.047725    2.068924
     34          6           0      -22.974803   -3.470670    1.899375
     35          6           0      -22.363577   -3.643219    0.656566
     36          6           0      -22.257578   -2.369270    0.033313
     37          6           0      -23.379091   -4.476786    2.790753
     38          6           0      -21.866946   -4.625876   -0.317979
     39          8           0      -21.818880   -5.845736   -0.314694
     40          6           0      -21.427869   -3.835152   -1.593655
     41          6           0      -19.974439   -4.182892   -1.861721
     42          8           0      -18.924903   -3.762573   -1.429966
     43          8           0      -20.088751   -5.094456   -2.871248
     44          6           0      -18.867702   -5.424157   -3.644438
     45          1           0      -20.906595    2.852547   -3.082849
     46          1           0      -24.393511    4.269421    2.024553
     47          1           0      -24.260495   -1.955230    3.872369
     48          1           0      -20.083677   -1.867847   -3.627489
     49          1           0      -20.509717    0.756515   -4.381729
     50          1           0      -18.132246    0.944643   -3.592699
     51          1           0      -18.238650   -0.720408   -3.364039
     52          1           0      -18.712512    0.441507   -2.007001
     53          1           0      -22.335515   -0.479075   -4.927211
     54          1           0      -22.801180   -1.923079   -4.226408
     55          1           0      -22.228538   -2.022378   -6.573594
     56          1           0      -21.510170   -3.291397   -5.423579
     57          1           0      -21.844874    6.127659   -2.806020
     58          1           0      -20.494956    4.977136   -2.698726
     59          1           0      -20.745238    6.359046   -1.581928
     60          1           0      -23.264378    7.271934   -1.635064
     61          1           0      -22.083432    7.636677   -0.352577
     62          1           0      -23.843545    8.193402   -0.325574
     63          1           0      -25.894381    2.420945    3.672602
     64          1           0      -24.272004    0.414500    5.091112
     65          1           0      -23.541005    2.545679    5.571579
     66          1           0      -25.014401    3.402059    5.755553
     67          1           0      -23.687048    3.854772    4.521503
     68          1           0      -26.776011   -0.351526    3.540548
     69          1           0      -27.050278    0.811134    4.678981
     70          1           0      -26.424711   -1.974880    5.039618
     71          1           0      -27.507857   -0.894924    5.918836
     72          1           0      -25.700607   -0.905194    6.315868
     73          1           0      -22.911292   -5.460282    2.752116
     74          1           0      -24.462424   -4.558891    2.697274
     75          1           0      -23.122356   -4.101579    3.780753
     76          1           0      -22.061295   -4.107393   -2.437703
     77          1           0      -19.196438   -5.434626   -4.683235
     78          1           0      -18.412836   -6.392482   -3.437311
     79          1           0      -18.125712   -4.635578   -3.521940
     80         12           0       22.703598    0.550759   -0.291653
     81          6           0       21.334097   -2.595546    0.513531
     82          6           0       19.604410    1.517666   -1.131157
     83          6           0       23.991870    3.545831   -0.516400
     84          6           0       25.677863   -0.577747    1.336441
     85          7           0       20.698997   -0.438914   -0.254578
     86          6           0       20.355315   -1.719498    0.020612
     87          6           0       18.887496   -2.018228   -0.208004
     88          6           0       18.462271   -0.717339   -1.000344
     89          6           0       19.632471    0.223102   -0.799268
     90          6           0       18.145484   -0.944794   -2.536004
     91          6           0       17.896496   -2.327215    0.997540
     92          6           0       18.278969   -2.002734    2.466056
     93          1           0       17.128751   -1.566709    3.448731
     94          7           0       21.870562    2.280675   -0.907179
     95          6           0       20.581727    2.523287   -1.104819
     96          6           0       20.398492    3.978194   -1.359448
     97          6           0       21.772691    4.554583   -1.336876
     98          6           0       22.607351    3.438507   -0.891179
     99          6           0       19.092225    4.604684   -1.766967
    100          6           0       22.126259    5.997928   -1.583419
    101          8           0       21.232788    6.776415   -1.907422
    102          6           0       23.554500    6.631838   -1.400611
    103          7           0       24.603433    1.442736    0.443273
    104          6           0       24.844904    2.635966    0.022538
    105          6           0       26.355214    2.977295    0.398826
    106          6           0       26.740558    1.727422    1.192868
    107          6           0       25.578689    0.771254    1.003846
    108          6           0       27.346571    3.325939   -0.723862
    109          6           0       26.830597    1.974469    2.787098
    110          6           0       28.228541    1.857574    3.421719
    111          7           0       23.403060   -1.149294    0.773646
    112          6           0       24.632433   -1.514119    1.255382
    113          6           0       24.663938   -2.967355    1.563874
    114          6           0       23.328181   -3.434362    1.407810
    115          6           0       22.656343   -2.279211    0.815198
    116          6           0       25.840318   -3.768487    2.165070
    117          6           0       22.411653   -4.518504    1.529625
    118          8           0       22.466117   -5.647003    2.047738
    119          6           0       21.084277   -4.049760    0.881103
    120          6           0       20.784280   -5.020747   -0.264541
    121          8           0       19.982922   -5.907779   -0.393489
    122          8           0       21.514725   -4.598102   -1.380490
    123          6           0       21.296961   -5.326732   -2.668716
    124          1           0       18.583624    1.807319   -1.389869
    125          1           0       24.386561    4.556350   -0.647073
    126          1           0       26.664788   -0.972456    1.585273
    127          1           0       18.884755   -2.847773   -0.914843
    128          1           0       17.546317   -0.316363   -0.566110
    129          1           0       18.328895   -1.979884   -2.822232
    130          1           0       18.948679   -0.378956   -3.006756
    131          1           0       17.136197   -0.597520   -2.757764
    132          1           0       17.649722   -3.387110    0.934352
    133          1           0       16.945678   -1.828580    0.806333
    134          1           0       19.003239   -1.190326    2.406229
    135          1           0       18.627913   -2.866419    3.031249
    136          1           0       19.204266    5.612334   -2.166654
    137          1           0       18.423017    4.498114   -0.912385
    138          1           0       18.686920    3.900237   -2.494064
    139          1           0       24.430308    6.196508   -1.883282
    140          1           0       23.816757    6.568122   -0.344546
    141          1           0       23.584509    7.672701   -1.721510
    142          1           0       26.418913    3.875035    1.012802
    143          1           0       27.684251    1.229811    0.966724
    144          1           0       26.868093    3.322748   -1.703354
    145          1           0       28.219068    2.671914   -0.708895
    146          1           0       27.749280    4.336073   -0.649271
    147          1           0       26.220531    1.261956    3.340609
    148          1           0       26.425242    2.973599    2.948330
    149          1           0       28.250710    1.475394    4.442582
    150          1           0       28.601966    2.880175    3.475237
    151          1           0       28.754405    1.186205    2.742764
    152          1           0       26.650675   -3.164135    2.571406
    153          1           0       26.220930   -4.346306    1.323192
    154          1           0       25.432916   -4.484863    2.878036
    155          1           0       20.285046   -4.099295    1.619875
    156          1           0       21.027126   -6.381928   -2.631683
    157          1           0       22.281233   -5.299872   -3.135869
    158          1           0       20.636303   -4.881668   -3.413004
 ---------------------------------------------------------------------

 SCF Done:  E(RPBE1PBE) =  -4067.35616732     A.U. after   16 cycles

 Excitation energies and oscillator strengths:

 Excited State   1:      Singlet-A      1.8786 eV  659.98 nm  f=0.0000  <S**2>=0.000
     312 -> 313        0.70711
 This state for optimization and/or second-order correction.
 Total Energy, E(TD-HF/TD-DFT) =  -4067.28712953
 Copying the excited state density for this state as the 1-particle RhoCI density.

 Excited State   2:      Singlet-A      1.8848 eV  657.80 nm  f=0.3676  <S**2>=0.000
     310 -> 315       -0.17650
     312 -> 314        0.68852

 Excited State   3:      Singlet-A      1.9112 eV  648.73 nm  f=0.4051  <S**2>=0.000
     309 -> 316        0.17703
     311 -> 313        0.69109
     311 <- 313       -0.10567

 Excited State   4:      Singlet-A      2.1987 eV  563.89 nm  f=0.0000  <S**2>=0.000
     311 -> 314        0.70711

 Excited State   5:      Singlet-A      2.2641 eV  547.61 nm  f=0.0698  <S**2>=0.000
     310 -> 314        0.63663
     312 -> 315        0.28676

 The electronic state is 1-A.
 Alpha  occ. eigenvalues --  -46.93453 -46.92736 -19.25205 -19.25051 -19.20570
 Alpha  occ. eigenvalues --  -19.20246 -19.19517 -19.19405 -19.18966 -19.18915
 Alpha  occ. eigenvalues --  -14.41824 -14.41298 -14.41298 -14.40915 -14.40005
 Alpha  occ. eigenvalues --  -14.39878 -14.39422 -14.38659 -10.36848 -10.36237
 Alpha  occ. eigenvalues --  -10.32914 -10.32658 -10.32556 -10.31987 -10.29441
 Alpha  occ. eigenvalues --  -10.29104 -10.29057 -10.28725 -10.28682 -10.28673
 Alpha  occ. eigenvalues --  -10.28563 -10.28545 -10.28500 -10.28384 -10.28104
 Alpha  occ. eigenvalues --  -10.27934 -10.27794 -10.27698 -10.27626 -10.27622
 Alpha  occ. eigenvalues --  -10.27547 -10.27367 -10.27339 -10.27065 -10.26849
 Alpha  occ. eigenvalues --  -10.26737 -10.26588 -10.26479 -10.25929 -10.25886
 Alpha  occ. eigenvalues --  -10.25748 -10.25691 -10.25583 -10.25546 -10.25464
 Alpha  occ. eigenvalues --  -10.25369 -10.25350 -10.25333 -10.25248 -10.25219
 Alpha  occ. eigenvalues --  -10.25159 -10.25136 -10.25042 -10.24988 -10.24935
 Alpha  occ. eigenvalues --  -10.24865 -10.24772 -10.24452 -10.24377 -10.24364
 Alpha  occ. eigenvalues --  -10.24208 -10.24137 -10.24030 -10.24029 -10.24022
 Alpha  occ. eigenvalues --  -10.23992 -10.23770 -10.23672 -10.23261 -10.23259
 Alpha  occ. eigenvalues --  -10.23207 -10.23178 -10.23080 -10.23010 -10.22693
 Alpha  occ. eigenvalues --  -10.22571  -3.15513  -3.14708  -1.88341  -1.87885
 Alpha  occ. eigenvalues --   -1.87739  -1.87545  -1.87083  -1.86921  -1.10883
 Alpha  occ. eigenvalues --   -1.10747  -1.04448  -1.04346  -1.03993  -1.03880
 Alpha  occ. eigenvalues --   -1.02595  -1.02055  -1.01395  -0.99779  -0.99423
 Alpha  occ. eigenvalues --   -0.98699  -0.98551  -0.98024  -0.97684  -0.96744
 Alpha  occ. eigenvalues --   -0.87841  -0.87143  -0.84167  -0.83177  -0.83174
 Alpha  occ. eigenvalues --   -0.82868  -0.82768  -0.82624  -0.82291  -0.81895
 Alpha  occ. eigenvalues --   -0.81328  -0.81161  -0.81101  -0.79888  -0.79186
 Alpha  occ. eigenvalues --   -0.78505  -0.78188  -0.77881  -0.77167  -0.76966
 Alpha  occ. eigenvalues --   -0.76573  -0.76020  -0.75836  -0.75109  -0.74969
 Alpha  occ. eigenvalues --   -0.74780  -0.72831  -0.72647  -0.71979  -0.71743
 Alpha  occ. eigenvalues --   -0.71338  -0.71328  -0.70939  -0.70161  -0.69784
 Alpha  occ. eigenvalues --   -0.69460  -0.67736  -0.66982  -0.66882  -0.66263
 Alpha  occ. eigenvalues --   -0.64006  -0.63577  -0.63216  -0.63107  -0.63061
 Alpha  occ. eigenvalues --   -0.62184  -0.62065  -0.61714  -0.61307  -0.60160
 Alpha  occ. eigenvalues --   -0.59992  -0.59965  -0.59833  -0.59429  -0.59408
 Alpha  occ. eigenvalues --   -0.58894  -0.57656  -0.56525  -0.55125  -0.54981
 Alpha  occ. eigenvalues --   -0.54887  -0.54126  -0.54041  -0.53819  -0.53176
 Alpha  occ. eigenvalues --   -0.52940  -0.52736  -0.52385  -0.52070  -0.51664
 Alpha  occ. eigenvalues --   -0.51018  -0.50741  -0.50431  -0.50407  -0.50136
 Alpha  occ. eigenvalues --   -0.49725  -0.49601  -0.49056  -0.49009  -0.48506
 Alpha  occ. eigenvalues --   -0.48269  -0.48269  -0.48120  -0.47801  -0.47622
 Alpha  occ. eigenvalues --   -0.47529  -0.47387  -0.47364  -0.46989  -0.46665
 Alpha  occ. eigenvalues --   -0.46612  -0.46296  -0.46250  -0.46126  -0.46090
 Alpha  occ. eigenvalues --   -0.45875  -0.45744  -0.45631  -0.45385  -0.45205
 Alpha  occ. eigenvalues --   -0.44954  -0.44652  -0.44602  -0.44415  -0.44139
 Alpha  occ. eigenvalues --   -0.44069  -0.43933  -0.43705  -0.43552  -0.43477
 Alpha  occ. eigenvalues --   -0.43423  -0.43218  -0.43140  -0.42901  -0.42857
 Alpha  occ. eigenvalues --   -0.42600  -0.42344  -0.42318  -0.42172  -0.42080
 Alpha  occ. eigenvalues --   -0.41883  -0.41792  -0.41687  -0.41451  -0.41354
 Alpha  occ. eigenvalues --   -0.41344  -0.41090  -0.40996  -0.40768  -0.40631
 Alpha  occ. eigenvalues --   -0.40579  -0.40311  -0.40226  -0.40116  -0.39758
 Alpha  occ. eigenvalues --   -0.39657  -0.39640  -0.39479  -0.39176  -0.39014
 Alpha  occ. eigenvalues --   -0.38802  -0.38792  -0.38634  -0.38392  -0.38369
 Alpha  occ. eigenvalues --   -0.38135  -0.37911  -0.37820  -0.37777  -0.37685
 Alpha  occ. eigenvalues --   -0.37534  -0.37170  -0.37042  -0.37001  -0.36963
 Alpha  occ. eigenvalues --   -0.36844  -0.36671  -0.36373  -0.36301  -0.36159
 Alpha  occ. eigenvalues --   -0.36139  -0.35806  -0.35750  -0.35591  -0.35415
 Alpha  occ. eigenvalues --   -0.35090  -0.34895  -0.34721  -0.34597  -0.34105
 Alpha  occ. eigenvalues --   -0.33814  -0.33695  -0.33262  -0.32691  -0.32663
 Alpha  occ. eigenvalues --   -0.32387  -0.31966  -0.31617  -0.31532  -0.31381
 Alpha  occ. eigenvalues --   -0.31307  -0.30946  -0.30051  -0.29582  -0.29411
 Alpha  occ. eigenvalues --   -0.29121  -0.29087  -0.28593  -0.27431  -0.26886
 Alpha  occ. eigenvalues --   -0.26577  -0.26477  -0.26145  -0.25908  -0.25893
 Alpha  occ. eigenvalues --   -0.25348  -0.25062  -0.24942  -0.21412  -0.20904
 Alpha  occ. eigenvalues --   -0.19181  -0.18619
 Alpha virt. eigenvalues --   -0.11424  -0.10808  -0.05554  -0.05526  -0.04774
 Alpha virt. eigenvalues --   -0.04254  -0.02650  -0.02143  -0.01445  -0.00880
 Alpha virt. eigenvalues --    0.00182   0.00528   0.01128   0.01259   0.01276

 Mulliken charges:
               1
     1  Mg  12.000000
     2  C    6.000000
     3  C    6.000000
     4  C    6.000000
     5  C    6.000000
     6  N    7.000000
     7  C    6.000000
     8  C    6.000000
     9  C    6.000000
    10  C    6.000000
    11  C    6.000000
    12  C    6.000000
    13  C    6.000000
    14  H    1.000000
    15  N    7.000000
    16  C    6.000000
    17  C    6.000000
    18  C    6.000000
    19  C    6.000000
    20  C    6.000000
    21  C    6.000000
    22  O    8.000000
    23  C    6.000000
    24  N    7.000000
    25  C    6.000000
    26  C    6.000000
    27  C    6.000000
    28  C    6.000000
    29  C    6.000000
    30  C    6.000000
    31  C    6.000000
    32  N    7.000000
    33  C    6.000000
    34  C    6.000000
    35  C    6.000000
    36  C    6.000000
    37  C    6.000000
    38  C    6.000000
    39  O    8.000000
    40  C    6.000000
    41  C    6.000000
    42  O    8.000000
    43  O    8.000000
    44  C    6.000000
    45  H    1.000000
    46  H    1.000000
    47  H    1.000000
    48  H    1.000000
    49  H    1.000000
    50  H    1.000000
    51  H    1.000000
    52  H    1.000000
    53  H    1.000000
    54  H    1.000000
    55  H    1.000000
    56  H    1.000000
    57  H    1.000000
    58  H    1.000000
    59  H    1.000000
    60  H    1.000000
    61  H    1.000000
    62  H    1.000000
    63  H    1.000000
    64  H    1.000000
    65  H    1.000000
    66  H    1.000000
    67  H    1.000000
    68  H    1.000000
    69  H    1.000000
    70  H    1.000000
    71  H    1.000000
    72  H    1.000000
    73  H    1.000000
    74  H    1.000000
    75  H    1.000000
    76  H    1.000000
    77  H    1.000000
    78  H    1.000000
    79  H    1.000000
    80  Mg  12.000000
    81  C    6.000000
    82  C    6.000000
    83  C    6.000000
    84  C    6.000000
    85  N    7.000000
    86  C    6.000000
    87  C    6.000000
    88  C    6.000000
    89  C    6.000000
    90  C    6.000000
    91  C    6.000000
    92  C    6.000000
    93  H    1.000000
    94  N    7.000000
    95  C    6.000000
    96  C    6.000000
    97  C    6.000000
    98  C    6.000000
    99  C    6.000000
   100  C    6.000000
   101  O    8.000000
   102  C    6.000000
   103  N    7.000000
   104  C    6.000000
   105  C    6.000000
   106  C    6.000000
   107  C    6.000000
   108  C    6.000000
   109  C    6.000000
   110  C    6.000000
   111  N    7.000000
   112  C    6.000000
   113  C    6.000000
   114  C    6.000000
   115  C    6.000000
   116  C    6.000000
   117  C    6.000000
   118  O    8.000000
   119  C    6.000000
   120  C    6.000000
   121  O    8.000000
   122  O    8.000000
   123  C    6.000000
   124  H    1.000000
   125  H    1.000000
   126  H    1.000000
   127  H    1.000000
   128  H    1.000000
   129  H    1.000000
   130  H    1.000000
   131  H    1.000000
   132  H    1.000000
   133  H    1.000000
   134  H    1.000000
   135  H    1.000000
   136  H    1.000000
   137  H    1.000000
   138  H    1.000000
   139  H    1.000000
   140  H    1.000000
   141  H    1.000000
   142  H    1.000000
   143  H    1.000000
   144  H    1.000000
   145  H    1.000000
   146  H    1.000000
   147  H    1.000000
   148  H    1.000000
   149  H    1.000000
   150  H    1.000000
   151  H    1.000000
   152  H    1.000000
   153  H    1.000000
   154  H    1.000000
   155  H    1.000000
   156  H    1.000000
   157  H    1.000000
   158  H    1.000000
 Sum of Mulliken charges = 624.00000

 Dipole moment (field-independent basis, Debye):
    X=              0.0000    Y=             -0.0000    Z=              0.0000  Tot=              0.0000
 Quadrupole moment (field-independent basis, Debye-Ang):
   XX=              0.0000   YY=             -0.0000   ZZ=              0.0000
   XY=             -0.0000   XZ=              0.0000   YZ=              0.0000

 Normal termination of Gaussian 16 at Thu Oct 14 19:03:13 2021.
