 Gaussian 16, Revision A.03,
 Gaussian 16:  ES64L-G16RevA.03 25-Dec-2016

 --------------------------------------------------------
 #p PBE1PBE/Def2SVP td=(nstates=5) density=(transition=1)
 --------------------------------------------------------

 --------------------------------
 TDDFT excited states in gaussian
 --------------------------------
 Symbolic Z-matrix:
 Charge =  0 Multiplicity = 1

                         Standard orientation:
 ---------------------------------------------------------------------
 Center     Atomic      Atomic             Coordinates (Angstroms)
 Number     Number       Type             X           Y           Z
 ---------------------------------------------------------------------
      1         12           0      -20.456942   -0.574525    0.058510
      2          6           0      -20.136035    2.684532   -1.090376
      3          6           0      -20.217932    0.507993    3.243655
      4          6           0      -20.596231   -3.773245    1.035072
      5          6           0      -20.533718   -1.615893   -3.283890
      6          7           0      -20.232935    1.428376    0.909209
      7          6           0      -20.216881    2.591377    0.303056
      8          6           0      -20.140017    3.720784    1.430886
      9          6           0      -19.426455    2.912211    2.493664
     10          6           0      -20.022968    1.490477    2.244323
     11          6           0      -17.896937    3.048229    2.333096
     12          6           0      -21.574598    4.353523    1.689490
     13          6           0      -21.553119    5.726004    2.369347
     14          1           0      -20.242377    6.240202    2.939208
     15          7           0      -20.591901   -1.479061    1.863268
     16          6           0      -20.550332   -0.823946    3.091775
     17          6           0      -20.903952   -1.821919    4.145416
     18          6           0      -20.957176   -3.133325    3.506742
     19          6           0      -20.627935   -2.794515    2.096694
     20          6           0      -21.080977   -1.449785    5.598484
     21          6           0      -21.318650   -4.577449    4.088216
     22          8           0      -21.394455   -5.596911    3.394071
     23          6           0      -21.595392   -4.655868    5.575116
     24          7           0      -20.437231   -2.386180   -0.941176
     25          6           0      -20.486237   -3.569458   -0.335210
     26          6           0      -20.363305   -4.764184   -1.330613
     27          6           0      -20.594314   -4.030457   -2.659454
     28          6           0      -20.582821   -2.578044   -2.299384
     29          6           0      -19.020025   -5.541767   -1.249050
     30          6           0      -21.788980   -4.515043   -3.595818
     31          6           0      -23.027852   -3.681411   -3.618031
     32          7           0      -20.153321    0.276210   -1.826476
     33          6           0      -20.275407   -0.235443   -3.074361
     34          6           0      -20.069228    0.727889   -4.096329
     35          6           0      -20.009806    1.946756   -3.350049
     36          6           0      -20.074864    1.569575   -2.028147
     37          6           0      -19.936989    0.654797   -5.595458
     38          6           0      -19.900370    3.374582   -3.391751
     39          8           0      -19.792876    4.153232   -4.314483
     40          6           0      -20.131009    3.950719   -1.958315
     41          6           0      -19.059321    4.895847   -1.630685
     42          8           0      -17.885815    4.561247   -1.573207
     43          8           0      -19.485019    6.247462   -1.569890
     44          6           0      -18.427289    7.248672   -1.361080
     45          1           0      -20.070412    0.890085    4.254827
     46          1           0      -20.597562   -4.806517    1.386173
     47          1           0      -20.511638   -1.982825   -4.311819
     48          1           0      -19.550891    4.562440    1.069181
     49          1           0      -19.714766    3.158560    3.515262
     50          1           0      -17.621734    3.599753    3.232718
     51          1           0      -17.610071    3.605372    1.440271
     52          1           0      -17.496795    2.039086    2.428650
     53          1           0      -22.166594    3.692565    2.323189
     54          1           0      -21.992904    4.511126    0.695092
     55          1           0      -22.297255    5.689295    3.164374
     56          1           0      -21.923033    6.443797    1.637610
     57          1           0      -21.499125   -0.448207    5.705255
     58          1           0      -20.199913   -1.506358    6.236900
     59          1           0      -21.833368   -2.108926    6.031287
     60          1           0      -20.726161   -4.171498    6.019374
     61          1           0      -21.625452   -5.667446    5.978933
     62          1           0      -22.551954   -4.182980    5.798134
     63          1           0      -21.143123   -5.506009   -1.159025
     64          1           0      -19.648313   -4.102265   -3.194890
     65          1           0      -18.732934   -5.717389   -2.286079
     66          1           0      -19.023685   -6.477516   -0.692218
     67          1           0      -18.308923   -4.918643   -0.706627
     68          1           0      -21.997091   -5.561404   -3.372093
     69          1           0      -21.466058   -4.458680   -4.635109
     70          1           0      -23.095499   -3.227007   -4.606768
     71          1           0      -23.011063   -2.777536   -3.007826
     72          1           0      -23.952462   -4.239872   -3.471610
     73          1           0      -19.929047   -0.372044   -5.962717
     74          1           0      -19.078159    1.251618   -5.903936
     75          1           0      -20.779762    1.029213   -6.176932
     76          1           0      -21.084929    4.471592   -1.880036
     77          1           0      -18.782186    8.255727   -1.143407
     78          1           0      -17.882899    7.230091   -2.305608
     79          1           0      -17.783387    6.829210   -0.588966
     80         12           0       19.756048   -0.646301   -0.285439
     81          6           0       21.929864    2.137889   -0.233611
     82          6           0       17.701808    0.885842    1.789912
     83          6           0       18.270209   -3.672757    0.267444
     84          6           0       22.605885   -2.535519   -1.694153
     85          7           0       19.882052    1.292023    0.698129
     86          6           0       20.696585    2.323146    0.393817
     87          6           0       20.118230    3.618407    0.996625
     88          6           0       18.803929    3.233826    1.596669
     89          6           0       18.775125    1.687749    1.400528
     90          6           0       18.596034    3.817515    3.053847
     91          6           0       20.042453    4.893888    0.092320
     92          6           0       18.856506    5.945606    0.199220
     93          1           0       19.202389    7.441859    0.195829
     94          7           0       18.046914   -1.225973    0.686104
     95          6           0       17.314590   -0.406725    1.515318
     96          6           0       16.174940   -1.152457    1.968281
     97          6           0       16.303532   -2.542308    1.578076
     98          6           0       17.597267   -2.537751    0.860201
     99          6           0       15.203083   -0.470785    2.843817
    100          6           0       15.339864   -3.739937    1.766402
    101          8           0       15.657332   -4.824706    1.404477
    102          6           0       13.919123   -3.510466    2.167640
    103          7           0       20.415456   -2.806208   -0.627031
    104          6           0       19.503477   -3.778789   -0.402989
    105          6           0       20.022385   -5.183667   -0.847437
    106          6           0       21.389669   -4.839311   -1.513366
    107          6           0       21.524036   -3.315326   -1.272076
    108          6           0       20.164182   -6.203511    0.251038
    109          6           0       21.580943   -5.183894   -3.031809
    110          6           0       20.965500   -4.299084   -4.062547
    111          7           0       21.841533   -0.387072   -0.894207
    112          6           0       22.775808   -1.202611   -1.465616
    113          6           0       23.934921   -0.422400   -1.824487
    114          6           0       23.688067    0.901002   -1.373523
    115          6           0       22.414203    0.853479   -0.771666
    116          6           0       25.229109   -0.911313   -2.372406
    117          6           0       24.218310    2.228194   -1.243878
    118          8           0       25.260762    2.758001   -1.611120
    119          6           0       23.085858    3.105649   -0.543889
    120          6           0       23.604981    3.916883    0.631240
    121          8           0       24.029790    3.430501    1.647365
    122          8           0       23.462912    5.266691    0.351412
    123          6           0       23.970871    6.133837    1.415081
    124          1           0       16.872900    1.376884    2.304712
    125          1           0       17.708145   -4.592377    0.441518
    126          1           0       23.409670   -3.067519   -2.207155
    127          1           0       20.905264    3.813991    1.724942
    128          1           0       18.023618    3.724534    1.014278
    129          1           0       19.405711    4.509528    3.284877
    130          1           0       18.450114    2.973643    3.728097
    131          1           0       17.727794    4.475414    3.095968
    132          1           0       20.034026    4.541257   -0.939321
    133          1           0       20.951213    5.492727    0.158162
    134          1           0       18.349341    5.683672    1.128023
    135          1           0       18.149526    5.764633   -0.610516
    136          1           0       14.873931   -1.226245    3.556933
    137          1           0       14.347650   -0.205738    2.223588
    138          1           0       15.461851    0.426790    3.405756
    139          1           0       13.971353   -3.589991    3.252694
    140          1           0       13.280609   -4.214394    1.633019
    141          1           0       13.546374   -2.500878    1.993349
    142          1           0       19.429412   -5.595677   -1.664220
    143          1           0       22.314899   -5.187644   -1.055401
    144          1           0       19.692259   -5.864006    1.173976
    145          1           0       21.206957   -6.388317    0.510400
    146          1           0       19.672647   -7.102083   -0.121046
    147          1           0       21.210788   -6.190256   -3.227865
    148          1           0       22.647388   -5.332337   -3.202901
    149          1           0       20.129790   -3.751880   -3.625936
    150          1           0       20.503592   -4.714105   -4.958647
    151          1           0       21.786715   -3.679843   -4.424843
    152          1           0       25.748197   -1.635082   -1.744731
    153          1           0       25.923004   -0.078937   -2.252470
    154          1           0       25.128386   -1.260013   -3.400574
    155          1           0       22.705003    3.767521   -1.321952
    156          1           0       22.955182    6.457030    1.641055
    157          1           0       24.559359    6.873780    0.873132
    158          1           0       24.496834    5.589354    2.199599
 ---------------------------------------------------------------------

 SCF Done:  E(RPBE1PBE) =  -4067.37193590     A.U. after   16 cycles

 Excitation energies and oscillator strengths:

 Excited State   1:      Singlet-A      1.8611 eV  666.20 nm  f=0.3655  <S**2>=0.000
     310 -> 315        0.17930
     312 -> 314        0.69117
     312 <- 314       -0.10763
 This state for optimization and/or second-order correction.
 Total Energy, E(TD-HF/TD-DFT) =  -4067.30354296
 Copying the excited state density for this state as the 1-particle RhoCI density.

 Excited State   2:      Singlet-A      1.8723 eV  662.20 nm  f=0.3850  <S**2>=0.000
     309 -> 316       -0.17548
     311 -> 313        0.69305
     311 <- 313       -0.10656

 Excited State   3:      Singlet-A      1.9113 eV  648.70 nm  f=0.0000  <S**2>=0.000
     312 -> 313        0.70711

 Excited State   4:      Singlet-A      2.0695 eV  599.10 nm  f=0.0000  <S**2>=0.000
     311 -> 314        0.70711

 Excited State   5:      Singlet-A      2.1921 eV  565.60 nm  f=0.1036  <S**2>=0.000
     310 -> 314        0.65383
     312 -> 315       -0.25422

 The electronic state is 1-A.
 Alpha  occ. eigenvalues --  -46.93382 -46.91217 -19.25448 -19.24666 -19.20525
 Alpha  occ. eigenvalues --  -19.20253 -19.19768 -19.19682 -19.18901 -19.18380
 Alpha  occ. eigenvalues --  -14.41743 -14.41424 -14.41237 -14.41136 -14.39677
 Alpha  occ. eigenvalues --  -14.39124 -14.38504 -14.38468 -10.36131 -10.35962
 Alpha  occ. eigenvalues --  -10.34230 -10.32762 -10.31967 -10.31470 -10.29275
 Alpha  occ. eigenvalues --  -10.28919 -10.28869 -10.28576 -10.28539 -10.28513
 Alpha  occ. eigenvalues --  -10.28439 -10.28394 -10.28370 -10.28360 -10.28193
 Alpha  occ. eigenvalues --  -10.28185 -10.27853 -10.27692 -10.27139 -10.27018
 Alpha  occ. eigenvalues --  -10.26889 -10.26782 -10.26517 -10.26347 -10.26252
 Alpha  occ. eigenvalues --  -10.26186 -10.26077 -10.26060 -10.25957 -10.25810
 Alpha  occ. eigenvalues --  -10.25799 -10.25578 -10.25486 -10.25442 -10.25420
 Alpha  occ. eigenvalues --  -10.25410 -10.25362 -10.25291 -10.25286 -10.25226
 Alpha  occ. eigenvalues --  -10.25082 -10.25069 -10.24815 -10.24736 -10.24673
 Alpha  occ. eigenvalues --  -10.24401 -10.24391 -10.24326 -10.24314 -10.24068
 Alpha  occ. eigenvalues --  -10.23996 -10.23968 -10.23823 -10.23794 -10.23776
 Alpha  occ. eigenvalues --  -10.23766 -10.23470 -10.23318 -10.23262 -10.23123
 Alpha  occ. eigenvalues --  -10.22844 -10.22669 -10.22555 -10.22362 -10.22230
 Alpha  occ. eigenvalues --  -10.22047  -3.15275  -3.13556  -1.88085  -1.87656
 Alpha  occ. eigenvalues --   -1.87487  -1.86411  -1.85896  -1.85829  -1.11074
 Alpha  occ. eigenvalues --   -1.09305  -1.07576  -1.05051  -1.04562  -1.03990
 Alpha  occ. eigenvalues --   -1.03391  -1.01651  -1.00415  -0.99475  -0.98830
 Alpha  occ. eigenvalues --   -0.98817  -0.97773  -0.97753  -0.97117  -0.96468
 Alpha  occ. eigenvalues --   -0.86642  -0.85974  -0.83587  -0.83545  -0.83139
 Alpha  occ. eigenvalues --   -0.82850  -0.82556  -0.82539  -0.81683  -0.81619
 Alpha  occ. eigenvalues --   -0.81410  -0.81318  -0.80789  -0.80442  -0.78561
 Alpha  occ. eigenvalues --   -0.78258  -0.78061  -0.77944  -0.77054  -0.76653
 Alpha  occ. eigenvalues --   -0.76623  -0.76229  -0.75376  -0.75155  -0.74755
 Alpha  occ. eigenvalues --   -0.74489  -0.72785  -0.72574  -0.71646  -0.71431
 Alpha  occ. eigenvalues --   -0.71390  -0.71059  -0.70192  -0.70178  -0.69469
 Alpha  occ. eigenvalues --   -0.69014  -0.67380  -0.66792  -0.65864  -0.65664
 Alpha  occ. eigenvalues --   -0.64091  -0.63732  -0.63631  -0.63188  -0.62693
 Alpha  occ. eigenvalues --   -0.62404  -0.61316  -0.60923  -0.59626  -0.59477
 Alpha  occ. eigenvalues --   -0.59207  -0.58813  -0.58767  -0.58633  -0.58502
 Alpha  occ. eigenvalues --   -0.58454  -0.56263  -0.55937  -0.55097  -0.54521
 Alpha  occ. eigenvalues --   -0.54252  -0.54083  -0.53783  -0.53376  -0.52928
 Alpha  occ. eigenvalues --   -0.52737  -0.52588  -0.52546  -0.52141  -0.51933
 Alpha  occ. eigenvalues --   -0.50603  -0.50436  -0.50411  -0.50275  -0.50050
 Alpha  occ. eigenvalues --   -0.49905  -0.49599  -0.49365  -0.49163  -0.48621
 Alpha  occ. eigenvalues --   -0.48466  -0.48255  -0.48151  -0.47768  -0.47737
 Alpha  occ. eigenvalues --   -0.47496  -0.47406  -0.47173  -0.46963  -0.46947
 Alpha  occ. eigenvalues --   -0.46675  -0.46483  -0.46368  -0.45884  -0.45718
 Alpha  occ. eigenvalues --   -0.45487  -0.45360  -0.45233  -0.45163  -0.45132
 Alpha  occ. eigenvalues --   -0.45080  -0.44838  -0.44643  -0.44429  -0.44131
 Alpha  occ. eigenvalues --   -0.44130  -0.43916  -0.43859  -0.43639  -0.43623
 Alpha  occ. eigenvalues --   -0.43520  -0.43376  -0.43265  -0.43225  -0.43136
 Alpha  occ. eigenvalues --   -0.42919  -0.42377  -0.42309  -0.42042  -0.41897
 Alpha  occ. eigenvalues --   -0.41836  -0.41706  -0.41462  -0.41297  -0.41174
 Alpha  occ. eigenvalues --   -0.40792  -0.40763  -0.40553  -0.40518  -0.40492
 Alpha  occ. eigenvalues --   -0.40274  -0.40170  -0.39713  -0.39475  -0.39353
 Alpha  occ. eigenvalues --   -0.39314  -0.39174  -0.39041  -0.38866  -0.38858
 Alpha  occ. eigenvalues --   -0.38580  -0.38497  -0.38382  -0.38379  -0.38111
 Alpha  occ. eigenvalues --   -0.38096  -0.37973  -0.37817  -0.37810  -0.37686
 Alpha  occ. eigenvalues --   -0.37472  -0.37444  -0.37195  -0.37017  -0.36894
 Alpha  occ. eigenvalues --   -0.36718  -0.36708  -0.36416  -0.36302  -0.35950
 Alpha  occ. eigenvalues --   -0.35856  -0.35749  -0.35542  -0.35482  -0.35020
 Alpha  occ. eigenvalues --   -0.34994  -0.34912  -0.34151  -0.34078  -0.33892
 Alpha  occ. eigenvalues --   -0.33209  -0.33086  -0.33049  -0.32835  -0.32593
 Alpha  occ. eigenvalues --   -0.32373  -0.31963  -0.31738  -0.31261  -0.30872
 Alpha  occ. eigenvalues --   -0.30774  -0.30606  -0.29731  -0.29530  -0.29068
 Alpha  occ. eigenvalues --   -0.28801  -0.28667  -0.28614  -0.26884  -0.26659
 Alpha  occ. eigenvalues --   -0.26525  -0.26443  -0.26036  -0.25588  -0.25505
 Alpha  occ. eigenvalues --   -0.25383  -0.25289  -0.25013  -0.20874  -0.20753
 Alpha  occ. eigenvalues --   -0.19008  -0.18678
 Alpha virt. eigenvalues --   -0.11330  -0.11076  -0.05081  -0.04839  -0.04232
 Alpha virt. eigenvalues --   -0.03769  -0.02065  -0.01942  -0.01645   0.00089
 Alpha virt. eigenvalues --    0.00332   0.00840   0.00973   0.01370   0.01727

 Mulliken charges:
               1
     1  Mg  11.999980
     2  C    6.000438
     3  C    5.999923
     4  C    5.999642
     5  C    5.999965
     6  N    7.000266
     7  C    5.999388
     8  C    6.000044
     9  C    5.999942
    10  C    6.000395
    11  C    6.000050
    12  C    6.000037
    13  C    6.000004
    14  H    1.000012
    15  N    6.999911
    16  C    6.000607
    17  C    6.000324
    18  C    6.000359
    19  C    6.000440
    20  C    5.999929
    21  C    6.000279
    22  O    8.000494
    23  C    5.999906
    24  N    6.999885
    25  C    6.000538
    26  C    5.999867
    27  C    6.000142
    28  C    5.999573
    29  C    5.999981
    30  C    6.000007
    31  C    6.000058
    32  N    6.999936
    33  C    5.999585
    34  C    5.999439
    35  C    5.999962
    36  C    5.999644
    37  C    6.000071
    38  C    5.999729
    39  O    7.999482
    40  C    5.999963
    41  C    5.999881
    42  O    7.999995
    43  O    7.999936
    44  C    6.000001
    45  H    1.000227
    46  H    1.000080
    47  H    0.999770
    48  H    1.000069
    49  H    0.999967
    50  H    1.000089
    51  H    1.000254
    52  H    1.000022
    53  H    0.999778
    54  H    1.000096
    55  H    0.999895
    56  H    1.000010
    57  H    1.000236
    58  H    1.000418
    59  H    1.000208
    60  H    1.000127
    61  H    1.000236
    62  H    1.000086
    63  H    0.999925
    64  H    1.000008
    65  H    1.000182
    66  H    0.999957
    67  H    1.000045
    68  H    0.999807
    69  H    0.999998
    70  H    1.000000
    71  H    1.000026
    72  H    0.999781
    73  H    0.999703
    74  H    0.999743
    75  H    0.999564
    76  H    0.999825
    77  H    0.999878
    78  H    1.000018
    79  H    0.999965
    80  Mg  11.999223
    81  C    5.975853
    82  C    6.007073
    83  C    6.016513
    84  C    5.999251
    85  N    6.985654
    86  C    6.033799
    87  C    5.994164
    88  C    6.011194
    89  C    5.969182
    90  C    5.999845
    91  C    5.998341
    92  C    6.002594
    93  H    0.997593
    94  N    7.006595
    95  C    5.964675
    96  C    5.980091
    97  C    5.983209
    98  C    5.972918
    99  C    6.005870
   100  C    5.986752
   101  O    7.975220
   102  C    6.004163
   103  N    7.001641
   104  C    5.973025
   105  C    6.011013
   106  C    5.996828
   107  C    6.025198
   108  C    6.000436
   109  C    5.995116
   110  C    5.993124
   111  N    6.998655
   112  C    6.028890
   113  C    6.037066
   114  C    5.998691
   115  C    6.031681
   116  C    5.997787
   117  C    6.014900
   118  O    8.027771
   119  C    6.002693
   120  C    6.003749
   121  O    8.003585
   122  O    8.001453
   123  C    5.998944
   124  H    0.990844
   125  H    0.995196
   126  H    1.011205
   127  H    0.997459
   128  H    0.995521
   129  H    0.988967
   130  H    1.003285
   131  H    0.997587
   132  H    0.997837
   133  H    0.995848
   134  H    1.006461
   135  H    1.001850
   136  H    0.983338
   137  H    0.980389
   138  H    0.981587
   139  H    0.991644
   140  H    0.987020
   141  H    0.996448
   142  H    0.998884
   143  H    0.998924
   144  H    1.007132
   145  H    0.991803
   146  H    0.999061
   147  H    1.010776
   148  H    0.998657
   149  H    1.009232
   150  H    1.007358
   151  H    0.993776
   152  H    1.021655
   153  H    1.012736
   154  H    1.019669
   155  H    1.006120
   156  H    1.005803
   157  H    1.001841
   158  H    1.002067
 Sum of Mulliken charges = 624.00000

 Dipole moment (field-independent basis, Debye):
    X=              9.1434    Y=              1.5179    Z=             -4.2020  Tot=             10.1766
 Quadrupole moment (field-independent basis, Debye-Ang):
   XX=            366.5660   YY=             -1.0829   ZZ=             -0.1948
   XY=             25.8030   XZ=            -89.8015   YZ=              4.5789

 Normal termination of Gaussian 16 at Fri Oct 15 18:19:52 2021.
