 Gaussian 16, Revision A.03,
 Gaussian 16:  ES64L-G16RevA.03 25-Dec-2016

 --------------------------------------------------------
 #p PBE1PBE/Def2SVP td=(nstates=5) density=(transition=1)
 --------------------------------------------------------

 --------------------------------
 TDDFT excited states in gaussian
 --------------------------------
 Symbolic Z-matrix:
 Charge =  0 Multiplicity = 1

                         Standard orientation:
 ---------------------------------------------------------------------
 Center     Atomic      Atomic             Coordinates (Angstroms)
 Number     Number       Type             X           Y           Z
 ---------------------------------------------------------------------
      1         12           0       -4.898255   -0.256219    1.159819
      2          6           0       -4.795155    3.043754    0.020285
      3          6           0       -2.177475    0.557775    3.216320
      4          6           0       -4.501809   -3.486113    1.940583
      5          6           0       -6.796462   -1.081444   -1.589566
      6          7           0       -3.651424    1.658683    1.677491
      7          6           0       -3.824305    2.820172    0.992303
      8          6           0       -2.787718    3.909507    1.477736
      9          6           0       -1.781146    2.990548    2.337645
     10          6           0       -2.524720    1.645570    2.395514
     11          6           0       -0.483807    2.787971    1.476905
     12          6           0       -3.564738    4.915653    2.403996
     13          6           0       -2.734214    6.015097    3.120421
     14          1           0       -2.817109    6.482627    4.543059
     15          7           0       -3.673322   -1.244461    2.537618
     16          6           0       -2.625605   -0.761330    3.339220
     17          6           0       -2.101466   -1.844652    4.059366
     18          6           0       -2.875087   -2.978485    3.850130
     19          6           0       -3.740680   -2.596724    2.746509
     20          6           0       -0.997890   -1.628889    5.042504
     21          6           0       -2.774487   -4.414682    4.462015
     22          8           0       -3.535822   -5.341074    4.204906
     23          6           0       -1.827000   -4.740192    5.619879
     24          7           0       -5.468170   -2.012396    0.214318
     25          6           0       -5.302904   -3.207003    0.824925
     26          6           0       -6.098903   -4.351999    0.168617
     27          6           0       -6.722208   -3.609338   -1.045760
     28          6           0       -6.433528   -2.145452   -0.765584
     29          6           0       -5.272077   -5.655674   -0.087132
     30          6           0       -8.213757   -3.900058   -1.367558
     31          6           0       -9.209121   -3.281131   -0.480672
     32          7           0       -5.744429    0.739735   -0.422282
     33          6           0       -6.466303    0.306967   -1.429855
     34          6           0       -6.958657    1.407438   -2.264830
     35          6           0       -6.286847    2.524323   -1.672778
     36          6           0       -5.543091    2.074717   -0.599315
     37          6           0       -8.125069    1.449165   -3.137078
     38          6           0       -6.143211    3.965499   -1.782319
     39          8           0       -6.704996    4.762581   -2.498922
     40          6           0       -5.100802    4.317539   -0.714109
     41          6           0       -3.891384    5.040104   -1.316706
     42          8           0       -2.999735    4.491920   -1.910846
     43          8           0       -4.034275    6.394911   -1.134703
     44          6           0       -2.894779    7.164340   -1.685257
     45          1           0       -1.419979    0.854281    3.943663
     46          1           0       -4.564390   -4.515530    2.300248
     47          1           0       -7.485903   -1.578683   -2.274063
     48          1           0       -2.241493    4.364714    0.651192
     49          1           0       -1.524687    3.392283    3.318713
     50          1           0       -0.353432    1.809851    1.014996
     51          1           0        0.406847    2.737103    2.103684
     52          1           0       -0.354618    3.530624    0.689843
     53          1           0       -4.111205    4.322115    3.136427
     54          1           0       -4.347688    5.366468    1.793596
     55          1           0       -2.809182    6.872074    2.450397
     56          1           0       -1.740514    5.571707    3.070020
     57          1           0       -0.606011   -0.612929    5.097944
     58          1           0       -0.255770   -2.413209    4.887338
     59          1           0       -1.475864   -1.810865    6.005459
     60          1           0       -0.771711   -4.692195    5.351023
     61          1           0       -2.051962   -5.668891    6.144536
     62          1           0       -2.033092   -4.003492    6.396572
     63          1           0       -6.806500   -4.509881    0.982067
     64          1           0       -6.086903   -3.897220   -1.883386
     65          1           0       -4.477081   -5.764481    0.649855
     66          1           0       -4.815089   -5.601955   -1.075599
     67          1           0       -5.874541   -6.560613   -0.005565
     68          1           0       -8.244171   -4.984861   -1.270653
     69          1           0       -8.410301   -3.689124   -2.418915
     70          1           0       -9.397335   -2.257850   -0.805205
     71          1           0       -8.897087   -3.340749    0.561825
     72          1           0      -10.184467   -3.761108   -0.566143
     73          1           0       -8.786058    0.672709   -2.751240
     74          1           0       -8.027593    1.173802   -4.187327
     75          1           0       -8.530948    2.457370   -3.061144
     76          1           0       -5.586997    4.956991    0.023389
     77          1           0       -3.275225    8.108295   -2.075073
     78          1           0       -2.436902    6.763499   -2.589814
     79          1           0       -2.174887    7.408207   -0.904660
     80         12           0        4.067363   -0.791319   -1.481587
     81          6           0        6.764213    0.823452    0.030908
     82          6           0        2.324559    2.043158   -1.409116
     83          6           0        1.224563   -2.681503   -1.657065
     84          6           0        5.913606   -3.745571   -1.488789
     85          7           0        4.566738    1.272051   -0.911011
     86          6           0        5.702081    1.671952   -0.351310
     87          6           0        5.683201    3.238064   -0.222140
     88          6           0        4.217226    3.576662   -0.584069
     89          6           0        3.632950    2.222802   -0.975957
     90          6           0        3.343654    4.112621    0.656155
     91          6           0        6.718264    4.010730   -1.159668
     92          6           0        7.380798    5.145380   -0.456444
     93          1           0        7.391483    6.522894   -1.101100
     94          7           0        2.061389   -0.357005   -1.549623
     95          6           0        1.525815    0.903537   -1.529897
     96          6           0        0.114221    0.819076   -1.929659
     97          6           0       -0.194305   -0.568235   -1.998195
     98          6           0        1.064092   -1.260621   -1.674408
     99          6           0       -0.806823    2.071485   -2.081934
    100          6           0       -1.570178   -1.247659   -2.270518
    101          8           0       -1.741826   -2.460634   -2.316139
    102          6           0       -2.740552   -0.372302   -2.515931
    103          7           0        3.626619   -2.838955   -1.528066
    104          6           0        2.361148   -3.433290   -1.536751
    105          6           0        2.505257   -4.963452   -1.327565
    106          6           0        3.953635   -5.265713   -1.913798
    107          6           0        4.511643   -3.842387   -1.629397
    108          6           0        2.252863   -5.405495    0.129912
    109          6           0        4.046661   -5.606736   -3.373949
    110          6           0        3.975890   -4.538984   -4.424906
    111          7           0        6.004038   -1.377447   -1.067611
    112          6           0        6.618817   -2.608166   -1.072533
    113          6           0        8.014600   -2.526063   -0.636186
    114          6           0        8.111448   -1.173515   -0.075720
    115          6           0        6.839115   -0.545679   -0.371150
    116          6           0        8.951305   -3.618418   -0.539284
    117          6           0        8.960100   -0.232038    0.644505
    118          8           0       10.019970   -0.336227    1.137914
    119          6           0        8.121309    1.150003    0.667390
    120          6           0        8.056542    1.815392    2.018915
    121          8           0        7.167435    1.648603    2.848580
    122          8           0        9.116294    2.716033    2.120999
    123          6           0        9.224428    3.504511    3.361850
    124          1           0        1.674047    2.891607   -1.633050
    125          1           0        0.275071   -3.220095   -1.696984
    126          1           0        6.462398   -4.681568   -1.609033
    127          1           0        5.835195    3.567550    0.805995
    128          1           0        4.071995    4.336223   -1.352211
    129          1           0        3.417599    5.200239    0.644637
    130          1           0        3.703671    3.818943    1.641841
    131          1           0        2.307228    3.819305    0.485092
    132          1           0        6.231950    4.421714   -2.044524
    133          1           0        7.509572    3.397791   -1.591452
    134          1           0        8.429504    4.849522   -0.450219
    135          1           0        7.105926    5.334439    0.580869
    136          1           0       -1.254683    2.227184   -1.100867
    137          1           0       -1.529652    1.943444   -2.888039
    138          1           0       -0.265259    3.015280   -2.153994
    139          1           0       -2.905852    0.537443   -1.938961
    140          1           0       -3.658384   -0.948921   -2.403770
    141          1           0       -2.841886   -0.204469   -3.588536
    142          1           0        1.755952   -5.380053   -2.000071
    143          1           0        4.465729   -6.056061   -1.365262
    144          1           0        3.036185   -5.997333    0.603486
    145          1           0        1.258210   -5.820311    0.294830
    146          1           0        2.191156   -4.529955    0.775986
    147          1           0        3.298427   -6.321082   -3.715264
    148          1           0        4.997048   -6.116542   -3.532604
    149          1           0        5.029371   -4.335562   -4.616161
    150          1           0        3.524505   -3.595668   -4.116707
    151          1           0        3.476489   -4.937468   -5.308623
    152          1           0        9.922880   -3.197502   -0.798707
    153          1           0        8.666770   -4.351626   -1.293560
    154          1           0        8.972675   -4.007051    0.478377
    155          1           0        8.632193    1.840504   -0.003673
    156          1           0        9.202084    2.795631    4.189992
    157          1           0        8.366369    4.166232    3.477047
    158          1           0       10.083694    4.158491    3.511339
 ---------------------------------------------------------------------

 SCF Done:  E(RPBE1PBE) =  -4067.40511019     A.U. after   16 cycles

 Excitation energies and oscillator strengths:

 Excited State   1:      Singlet-A      1.5542 eV  797.74 nm  f=0.0002  <S**2>=0.000
     312 -> 313        0.70657
 This state for optimization and/or second-order correction.
 Total Energy, E(TD-HF/TD-DFT) =  -4067.34799469
 Copying the excited state density for this state as the 1-particle RhoCI density.

 Excited State   2:      Singlet-A      1.8247 eV  679.49 nm  f=0.0771  <S**2>=0.000
     311 -> 313       -0.13447
     311 -> 314        0.58006
     312 -> 314       -0.37380

 Excited State   3:      Singlet-A      1.8360 eV  675.30 nm  f=0.2236  <S**2>=0.000
     310 -> 316        0.14106
     311 -> 314        0.39659
     312 -> 314        0.56993

 Excited State   4:      Singlet-A      1.8830 eV  658.44 nm  f=0.4359  <S**2>=0.000
     309 -> 315        0.17493
     311 -> 313        0.67463
     312 -> 314       -0.13267

 Excited State   5:      Singlet-A      2.2412 eV  553.20 nm  f=0.0436  <S**2>=0.000
     309 -> 313        0.62096
     310 -> 313       -0.15534
     310 -> 314        0.16216
     311 -> 315       -0.23358

 The electronic state is 1-A.
 Alpha  occ. eigenvalues --  -46.92273 -46.91125 -19.27109 -19.25611 -19.21497
 Alpha  occ. eigenvalues --  -19.20218 -19.19615 -19.19568 -19.19421 -19.18895
 Alpha  occ. eigenvalues --  -14.41791 -14.41463 -14.40845 -14.40812 -14.39088
 Alpha  occ. eigenvalues --  -14.38878 -14.38739 -14.38625 -10.37529 -10.36590
 Alpha  occ. eigenvalues --  -10.33242 -10.32390 -10.32191 -10.32032 -10.29640
 Alpha  occ. eigenvalues --  -10.28998 -10.28918 -10.28817 -10.28741 -10.28311
 Alpha  occ. eigenvalues --  -10.28228 -10.28073 -10.27941 -10.27928 -10.27679
 Alpha  occ. eigenvalues --  -10.27641 -10.27375 -10.27304 -10.27126 -10.26941
 Alpha  occ. eigenvalues --  -10.26919 -10.26777 -10.26733 -10.26453 -10.26054
 Alpha  occ. eigenvalues --  -10.26019 -10.26010 -10.26002 -10.25866 -10.25842
 Alpha  occ. eigenvalues --  -10.25837 -10.25793 -10.25722 -10.25685 -10.25537
 Alpha  occ. eigenvalues --  -10.25411 -10.25380 -10.25313 -10.25278 -10.25234
 Alpha  occ. eigenvalues --  -10.25065 -10.24845 -10.24793 -10.24440 -10.24391
 Alpha  occ. eigenvalues --  -10.24226 -10.24105 -10.24000 -10.23819 -10.23575
 Alpha  occ. eigenvalues --  -10.23546 -10.23544 -10.23531 -10.23528 -10.23514
 Alpha  occ. eigenvalues --  -10.23285 -10.23261 -10.23171 -10.23079 -10.23025
 Alpha  occ. eigenvalues --  -10.22959 -10.22863 -10.22594 -10.22410 -10.21978
 Alpha  occ. eigenvalues --  -10.21800  -3.14417  -3.13405  -1.87244  -1.86805
 Alpha  occ. eigenvalues --   -1.86627  -1.86251  -1.85756  -1.85655  -1.12316
 Alpha  occ. eigenvalues --   -1.09815  -1.07489  -1.05435  -1.05050  -1.04363
 Alpha  occ. eigenvalues --   -1.04350  -1.02190  -1.00014  -0.99630  -0.98585
 Alpha  occ. eigenvalues --   -0.98057  -0.98000  -0.97313  -0.97128  -0.96584
 Alpha  occ. eigenvalues --   -0.88573  -0.85977  -0.83736  -0.83147  -0.82859
 Alpha  occ. eigenvalues --   -0.82783  -0.82742  -0.82162  -0.81906  -0.81612
 Alpha  occ. eigenvalues --   -0.81214  -0.81058  -0.80824  -0.79952  -0.78498
 Alpha  occ. eigenvalues --   -0.78309  -0.78146  -0.77716  -0.76924  -0.76713
 Alpha  occ. eigenvalues --   -0.75920  -0.75436  -0.75340  -0.74952  -0.74838
 Alpha  occ. eigenvalues --   -0.74391  -0.72836  -0.72115  -0.72021  -0.71309
 Alpha  occ. eigenvalues --   -0.71163  -0.70731  -0.70588  -0.70043  -0.69312
 Alpha  occ. eigenvalues --   -0.69010  -0.67165  -0.66450  -0.66331  -0.65756
 Alpha  occ. eigenvalues --   -0.64443  -0.63881  -0.63416  -0.63026  -0.62716
 Alpha  occ. eigenvalues --   -0.61980  -0.61492  -0.60784  -0.60097  -0.59947
 Alpha  occ. eigenvalues --   -0.59463  -0.59151  -0.58959  -0.58681  -0.58632
 Alpha  occ. eigenvalues --   -0.58385  -0.57494  -0.56251  -0.54667  -0.54274
 Alpha  occ. eigenvalues --   -0.54244  -0.54097  -0.53947  -0.53552  -0.53218
 Alpha  occ. eigenvalues --   -0.53139  -0.52576  -0.52068  -0.52038  -0.51480
 Alpha  occ. eigenvalues --   -0.51218  -0.50528  -0.50366  -0.50129  -0.49894
 Alpha  occ. eigenvalues --   -0.49778  -0.49710  -0.49550  -0.49177  -0.48834
 Alpha  occ. eigenvalues --   -0.48543  -0.48162  -0.48030  -0.47827  -0.47654
 Alpha  occ. eigenvalues --   -0.47365  -0.47313  -0.46985  -0.46782  -0.46770
 Alpha  occ. eigenvalues --   -0.46344  -0.46105  -0.46044  -0.45970  -0.45775
 Alpha  occ. eigenvalues --   -0.45619  -0.45582  -0.45445  -0.44854  -0.44749
 Alpha  occ. eigenvalues --   -0.44642  -0.44372  -0.44220  -0.44129  -0.44061
 Alpha  occ. eigenvalues --   -0.43941  -0.43874  -0.43860  -0.43761  -0.43649
 Alpha  occ. eigenvalues --   -0.43538  -0.42943  -0.42859  -0.42795  -0.42650
 Alpha  occ. eigenvalues --   -0.42480  -0.42389  -0.42186  -0.41900  -0.41574
 Alpha  occ. eigenvalues --   -0.41333  -0.41284  -0.41040  -0.41015  -0.40936
 Alpha  occ. eigenvalues --   -0.40815  -0.40700  -0.40352  -0.40304  -0.40140
 Alpha  occ. eigenvalues --   -0.40084  -0.39996  -0.39869  -0.39757  -0.39604
 Alpha  occ. eigenvalues --   -0.39537  -0.39389  -0.39230  -0.39193  -0.39085
 Alpha  occ. eigenvalues --   -0.38970  -0.38786  -0.38715  -0.38636  -0.38339
 Alpha  occ. eigenvalues --   -0.38249  -0.38059  -0.38053  -0.37936  -0.37846
 Alpha  occ. eigenvalues --   -0.37736  -0.37417  -0.37316  -0.37212  -0.36853
 Alpha  occ. eigenvalues --   -0.36809  -0.36684  -0.36606  -0.36272  -0.36183
 Alpha  occ. eigenvalues --   -0.35855  -0.35652  -0.35384  -0.35311  -0.35201
 Alpha  occ. eigenvalues --   -0.35038  -0.34565  -0.33869  -0.33846  -0.33699
 Alpha  occ. eigenvalues --   -0.33527  -0.33132  -0.32955  -0.32857  -0.32750
 Alpha  occ. eigenvalues --   -0.32426  -0.32035  -0.31813  -0.31569  -0.31459
 Alpha  occ. eigenvalues --   -0.31430  -0.30827  -0.30459  -0.29660  -0.29329
 Alpha  occ. eigenvalues --   -0.29187  -0.28951  -0.28179  -0.27077  -0.26549
 Alpha  occ. eigenvalues --   -0.26100  -0.25917  -0.25892  -0.25633  -0.25608
 Alpha  occ. eigenvalues --   -0.25268  -0.25233  -0.24943  -0.20870  -0.20714
 Alpha  occ. eigenvalues --   -0.18840  -0.18206
 Alpha virt. eigenvalues --   -0.11052  -0.10690  -0.05002  -0.04706  -0.03995
 Alpha virt. eigenvalues --   -0.03467  -0.02277  -0.01653  -0.00707  -0.00110
 Alpha virt. eigenvalues --   -0.00051   0.00275   0.01100   0.01539   0.01900

 Mulliken charges:
               1
     1  Mg  12.000044
     2  C    5.999862
     3  C    5.999829
     4  C    6.000231
     5  C    6.000624
     6  N    7.000472
     7  C    5.999738
     8  C    6.000202
     9  C    5.999449
    10  C    6.000769
    11  C    5.999867
    12  C    6.000049
    13  C    5.999939
    14  H    1.000062
    15  N    6.999920
    16  C    6.000435
    17  C    6.000267
    18  C    6.000412
    19  C    6.000245
    20  C    5.999914
    21  C    6.000223
    22  O    8.000444
    23  C    5.999905
    24  N    7.000337
    25  C    6.000247
    26  C    5.999934
    27  C    6.000082
    28  C    5.999539
    29  C    5.999912
    30  C    5.999992
    31  C    6.000003
    32  N    6.999815
    33  C    5.999538
    34  C    5.999723
    35  C    5.999977
    36  C    5.999684
    37  C    6.000041
    38  C    5.999807
    39  O    7.999701
    40  C    5.999986
    41  C    5.999952
    42  O    7.999818
    43  O    8.000015
    44  C    5.999991
    45  H    1.000255
    46  H    1.000247
    47  H    1.000100
    48  H    1.000025
    49  H    1.000190
    50  H    0.999395
    51  H    1.000267
    52  H    1.000264
    53  H    0.999926
    54  H    1.000185
    55  H    1.000096
    56  H    0.999978
    57  H    1.000320
    58  H    1.000367
    59  H    1.000278
    60  H    1.000253
    61  H    1.000284
    62  H    1.000129
    63  H    1.000058
    64  H    1.000021
    65  H    0.999975
    66  H    1.000186
    67  H    1.000199
    68  H    1.000005
    69  H    1.000107
    70  H    1.000117
    71  H    0.999902
    72  H    1.000069
    73  H    0.999791
    74  H    0.999809
    75  H    0.999943
    76  H    0.999921
    77  H    1.000019
    78  H    0.999990
    79  H    0.999951
    80  Mg  11.999800
    81  C    6.000343
    82  C    6.000333
    83  C    5.999507
    84  C    5.999692
    85  N    7.000297
    86  C    5.999321
    87  C    6.000143
    88  C    6.000107
    89  C    5.999781
    90  C    5.999652
    91  C    6.000023
    92  C    6.000066
    93  H    0.999816
    94  N    7.000108
    95  C    5.999884
    96  C    6.000594
    97  C    6.000223
    98  C    6.000220
    99  C    5.999964
   100  C    6.000048
   101  O    8.000357
   102  C    5.999922
   103  N    6.999791
   104  C    6.000343
   105  C    5.999996
   106  C    6.000112
   107  C    5.999735
   108  C    6.000124
   109  C    6.000123
   110  C    6.000055
   111  N    7.000036
   112  C    5.999689
   113  C    5.999439
   114  C    5.999985
   115  C    5.999579
   116  C    6.000097
   117  C    5.999735
   118  O    7.999617
   119  C    5.999993
   120  C    5.999950
   121  O    7.999832
   122  O    7.999999
   123  C    6.000050
   124  H    0.999977
   125  H    0.999840
   126  H    0.999690
   127  H    0.999870
   128  H    0.999913
   129  H    1.000124
   130  H    1.000104
   131  H    1.000082
   132  H    0.999867
   133  H    1.000029
   134  H    1.000019
   135  H    0.999934
   136  H    1.000229
   137  H    1.000154
   138  H    1.000174
   139  H    1.000041
   140  H    1.000068
   141  H    1.000226
   142  H    0.999845
   143  H    0.999880
   144  H    1.000075
   145  H    0.999744
   146  H    0.999813
   147  H    0.999747
   148  H    0.999971
   149  H    1.000077
   150  H    0.999887
   151  H    0.999826
   152  H    0.999699
   153  H    0.999759
   154  H    0.999599
   155  H    0.999873
   156  H    0.999944
   157  H    0.999899
   158  H    0.999919
 Sum of Mulliken charges = 624.00000

 Dipole moment (field-independent basis, Debye):
    X=             -0.2178    Y=             -0.0365    Z=              0.1070  Tot=              0.2454
 Quadrupole moment (field-independent basis, Debye-Ang):
   XX=             -1.5193   YY=             -0.0574   ZZ=              0.3384
   XY=              0.7395   XZ=             -0.2592   YZ=             -0.2588

 Normal termination of Gaussian 16 at Thu Oct 14 00:59:29 2021.
