 Gaussian 16, Revision A.03,
 Gaussian 16:  ES64L-G16RevA.03 25-Dec-2016

 --------------------------------------------------------
 #p PBE1PBE/Def2SVP td=(nstates=5) density=(transition=1)
 --------------------------------------------------------

 --------------------------------
 TDDFT excited states in gaussian
 --------------------------------
 Symbolic Z-matrix:
 Charge =  0 Multiplicity = 1

                         Standard orientation:
 ---------------------------------------------------------------------
 Center     Atomic      Atomic             Coordinates (Angstroms)
 Number     Number       Type             X           Y           Z
 ---------------------------------------------------------------------
      1         12           0        4.898852    0.733732    0.130055
      2          6           0        3.050264   -2.210860    0.994303
      3          6           0        7.650861   -1.415397   -0.371205
      4          6           0        6.897730    3.321214    0.013494
      5          6           0        2.215098    2.623869    1.017364
      6          7           0        5.251063   -1.549747    0.252911
      7          6           0        4.295250   -2.472010    0.519647
      8          6           0        4.873624   -3.855561    0.272447
      9          6           0        6.345542   -3.683819   -0.197789
     10          6           0        6.434516   -2.146601   -0.140989
     11          6           0        7.426667   -4.479466    0.729657
     12          6           0        4.056680   -4.678522   -0.813447
     13          6           0        3.691951   -6.118020   -0.449082
     14          1           0        4.649882   -6.999082    0.449217
     15          7           0        7.016495    0.923625   -0.091874
     16          6           0        7.895690   -0.033124   -0.301667
     17          6           0        9.185423    0.587401   -0.415623
     18          6           0        9.040917    1.997176   -0.463300
     19          6           0        7.643957    2.130010   -0.142376
     20          6           0       10.449180   -0.194313   -0.770589
     21          6           0        9.963848    3.148788   -0.829871
     22          8           0        9.636323    4.317240   -0.732579
     23          6           0       11.307331    2.767319   -1.387971
     24          7           0        4.658654    2.648862    0.816688
     25          6           0        5.604924    3.608518    0.452368
     26          6           0        5.057925    5.060232    0.521809
     27          6           0        3.523931    4.741956    0.685881
     28          6           0        3.440515    3.224486    0.850359
     29          6           0        5.710565    5.836397    1.674886
     30          6           0        2.648295    5.130795   -0.597607
     31          6           0        1.775988    6.338975   -0.524211
     32          7           0        3.014670    0.336878    0.734785
     33          6           0        2.030066    1.231608    1.094446
     34          6           0        0.838237    0.577866    1.628691
     35          6           0        1.190500   -0.818777    1.606854
     36          6           0        2.538423   -0.892145    1.183060
     37          6           0       -0.452484    1.269546    1.880799
     38          6           0        0.697856   -2.173839    1.800884
     39          8           0       -0.447703   -2.513657    2.148796
     40          6           0        1.931274   -3.178119    1.430068
     41          6           0        2.210474   -3.895309    2.664099
     42          8           0        2.481555   -3.351440    3.712272
     43          8           0        2.141191   -5.220153    2.488153
     44          6           0        2.329660   -6.186806    3.615013
     45          1           0        8.515421   -2.037610   -0.611344
     46          1           0        7.358483    4.218196   -0.407091
     47          1           0        1.354427    3.267422    1.209716
     48          1           0        4.876528   -4.375136    1.230653
     49          1           0        6.516376   -4.133238   -1.176169
     50          1           0        6.949502   -5.301438    1.263388
     51          1           0        7.826318   -3.720204    1.402393
     52          1           0        8.238168   -4.855072    0.106584
     53          1           0        4.496878   -4.693607   -1.809553
     54          1           0        3.091393   -4.198268   -0.973238
     55          1           0        3.489261   -6.717872   -1.336574
     56          1           0        2.719820   -6.002394    0.030194
     57          1           0       10.704983   -0.172449   -1.830053
     58          1           0       10.425686   -1.204453   -0.360618
     59          1           0       11.259229    0.278293   -0.215564
     60          1           0       11.299240    1.932906   -2.089898
     61          1           0       12.055413    2.506097   -0.640786
     62          1           0       11.640867    3.551143   -2.068077
     63          1           0        5.300588    5.542233   -0.424841
     64          1           0        3.160130    5.294131    1.552498
     65          1           0        6.561906    5.333517    2.133405
     66          1           0        5.011228    6.003973    2.493246
     67          1           0        6.032167    6.813185    1.312077
     68          1           0        1.955293    4.357907   -0.929965
     69          1           0        3.251355    5.241074   -1.498108
     70          1           0        2.108361    7.087401   -1.242442
     71          1           0        1.919512    6.680747    0.500991
     72          1           0        0.742487    6.078143   -0.751921
     73          1           0       -1.299924    0.620291    1.663405
     74          1           0       -0.409304    2.205785    1.324605
     75          1           0       -0.472165    1.511378    2.944331
     76          1           0        1.651787   -3.893198    0.657515
     77          1           0        1.693563   -5.895297    4.450985
     78          1           0        3.358537   -6.216730    3.974487
     79          1           0        2.194305   -7.228662    3.325955
     80         12           0       -5.131047    0.577226   -0.229272
     81          6           0       -2.744864   -1.860458   -1.172863
     82          6           0       -7.411344   -1.896486    0.035792
     83          6           0       -7.328073    2.891150    0.503625
     84          6           0       -2.770326    3.060567   -1.291278
     85          7           0       -5.134673   -1.667745   -0.634229
     86          6           0       -3.973776   -2.413050   -0.755112
     87          6           0       -4.349449   -3.837386   -0.527188
     88          6           0       -5.867158   -3.874218   -0.708904
     89          6           0       -6.215054   -2.396968   -0.397776
     90          6           0       -6.247495   -4.232624   -2.194364
     91          6           0       -3.901201   -4.493877    0.887266
     92          6           0       -3.321647   -5.940694    0.939181
     93          1           0       -4.126844   -7.045033    0.195170
     94          7           0       -7.131254    0.467337    0.199851
     95          6           0       -7.846134   -0.616638    0.270718
     96          6           0       -9.234638   -0.234191    0.580687
     97          6           0       -9.222152    1.147078    0.942193
     98          6           0       -7.857376    1.579511    0.527418
     99          6           0      -10.523719   -1.133990    0.586871
    100          6           0      -10.288956    2.043926    1.569453
    101          8           0      -10.169973    3.274877    1.720321
    102          6           0      -11.604740    1.477712    1.823568
    103          7           0       -5.076777    2.732706   -0.555756
    104          6           0       -6.126126    3.484667   -0.034027
    105          6           0       -5.712921    5.007003   -0.035457
    106          6           0       -4.228398    4.971990   -0.476522
    107          6           0       -3.977603    3.489314   -0.760558
    108          6           0       -6.666053    5.884199   -0.847640
    109          6           0       -3.215271    5.654389    0.476750
    110          6           0       -2.062355    6.466148   -0.158536
    111          7           0       -3.176611    0.648718   -1.073900
    112          6           0       -2.372770    1.703064   -1.495670
    113          6           0       -1.076156    1.179850   -1.843520
    114          6           0       -1.198787   -0.209252   -1.786066
    115          6           0       -2.497368   -0.520382   -1.296668
    116          6           0        0.077891    1.915489   -2.155427
    117          6           0       -0.493021   -1.490302   -1.937072
    118          8           0        0.654978   -1.773932   -2.240442
    119          6           0       -1.485605   -2.621397   -1.511887
    120          6           0       -1.602516   -3.582027   -2.681829
    121          8           0       -2.271867   -3.587954   -3.690065
    122          8           0       -0.788979   -4.603557   -2.284597
    123          6           0       -0.899201   -5.893675   -3.006355
    124          1           0       -8.136922   -2.693949    0.211321
    125          1           0       -8.022099    3.606277    0.949995
    126          1           0       -1.971704    3.796318   -1.402662
    127          1           0       -3.929316   -4.560599   -1.226597
    128          1           0       -6.369939   -4.453053    0.065479
    129          1           0       -7.175057   -4.796188   -2.289171
    130          1           0       -5.538284   -4.911786   -2.668137
    131          1           0       -6.388077   -3.270542   -2.685858
    132          1           0       -4.707226   -4.374073    1.610444
    133          1           0       -3.134827   -3.871120    1.350219
    134          1           0       -3.412226   -6.184120    1.998405
    135          1           0       -2.313310   -5.785646    0.555285
    136          1           0      -10.957724   -1.321428    1.568754
    137          1           0      -10.247117   -2.084574    0.129957
    138          1           0      -11.392705   -0.704187    0.088570
    139          1           0      -11.530607    0.579440    2.437089
    140          1           0      -12.111260    1.239728    0.888121
    141          1           0      -12.124778    2.174559    2.480157
    142          1           0       -5.679406    5.307304    1.011931
    143          1           0       -4.118948    5.372318   -1.484234
    144          1           0       -6.320341    5.923186   -1.881154
    145          1           0       -6.689340    6.930351   -0.544149
    146          1           0       -7.615953    5.362973   -0.961771
    147          1           0       -2.792874    4.986797    1.227591
    148          1           0       -3.720760    6.349098    1.148886
    149          1           0       -1.218805    5.775709   -0.152925
    150          1           0       -1.854156    7.258696    0.560945
    151          1           0       -2.337872    6.788855   -1.162179
    152          1           0        0.874475    1.458333   -2.741988
    153          1           0        0.464505    2.303212   -1.212404
    154          1           0       -0.268158    2.739660   -2.778151
    155          1           0       -1.114818   -3.127530   -0.620759
    156          1           0       -0.883733   -6.648596   -2.220778
    157          1           0       -0.091861   -6.128732   -3.699468
    158          1           0       -1.856363   -5.949528   -3.524170
 ---------------------------------------------------------------------

 SCF Done:  E(RPBE1PBE) =  -4067.37497439     A.U. after   17 cycles

 Excitation energies and oscillator strengths:

 Excited State   1:      Singlet-A      1.6046 eV  772.69 nm  f=0.0059  <S**2>=0.000
     312 -> 313        0.69672
 This state for optimization and/or second-order correction.
 Total Energy, E(TD-HF/TD-DFT) =  -4067.31600709
 Copying the excited state density for this state as the 1-particle RhoCI density.

 Excited State   2:      Singlet-A      1.7403 eV  712.44 nm  f=0.0194  <S**2>=0.000
     311 -> 313       -0.23416
     311 -> 314        0.66134

 Excited State   3:      Singlet-A      1.8102 eV  684.92 nm  f=0.8319  <S**2>=0.000
     310 -> 316       -0.11053
     311 -> 313        0.56296
     311 -> 314        0.16355
     312 -> 314        0.37334

 Excited State   4:      Singlet-A      1.8906 eV  655.80 nm  f=0.0652  <S**2>=0.000
     309 -> 315        0.14054
     311 -> 313       -0.32270
     311 -> 314       -0.18217
     312 -> 314        0.57240

 Excited State   5:      Singlet-A      2.1744 eV  570.21 nm  f=0.0594  <S**2>=0.000
     310 -> 313        0.65838
     311 -> 316        0.19611

 The electronic state is 1-A.
 Alpha  occ. eigenvalues --  -46.92464 -46.91799 -19.25847 -19.25065 -19.20129
 Alpha  occ. eigenvalues --  -19.19633 -19.19589 -19.19195 -19.18939 -19.18668
 Alpha  occ. eigenvalues --  -14.41124 -14.41104 -14.41085 -14.40599 -14.39164
 Alpha  occ. eigenvalues --  -14.38867 -14.38530 -14.38451 -10.36096 -10.35389
 Alpha  occ. eigenvalues --  -10.32862 -10.32754 -10.32347 -10.31880 -10.29778
 Alpha  occ. eigenvalues --  -10.29240 -10.28868 -10.28740 -10.28399 -10.28211
 Alpha  occ. eigenvalues --  -10.28149 -10.28140 -10.27955 -10.27684 -10.27381
 Alpha  occ. eigenvalues --  -10.27286 -10.27186 -10.27174 -10.27155 -10.26829
 Alpha  occ. eigenvalues --  -10.26702 -10.26545 -10.26518 -10.26014 -10.25868
 Alpha  occ. eigenvalues --  -10.25793 -10.25774 -10.25724 -10.25672 -10.25584
 Alpha  occ. eigenvalues --  -10.25564 -10.25545 -10.25270 -10.25122 -10.25114
 Alpha  occ. eigenvalues --  -10.25110 -10.25048 -10.24930 -10.24919 -10.24821
 Alpha  occ. eigenvalues --  -10.24748 -10.24686 -10.24514 -10.24137 -10.24133
 Alpha  occ. eigenvalues --  -10.24098 -10.24072 -10.23945 -10.23936 -10.23925
 Alpha  occ. eigenvalues --  -10.23823 -10.23704 -10.23499 -10.23490 -10.23486
 Alpha  occ. eigenvalues --  -10.23464 -10.23203 -10.23202 -10.23126 -10.23067
 Alpha  occ. eigenvalues --  -10.22991 -10.22917 -10.22852 -10.22626 -10.22457
 Alpha  occ. eigenvalues --  -10.22376  -3.14440  -3.13998  -1.87276  -1.86814
 Alpha  occ. eigenvalues --   -1.86802  -1.86654  -1.86379  -1.86234  -1.11278
 Alpha  occ. eigenvalues --   -1.10820  -1.05431  -1.04298  -1.03786  -1.03492
 Alpha  occ. eigenvalues --   -1.02522  -1.02153  -0.99511  -0.99176  -0.98219
 Alpha  occ. eigenvalues --   -0.97982  -0.97506  -0.97482  -0.96532  -0.96358
 Alpha  occ. eigenvalues --   -0.86835  -0.86313  -0.83084  -0.82872  -0.82478
 Alpha  occ. eigenvalues --   -0.82468  -0.81985  -0.81951  -0.81620  -0.81269
 Alpha  occ. eigenvalues --   -0.81131  -0.81057  -0.80944  -0.80624  -0.78374
 Alpha  occ. eigenvalues --   -0.78332  -0.78200  -0.77815  -0.76757  -0.76543
 Alpha  occ. eigenvalues --   -0.76316  -0.75817  -0.75591  -0.75419  -0.74886
 Alpha  occ. eigenvalues --   -0.74718  -0.72459  -0.72432  -0.71917  -0.71643
 Alpha  occ. eigenvalues --   -0.71033  -0.71002  -0.70376  -0.69988  -0.69189
 Alpha  occ. eigenvalues --   -0.69067  -0.66807  -0.66755  -0.66034  -0.65724
 Alpha  occ. eigenvalues --   -0.63230  -0.63035  -0.62884  -0.62166  -0.61962
 Alpha  occ. eigenvalues --   -0.61941  -0.61127  -0.60965  -0.59889  -0.59830
 Alpha  occ. eigenvalues --   -0.59647  -0.59331  -0.59097  -0.58956  -0.58786
 Alpha  occ. eigenvalues --   -0.58570  -0.56951  -0.56402  -0.54913  -0.54766
 Alpha  occ. eigenvalues --   -0.53824  -0.53581  -0.53508  -0.53297  -0.52904
 Alpha  occ. eigenvalues --   -0.52756  -0.52494  -0.52197  -0.51926  -0.51728
 Alpha  occ. eigenvalues --   -0.50590  -0.50519  -0.50199  -0.50113  -0.49589
 Alpha  occ. eigenvalues --   -0.49565  -0.48956  -0.48815  -0.48232  -0.48062
 Alpha  occ. eigenvalues --   -0.47912  -0.47796  -0.47458  -0.47425  -0.47314
 Alpha  occ. eigenvalues --   -0.47282  -0.47160  -0.47063  -0.46870  -0.46716
 Alpha  occ. eigenvalues --   -0.46468  -0.46302  -0.46207  -0.46050  -0.45837
 Alpha  occ. eigenvalues --   -0.45789  -0.45602  -0.45419  -0.44977  -0.44864
 Alpha  occ. eigenvalues --   -0.44715  -0.44644  -0.44420  -0.44393  -0.43907
 Alpha  occ. eigenvalues --   -0.43824  -0.43737  -0.43548  -0.43335  -0.43236
 Alpha  occ. eigenvalues --   -0.43073  -0.43051  -0.42841  -0.42765  -0.42493
 Alpha  occ. eigenvalues --   -0.42343  -0.42255  -0.41873  -0.41814  -0.41626
 Alpha  occ. eigenvalues --   -0.41377  -0.41222  -0.41172  -0.40994  -0.40913
 Alpha  occ. eigenvalues --   -0.40747  -0.40616  -0.40556  -0.40364  -0.40079
 Alpha  occ. eigenvalues --   -0.39971  -0.39761  -0.39579  -0.39437  -0.39345
 Alpha  occ. eigenvalues --   -0.39222  -0.39069  -0.38889  -0.38627  -0.38508
 Alpha  occ. eigenvalues --   -0.38386  -0.38243  -0.38118  -0.38047  -0.37681
 Alpha  occ. eigenvalues --   -0.37622  -0.37549  -0.37510  -0.37382  -0.37246
 Alpha  occ. eigenvalues --   -0.37111  -0.36952  -0.36698  -0.36505  -0.36440
 Alpha  occ. eigenvalues --   -0.36255  -0.36221  -0.36070  -0.35992  -0.35778
 Alpha  occ. eigenvalues --   -0.35724  -0.35613  -0.35299  -0.35080  -0.35054
 Alpha  occ. eigenvalues --   -0.34918  -0.34603  -0.34517  -0.34094  -0.33800
 Alpha  occ. eigenvalues --   -0.33656  -0.33113  -0.32729  -0.32318  -0.31974
 Alpha  occ. eigenvalues --   -0.31807  -0.31417  -0.31356  -0.31148  -0.31043
 Alpha  occ. eigenvalues --   -0.30791  -0.30666  -0.29437  -0.29419  -0.28892
 Alpha  occ. eigenvalues --   -0.28589  -0.28371  -0.28267  -0.26740  -0.26611
 Alpha  occ. eigenvalues --   -0.26326  -0.26238  -0.25954  -0.25682  -0.25518
 Alpha  occ. eigenvalues --   -0.25279  -0.24971  -0.24698  -0.20670  -0.20539
 Alpha  occ. eigenvalues --   -0.18434  -0.18358
 Alpha virt. eigenvalues --   -0.11026  -0.10566  -0.05326  -0.04550  -0.04077
 Alpha virt. eigenvalues --   -0.03912  -0.02370  -0.01904  -0.00599  -0.00511
 Alpha virt. eigenvalues --    0.00979   0.01238   0.01388   0.01452   0.01693

 Mulliken charges:
               1
     1  Mg  11.999288
     2  C    5.998966
     3  C    5.998428
     4  C    6.001375
     5  C    6.000946
     6  N    6.998967
     7  C    6.000536
     8  C    5.999872
     9  C    6.000161
    10  C    6.000377
    11  C    6.000070
    12  C    6.000189
    13  C    6.000242
    14  H    0.999479
    15  N    7.000294
    16  C    6.000067
    17  C    5.999287
    18  C    5.999953
    19  C    5.998958
    20  C    6.000162
    21  C    5.999749
    22  O    7.999389
    23  C    6.000218
    24  N    7.001871
    25  C    5.998695
    26  C    6.000251
    27  C    5.999850
    28  C    5.999770
    29  C    6.000063
    30  C    6.000034
    31  C    5.999971
    32  N    6.999456
    33  C    6.000227
    34  C    5.999751
    35  C    5.999688
    36  C    6.000516
    37  C    6.000428
    38  C    5.999288
    39  O    7.998998
    40  C    6.000075
    41  C    5.999936
    42  O    7.999640
    43  O    7.999962
    44  C    6.000151
    45  H    0.999152
    46  H    0.999964
    47  H    1.000469
    48  H    0.999681
    49  H    0.999600
    50  H    0.999576
    51  H    0.999879
    52  H    0.999628
    53  H    0.999735
    54  H    1.000100
    55  H    0.999627
    56  H    0.999877
    57  H    0.999471
    58  H    0.999788
    59  H    0.999469
    60  H    0.999953
    61  H    0.999769
    62  H    0.999598
    63  H    0.999855
    64  H    0.999838
    65  H    0.999992
    66  H    0.999743
    67  H    0.999789
    68  H    1.000203
    69  H    0.999966
    70  H    0.999821
    71  H    0.999761
    72  H    0.999868
    73  H    0.998722
    74  H    0.999144
    75  H    0.998389
    76  H    0.999633
    77  H    0.999667
    78  H    0.999866
    79  H    0.999669
    80  Mg  12.000552
    81  C    6.001192
    82  C    5.999596
    83  C    5.998560
    84  C    5.999711
    85  N    6.999943
    86  C    5.999286
    87  C    6.000359
    88  C    5.999676
    89  C    6.001860
    90  C    6.000015
    91  C    6.000764
    92  C    5.999983
    93  H    0.999553
    94  N    6.999350
    95  C    6.002453
    96  C    6.002049
    97  C    6.000454
    98  C    6.003105
    99  C    5.999814
   100  C    6.001090
   101  O    8.001813
   102  C    5.999465
   103  N    6.999466
   104  C    6.003887
   105  C    5.999122
   106  C    5.999988
   107  C    6.000379
   108  C    5.999632
   109  C    6.000051
   110  C    6.000022
   111  N    6.999872
   112  C    6.000695
   113  C    5.995746
   114  C    6.001446
   115  C    5.997501
   116  C    6.001613
   117  C    5.998293
   118  O    7.997872
   119  C    6.000144
   120  C    5.999794
   121  O    7.999244
   122  O    8.000211
   123  C    6.000199
   124  H    1.001024
   125  H    1.000809
   126  H    1.000354
   127  H    1.000301
   128  H    1.000139
   129  H    1.000085
   130  H    1.001121
   131  H    0.999966
   132  H    0.999030
   133  H    0.999883
   134  H    0.999976
   135  H    1.000680
   136  H    1.001627
   137  H    1.001293
   138  H    1.001407
   139  H    1.000524
   140  H    1.000611
   141  H    1.001197
   142  H    1.000782
   143  H    1.000681
   144  H    1.000864
   145  H    1.000933
   146  H    0.999816
   147  H    1.000467
   148  H    0.999807
   149  H    1.000605
   150  H    1.000111
   151  H    0.999958
   152  H    0.999709
   153  H    0.998184
   154  H    0.998485
   155  H    0.999706
   156  H    0.999761
   157  H    0.999962
   158  H    0.999470
 Sum of Mulliken charges = 624.00000

 Dipole moment (field-independent basis, Debye):
    X=             -1.3660    Y=              0.2379    Z=              0.1066  Tot=              1.3907
 Quadrupole moment (field-independent basis, Debye-Ang):
   XX=              6.5401   YY=              0.0712   ZZ=             -0.3674
   XY=             -0.6512   XZ=             -0.5635   YZ=              0.2004

 Normal termination of Gaussian 16 at Thu Oct 14 13:00:13 2021.
