 Gaussian 16, Revision A.03,
 Gaussian 16:  ES64L-G16RevA.03 25-Dec-2016

 --------------------------------------------------------
 #p PBE1PBE/Def2SVP td=(nstates=5) density=(transition=1)
 --------------------------------------------------------

 --------------------------------
 TDDFT excited states in gaussian
 --------------------------------
 Symbolic Z-matrix:
 Charge =  0 Multiplicity = 1

                         Standard orientation:
 ---------------------------------------------------------------------
 Center     Atomic      Atomic             Coordinates (Angstroms)
 Number     Number       Type             X           Y           Z
 ---------------------------------------------------------------------
      1         12           0      -19.914250   -0.532025    0.101571
      2          6           0      -19.526954    2.797895   -0.917783
      3          6           0      -18.699928    0.413410    3.290234
      4          6           0      -19.947467   -3.802162    1.015126
      5          6           0      -20.364820   -1.420055   -3.204395
      6          7           0      -19.377258    1.394002    1.057593
      7          6           0      -19.482586    2.646501    0.445917
      8          6           0      -19.479335    3.761602    1.552808
      9          6           0      -19.127946    2.972408    2.819312
     10          6           0      -19.010067    1.477473    2.359174
     11          6           0      -17.799920    3.494084    3.431224
     12          6           0      -20.834391    4.458567    1.544986
     13          6           0      -20.896296    5.905702    2.005590
     14          1           0      -19.672559    6.490452    2.746486
     15          7           0      -19.420454   -1.594665    1.884941
     16          6           0      -18.911690   -1.026310    3.068242
     17          6           0      -18.649061   -2.056418    4.057840
     18          6           0      -19.058985   -3.323100    3.482420
     19          6           0      -19.481204   -2.939876    2.067186
     20          6           0      -18.216954   -1.777281    5.503041
     21          6           0      -19.085597   -4.719957    4.072608
     22          8           0      -19.493734   -5.663380    3.408471
     23          6           0      -18.815080   -4.884199    5.518846
     24          7           0      -20.200206   -2.348391   -0.977866
     25          6           0      -20.259132   -3.555344   -0.349215
     26          6           0      -20.714180   -4.646605   -1.353262
     27          6           0      -20.918236   -3.878698   -2.716578
     28          6           0      -20.586034   -2.424489   -2.293059
     29          6           0      -19.671871   -5.776931   -1.424480
     30          6           0      -22.357126   -3.942908   -3.294147
     31          6           0      -22.398672   -4.968211   -4.423014
     32          7           0      -19.851139    0.397618   -1.771775
     33          6           0      -19.975237   -0.059380   -3.041316
     34          6           0      -19.621272    1.057935   -3.950205
     35          6           0      -19.546662    2.193486   -3.197935
     36          6           0      -19.650010    1.720553   -1.864799
     37          6           0      -19.597300    0.876765   -5.458627
     38          6           0      -19.394953    3.654625   -3.196179
     39          8           0      -19.223073    4.416048   -4.140390
     40          6           0      -19.469292    4.063945   -1.737857
     41          6           0      -18.296667    4.923282   -1.510671
     42          8           0      -17.106678    4.625306   -1.340753
     43          8           0      -18.723685    6.233139   -1.588023
     44          6           0      -17.709179    7.256741   -1.460958
     45          1           0      -18.400609    0.756915    4.282412
     46          1           0      -20.032840   -4.812578    1.420457
     47          1           0      -20.427865   -1.794708   -4.228244
     48          1           0      -18.658509    4.385886    1.197732
     49          1           0      -19.879920    3.248392    3.558482
     50          1           0      -16.960109    2.802248    3.364366
     51          1           0      -17.943301    3.484923    4.511343
     52          1           0      -17.478095    4.431969    2.978981
     53          1           0      -21.476964    3.796288    2.125945
     54          1           0      -21.260150    4.386236    0.544880
     55          1           0      -21.790836    6.038366    2.612611
     56          1           0      -21.066542    6.419106    1.058611
     57          1           0      -17.964453   -0.734416    5.695749
     58          1           0      -17.339020   -2.375974    5.749386
     59          1           0      -18.989297   -2.151915    6.173744
     60          1           0      -19.608729   -4.388267    6.078217
     61          1           0      -17.780894   -4.634294    5.755598
     62          1           0      -18.912919   -5.923259    5.833457
     63          1           0      -21.627235   -5.092864   -0.959865
     64          1           0      -20.132300   -4.255004   -3.372711
     65          1           0      -19.252128   -5.992759   -2.406568
     66          1           0      -20.309789   -6.614276   -1.142424
     67          1           0      -18.778207   -5.609130   -0.824046
     68          1           0      -22.577250   -3.036572   -3.858522
     69          1           0      -23.118963   -4.180370   -2.551398
     70          1           0      -23.287199   -5.558476   -4.199469
     71          1           0      -21.605898   -5.714636   -4.379743
     72          1           0      -22.455614   -4.554582   -5.430261
     73          1           0      -19.625621   -0.156762   -5.804741
     74          1           0      -18.734873    1.352132   -5.924297
     75          1           0      -20.541344    1.247555   -5.859425
     76          1           0      -20.406040    4.601206   -1.593289
     77          1           0      -16.909563    7.015706   -2.161867
     78          1           0      -17.283582    7.326508   -0.459668
     79          1           0      -18.129131    8.122021   -1.972699
     80         12           0       19.319915   -0.846606   -0.101667
     81          6           0       21.183443    2.130397   -0.416125
     82          6           0       17.242091    0.782127    2.098626
     83          6           0       17.538732   -3.663579    0.313757
     84          6           0       21.774985   -2.599164   -1.874900
     85          7           0       19.222820    1.231209    0.572528
     86          6           0       19.996514    2.295241    0.377535
     87          6           0       19.562885    3.600613    1.076491
     88          6           0       18.478990    2.941531    2.059850
     89          6           0       18.332068    1.521870    1.569309
     90          6           0       18.869179    2.994771    3.516988
     91          6           0       18.915742    4.712267    0.078995
     92          6           0       19.078782    6.146347    0.591131
     93          1           0       19.901523    7.065495   -0.348088
     94          7           0       17.497158   -1.362185    0.930643
     95          6           0       16.826381   -0.510467    1.842906
     96          6           0       15.563714   -1.143590    2.150407
     97          6           0       15.606635   -2.432403    1.626275
     98          6           0       16.906117   -2.552740    0.893705
     99          6           0       14.528054   -0.553245    3.088673
    100          6           0       14.596376   -3.556611    1.643420
    101          8           0       14.823534   -4.568382    1.046724
    102          6           0       13.271314   -3.424420    2.325531
    103          7           0       19.690378   -2.876409   -0.511225
    104          6           0       18.763852   -3.857585   -0.309818
    105          6           0       19.350136   -5.148768   -0.945330
    106          6           0       20.298987   -4.688152   -2.037318
    107          6           0       20.666928   -3.298025   -1.467283
    108          6           0       20.135287   -5.921769    0.113371
    109          6           0       19.711351   -4.659329   -3.399618
    110          6           0       18.353457   -4.033134   -3.599840
    111          7           0       21.107663   -0.386366   -1.015378
    112          6           0       22.017418   -1.177049   -1.691875
    113          6           0       23.125878   -0.330156   -2.158995
    114          6           0       22.811065    0.959971   -1.697973
    115          6           0       21.617800    0.874096   -1.034103
    116          6           0       24.314548   -0.777253   -2.894599
    117          6           0       23.162330    2.353251   -1.763401
    118          8           0       24.115569    2.940406   -2.354632
    119          6           0       22.057201    3.160853   -0.931825
    120          6           0       22.788683    3.844032    0.194464
    121          8           0       23.576412    3.279455    0.894061
    122          8           0       22.437896    5.203041    0.418002
    123          6           0       22.910546    5.775575    1.715164
    124          1           0       16.602075    1.265960    2.838611
    125          1           0       17.045806   -4.619018    0.506993
    126          1           0       22.484112   -3.041500   -2.578081
    127          1           0       20.426286    4.081435    1.538019
    128          1           0       17.580177    3.535687    1.890326
    129          1           0       18.352509    3.857905    3.936384
    130          1           0       19.948962    2.987242    3.667191
    131          1           0       18.351431    2.141657    3.955312
    132          1           0       17.847478    4.527084   -0.037541
    133          1           0       19.332272    4.616533   -0.923924
    134          1           0       19.535440    5.975804    1.566274
    135          1           0       18.120724    6.610893    0.823634
    136          1           0       14.775742    0.506919    3.125655
    137          1           0       14.797533   -0.991845    4.049038
    138          1           0       13.509606   -0.689815    2.724492
    139          1           0       12.786756   -2.731899    1.637045
    140          1           0       13.312495   -2.967931    3.314111
    141          1           0       12.769689   -4.391706    2.370351
    142          1           0       18.613473   -5.857899   -1.321313
    143          1           0       21.185325   -5.306272   -2.176360
    144          1           0       21.224095   -5.870947    0.124291
    145          1           0       19.852945   -6.970666    0.023416
    146          1           0       19.782752   -5.598723    1.093554
    147          1           0       19.690218   -5.649936   -3.854494
    148          1           0       20.426923   -4.075524   -3.978309
    149          1           0       18.531054   -3.127592   -4.180684
    150          1           0       17.701091   -3.728225   -2.781042
    151          1           0       17.769775   -4.692941   -4.241572
    152          1           0       24.933478   -1.361749   -2.213954
    153          1           0       24.766692    0.151536   -3.242291
    154          1           0       24.049586   -1.451089   -3.710473
    155          1           0       21.587809    3.814228   -1.667497
    156          1           0       23.969934    6.024660    1.654698
    157          1           0       22.754209    5.106553    2.562601
    158          1           0       22.477537    6.734144    1.999646
 ---------------------------------------------------------------------

 SCF Done:  E(RPBE1PBE) =  -4067.36652621     A.U. after   16 cycles

 Excitation energies and oscillator strengths:

 Excited State   1:      Singlet-A      1.8248 eV  679.45 nm  f=0.2769  <S**2>=0.000
     309 -> 315       -0.16553
     311 -> 313        0.66864
     312 -> 314       -0.18772
     311 <- 313       -0.10509
 This state for optimization and/or second-order correction.
 Total Energy, E(TD-HF/TD-DFT) =  -4067.29946663
 Copying the excited state density for this state as the 1-particle RhoCI density.

 Excited State   2:      Singlet-A      1.8264 eV  678.83 nm  f=0.4624  <S**2>=0.000
     310 -> 316       -0.15573
     311 -> 313        0.18764
     312 -> 314        0.66874
     312 <- 314       -0.10738

 Excited State   3:      Singlet-A      1.8645 eV  664.98 nm  f=0.0000  <S**2>=0.000
     312 -> 313        0.70711

 Excited State   4:      Singlet-A      2.0284 eV  611.23 nm  f=0.0000  <S**2>=0.000
     311 -> 314        0.70711

 Excited State   5:      Singlet-A      2.1781 eV  569.23 nm  f=0.1104  <S**2>=0.000
     309 -> 313        0.65714
     311 -> 315        0.25111

 The electronic state is 1-A.
 Alpha  occ. eigenvalues --  -46.92559 -46.92017 -19.25204 -19.25167 -19.20243
 Alpha  occ. eigenvalues --  -19.20118 -19.19684 -19.19268 -19.19027 -19.18718
 Alpha  occ. eigenvalues --  -14.42704 -14.41758 -14.41303 -14.41056 -14.39732
 Alpha  occ. eigenvalues --  -14.39229 -14.38976 -14.38878 -10.36462 -10.36451
 Alpha  occ. eigenvalues --  -10.32708 -10.32444 -10.32103 -10.32048 -10.29621
 Alpha  occ. eigenvalues --  -10.29331 -10.29019 -10.28933 -10.28874 -10.28810
 Alpha  occ. eigenvalues --  -10.28686 -10.28591 -10.28566 -10.28499 -10.28266
 Alpha  occ. eigenvalues --  -10.28254 -10.28050 -10.27935 -10.27484 -10.27397
 Alpha  occ. eigenvalues --  -10.27011 -10.26710 -10.26666 -10.26594 -10.26546
 Alpha  occ. eigenvalues --  -10.26369 -10.26309 -10.26127 -10.26108 -10.25949
 Alpha  occ. eigenvalues --  -10.25846 -10.25815 -10.25734 -10.25624 -10.25584
 Alpha  occ. eigenvalues --  -10.25563 -10.25557 -10.25545 -10.25407 -10.25388
 Alpha  occ. eigenvalues --  -10.25268 -10.25235 -10.24919 -10.24900 -10.24887
 Alpha  occ. eigenvalues --  -10.24863 -10.24568 -10.24511 -10.24435 -10.24262
 Alpha  occ. eigenvalues --  -10.24014 -10.23903 -10.23771 -10.23662 -10.23653
 Alpha  occ. eigenvalues --  -10.23339 -10.23108 -10.23060 -10.23019 -10.22803
 Alpha  occ. eigenvalues --  -10.22779 -10.22723 -10.22565 -10.22512 -10.22397
 Alpha  occ. eigenvalues --  -10.21891  -3.14540  -3.14095  -1.87394  -1.86959
 Alpha  occ. eigenvalues --   -1.86872  -1.86794  -1.86446  -1.86334  -1.10642
 Alpha  occ. eigenvalues --   -1.10357  -1.06618  -1.05042  -1.04902  -1.02229
 Alpha  occ. eigenvalues --   -1.01762  -1.01557  -0.99819  -0.99202  -0.97961
 Alpha  occ. eigenvalues --   -0.97827  -0.97439  -0.97252  -0.96403  -0.96220
 Alpha  occ. eigenvalues --   -0.87868  -0.87405  -0.84249  -0.83707  -0.83567
 Alpha  occ. eigenvalues --   -0.83118  -0.82980  -0.82250  -0.81981  -0.81501
 Alpha  occ. eigenvalues --   -0.81284  -0.81107  -0.80786  -0.79999  -0.78880
 Alpha  occ. eigenvalues --   -0.78637  -0.78184  -0.77889  -0.77075  -0.76813
 Alpha  occ. eigenvalues --   -0.76549  -0.76478  -0.75487  -0.75303  -0.74425
 Alpha  occ. eigenvalues --   -0.74215  -0.72972  -0.72302  -0.71662  -0.71661
 Alpha  occ. eigenvalues --   -0.71491  -0.71171  -0.70567  -0.70337  -0.69324
 Alpha  occ. eigenvalues --   -0.68946  -0.67062  -0.66996  -0.65742  -0.65498
 Alpha  occ. eigenvalues --   -0.64041  -0.63522  -0.63282  -0.62924  -0.62392
 Alpha  occ. eigenvalues --   -0.62292  -0.61473  -0.61388  -0.60190  -0.59843
 Alpha  occ. eigenvalues --   -0.59430  -0.59361  -0.59217  -0.58821  -0.58512
 Alpha  occ. eigenvalues --   -0.57883  -0.56796  -0.56380  -0.54756  -0.54613
 Alpha  occ. eigenvalues --   -0.54446  -0.54287  -0.53745  -0.53631  -0.53604
 Alpha  occ. eigenvalues --   -0.53377  -0.53060  -0.53047  -0.52303  -0.52274
 Alpha  occ. eigenvalues --   -0.50903  -0.50573  -0.50354  -0.50316  -0.49693
 Alpha  occ. eigenvalues --   -0.49359  -0.49231  -0.49056  -0.48640  -0.48485
 Alpha  occ. eigenvalues --   -0.48216  -0.48096  -0.48066  -0.47921  -0.47917
 Alpha  occ. eigenvalues --   -0.47777  -0.47686  -0.47566  -0.47497  -0.47110
 Alpha  occ. eigenvalues --   -0.46574  -0.46508  -0.46412  -0.46062  -0.46030
 Alpha  occ. eigenvalues --   -0.45934  -0.45464  -0.45457  -0.45344  -0.44870
 Alpha  occ. eigenvalues --   -0.44724  -0.44593  -0.44377  -0.44289  -0.44195
 Alpha  occ. eigenvalues --   -0.44057  -0.43949  -0.43831  -0.43822  -0.43708
 Alpha  occ. eigenvalues --   -0.43702  -0.43310  -0.43010  -0.42913  -0.42820
 Alpha  occ. eigenvalues --   -0.42542  -0.42381  -0.42174  -0.42120  -0.41915
 Alpha  occ. eigenvalues --   -0.41748  -0.41513  -0.41430  -0.41115  -0.41049
 Alpha  occ. eigenvalues --   -0.40862  -0.40747  -0.40624  -0.40413  -0.40132
 Alpha  occ. eigenvalues --   -0.40030  -0.39995  -0.39739  -0.39596  -0.39523
 Alpha  occ. eigenvalues --   -0.39278  -0.39204  -0.39112  -0.39079  -0.38854
 Alpha  occ. eigenvalues --   -0.38558  -0.38456  -0.38381  -0.38219  -0.38008
 Alpha  occ. eigenvalues --   -0.37998  -0.37863  -0.37824  -0.37718  -0.37632
 Alpha  occ. eigenvalues --   -0.37385  -0.37312  -0.37309  -0.37272  -0.36788
 Alpha  occ. eigenvalues --   -0.36676  -0.36425  -0.36391  -0.36199  -0.35893
 Alpha  occ. eigenvalues --   -0.35871  -0.35816  -0.35291  -0.35255  -0.35187
 Alpha  occ. eigenvalues --   -0.34866  -0.34695  -0.34436  -0.33925  -0.33505
 Alpha  occ. eigenvalues --   -0.33276  -0.33028  -0.32989  -0.32805  -0.32688
 Alpha  occ. eigenvalues --   -0.32330  -0.32094  -0.31610  -0.31437  -0.31308
 Alpha  occ. eigenvalues --   -0.31205  -0.30947  -0.29800  -0.29522  -0.29426
 Alpha  occ. eigenvalues --   -0.29134  -0.28798  -0.28291  -0.27113  -0.26964
 Alpha  occ. eigenvalues --   -0.26481  -0.26189  -0.25976  -0.25968  -0.25581
 Alpha  occ. eigenvalues --   -0.25569  -0.25284  -0.25244  -0.21015  -0.20768
 Alpha  occ. eigenvalues --   -0.18946  -0.18614
 Alpha virt. eigenvalues --   -0.11422  -0.11155  -0.05235  -0.05090  -0.04077
 Alpha virt. eigenvalues --   -0.03802  -0.02478  -0.02219  -0.00468   0.00052
 Alpha virt. eigenvalues --    0.00526   0.00748   0.00948   0.01043   0.01363

 Mulliken charges:
               1
     1  Mg  12.000101
     2  C    5.993899
     3  C    6.000935
     4  C    6.006054
     5  C    5.998615
     6  N    6.996152
     7  C    6.008876
     8  C    5.998589
     9  C    6.003052
    10  C    5.991975
    11  C    6.000507
    12  C    5.998850
    13  C    6.000053
    14  H    1.001686
    15  N    7.001271
    16  C    5.990269
    17  C    5.994944
    18  C    5.995321
    19  C    5.992323
    20  C    6.000650
    21  C    5.996079
    22  O    7.991819
    23  C    6.002054
    24  N    7.001737
    25  C    5.991493
    26  C    6.001865
    27  C    5.997049
    28  C    6.007374
    29  C    6.000610
    30  C    5.998820
    31  C    5.999571
    32  N    6.999684
    33  C    6.009061
    34  C    6.008209
    35  C    6.000131
    36  C    6.009042
    37  C    5.999200
    38  C    6.005267
    39  O    8.007213
    40  C    6.000069
    41  C    6.000854
    42  O    8.002067
    43  O    8.000181
    44  C    5.999671
    45  H    0.996416
    46  H    0.999453
    47  H    1.002991
    48  H    0.999198
    49  H    0.998375
    50  H    1.000215
    51  H    1.000203
    52  H    0.996511
    53  H    1.002497
    54  H    0.998002
    55  H    1.000879
    56  H    0.998866
    57  H    0.995735
    58  H    0.995384
    59  H    0.995594
    60  H    0.998045
    61  H    0.997851
    62  H    0.996021
    63  H    1.000567
    64  H    1.000949
    65  H    0.997798
    66  H    1.000092
    67  H    1.001323
    68  H    0.998834
    69  H    1.002537
    70  H    1.001524
    71  H    1.001407
    72  H    0.999710
    73  H    1.004702
    74  H    1.004780
    75  H    1.005552
    76  H    1.002047
    77  H    1.000153
    78  H    1.001771
    79  H    1.000778
    80  Mg  11.995687
    81  C    6.016636
    82  C    5.988292
    83  C    5.986572
    84  C    6.009499
    85  N    7.010667
    86  C    5.963584
    87  C    6.013283
    88  C    5.984100
    89  C    6.035974
    90  C    5.996616
    91  C    6.001010
    92  C    6.000129
    93  H    1.003222
    94  N    6.993105
    95  C    6.041005
    96  C    6.011873
    97  C    6.020349
    98  C    6.026246
    99  C    5.999612
   100  C    6.011077
   101  O    8.027009
   102  C    5.997525
   103  N    6.999126
   104  C    6.024797
   105  C    5.996785
   106  C    6.003911
   107  C    5.973919
   108  C    6.001565
   109  C    6.005882
   110  C    5.999684
   111  N    6.998105
   112  C    5.963797
   113  C    5.968506
   114  C    5.999785
   115  C    5.974783
   116  C    6.000421
   117  C    5.986896
   118  O    7.972139
   119  C    5.996745
   120  C    5.994810
   121  O    7.997950
   122  O    7.997220
   123  C    6.002011
   124  H    1.009932
   125  H    1.004282
   126  H    0.992451
   127  H    1.002040
   128  H    1.005246
   129  H    1.007569
   130  H    1.013079
   131  H    0.994573
   132  H    0.989750
   133  H    1.005708
   134  H    0.997295
   135  H    0.994941
   136  H    1.013499
   137  H    1.013739
   138  H    1.013187
   139  H    1.007266
   140  H    1.006839
   141  H    1.013146
   142  H    0.998834
   143  H    0.999595
   144  H    1.010860
   145  H    1.001430
   146  H    0.993917
   147  H    0.993214
   148  H    1.006045
   149  H    1.005648
   150  H    0.985347
   151  H    0.997329
   152  H    0.979812
   153  H    0.987700
   154  H    0.981329
   155  H    0.994299
   156  H    0.998582
   157  H    0.994913
   158  H    0.994697
 Sum of Mulliken charges = 624.00000

 Dipole moment (field-independent basis, Debye):
    X=             -8.6083    Y=             -1.1978    Z=              2.1188  Tot=              8.9458
 Quadrupole moment (field-independent basis, Debye-Ang):
   XX=           -305.5418   YY=              1.0290   ZZ=             -0.5138
   XY=            -64.7154   XZ=            138.5020   YZ=             -1.8807

 Normal termination of Gaussian 16 at Fri Oct 15 00:50:57 2021.
