 Gaussian 16, Revision A.03,
 Gaussian 16:  ES64L-G16RevA.03 25-Dec-2016

 --------------------------------------------------------
 #p PBE1PBE/Def2SVP td=(nstates=5) density=(transition=1)
 --------------------------------------------------------

 --------------------------------
 TDDFT excited states in gaussian
 --------------------------------
 Symbolic Z-matrix:
 Charge =  0 Multiplicity = 1

                         Standard orientation:
 ---------------------------------------------------------------------
 Center     Atomic      Atomic             Coordinates (Angstroms)
 Number     Number       Type             X           Y           Z
 ---------------------------------------------------------------------
      1         12           0      -23.795494    0.591606    0.197133
      2          6           0      -22.670843   -2.363684   -1.312459
      3          6           0      -21.624923    2.388233   -1.946869
      4          6           0      -24.600803    3.436014    1.867553
      5          6           0      -25.272418   -1.313700    2.668880
      6          7           0      -22.486263    0.049515   -1.506970
      7          6           0      -22.349367   -1.239089   -2.031141
      8          6           0      -21.742553   -1.144517   -3.477343
      9          6           0      -21.354989    0.335238   -3.579591
     10          6           0      -21.810620    0.979694   -2.224036
     11          6           0      -19.825334    0.480109   -3.801857
     12          6           0      -22.782265   -1.641285   -4.474448
     13          6           0      -22.289427   -2.252560   -5.775848
     14          1           0      -20.805894   -2.054882   -6.161133
     15          7           0      -23.235910    2.643120    0.019378
     16          6           0      -22.310734    3.167527   -0.903181
     17          6           0      -22.144516    4.596510   -0.703729
     18          6           0      -23.045128    4.991765    0.362245
     19          6           0      -23.656954    3.666850    0.807539
     20          6           0      -21.315177    5.506754   -1.618547
     21          6           0      -23.352693    6.356581    0.947839
     22          8           0      -24.174699    6.471821    1.847133
     23          6           0      -22.806812    7.556732    0.274481
     24          7           0      -24.869471    0.974324    1.998868
     25          6           0      -25.139933    2.241877    2.417877
     26          6           0      -26.131505    2.198538    3.609907
     27          6           0      -26.412854    0.663504    3.843287
     28          6           0      -25.563320    0.028637    2.712055
     29          6           0      -25.530771    2.915069    4.832535
     30          6           0      -27.897545    0.239816    3.687418
     31          6           0      -28.517656    0.068584    5.070696
     32          7           0      -23.903474   -1.427023    0.736691
     33          6           0      -24.460751   -2.080994    1.784425
     34          6           0      -24.012554   -3.493033    1.713484
     35          6           0      -23.418641   -3.676535    0.499174
     36          6           0      -23.338382   -2.365895   -0.036905
     37          6           0      -24.406695   -4.505105    2.776074
     38          6           0      -22.834440   -4.636645   -0.446787
     39          8           0      -22.670730   -5.844303   -0.321876
     40          6           0      -22.429432   -3.813977   -1.654661
     41          6           0      -21.032629   -4.184378   -1.931911
     42          8           0      -19.985109   -3.833143   -1.372382
     43          8           0      -21.047005   -5.117062   -2.948742
     44          6           0      -19.770085   -5.674665   -3.338208
     45          1           0      -21.006963    2.912920   -2.678192
     46          1           0      -24.889425    4.405558    2.278899
     47          1           0      -25.689545   -1.836245    3.532336
     48          1           0      -20.881000   -1.804717   -3.370451
     49          1           0      -21.787581    0.690814   -4.514703
     50          1           0      -19.277082    0.905777   -2.961252
     51          1           0      -19.701688    1.293672   -4.516087
     52          1           0      -19.351935   -0.471403   -4.043192
     53          1           0      -23.436893   -0.782410   -4.625515
     54          1           0      -23.436341   -2.353853   -3.973304
     55          1           0      -22.928670   -1.904763   -6.586206
     56          1           0      -22.517218   -3.306257   -5.611015
     57          1           0      -20.719372    4.968462   -2.355922
     58          1           0      -20.628474    6.106873   -1.020064
     59          1           0      -21.980599    6.240111   -2.072539
     60          1           0      -23.254070    7.631162   -0.717054
     61          1           0      -21.720521    7.592816    0.356420
     62          1           0      -23.137354    8.476812    0.756552
     63          1           0      -27.014848    2.767857    3.321539
     64          1           0      -25.959538    0.437272    4.809276
     65          1           0      -25.444444    2.329914    5.747633
     66          1           0      -26.305867    3.665293    4.987565
     67          1           0      -24.511918    3.275179    4.692635
     68          1           0      -27.960343   -0.787291    3.327523
     69          1           0      -28.494356    0.936909    3.098912
     70          1           0      -29.462802    0.606060    4.995295
     71          1           0      -28.002992    0.611901    5.862808
     72          1           0      -28.685706   -0.961901    5.384918
     73          1           0      -24.829669   -4.083057    3.688073
     74          1           0      -23.578503   -5.149041    3.069407
     75          1           0      -25.260583   -5.072160    2.403692
     76          1           0      -23.095424   -4.081433   -2.474397
     77          1           0      -19.273781   -6.023522   -2.432262
     78          1           0      -19.116653   -4.959520   -3.838383
     79          1           0      -20.017024   -6.639675   -3.779485
     80         12           0       23.950961    0.274849   -0.184088
     81          6           0       21.627350   -2.223654    0.469706
     82          6           0       21.292999    1.986782   -1.862205
     83          6           0       25.881195    2.921998   -0.452573
     84          6           0       26.135399   -1.262313    2.101319
     85          7           0       21.703786   -0.042840   -0.522594
     86          6           0       21.039404   -1.210517   -0.221092
     87          6           0       19.574878   -1.110710   -0.656377
     88          6           0       19.614394    0.107528   -1.619997
     89          6           0       20.930274    0.769064   -1.305141
     90          6           0       19.498245   -0.155086   -3.172838
     91          6           0       18.606005   -0.927293    0.523307
     92          6           0       17.165474   -0.994180    0.186342
     93          1           0       16.169233   -1.341940    1.357521
     94          7           0       23.644429    2.227841   -1.035523
     95          6           0       22.505778    2.717910   -1.693858
     96          6           0       22.787025    4.056665   -2.131736
     97          6           0       24.086080    4.403685   -1.606240
     98          6           0       24.613487    3.129535   -1.006437
     99          6           0       21.743809    4.941406   -2.868506
    100          6           0       24.705615    5.793747   -1.782014
    101          8           0       24.199889    6.638920   -2.501692
    102          6           0       25.959770    6.116772   -1.063517
    103          7           0       25.851897    0.641546    0.536908
    104          6           0       26.444515    1.803559    0.241944
    105          6           0       27.804941    1.926788    1.040573
    106          6           0       27.906785    0.624313    1.923969
    107          6           0       26.481764   -0.055739    1.538245
    108          6           0       29.086669    2.249836    0.228498
    109          6           0       27.977051    0.997565    3.420213
    110          6           0       28.744521    0.007668    4.304966
    111          7           0       23.965324   -1.406077    1.074412
    112          6           0       24.945999   -1.974479    1.838168
    113          6           0       24.473452   -3.285331    2.299513
    114          6           0       23.245523   -3.444340    1.715317
    115          6           0       22.933113   -2.284170    1.043712
    116          6           0       25.277198   -4.294609    3.125772
    117          6           0       22.123021   -4.328019    1.616659
    118          8           0       21.924992   -5.436346    2.049991
    119          6           0       21.028307   -3.575530    0.788767
    120          6           0       20.814945   -4.339440   -0.471140
    121          8           0       21.654682   -4.734345   -1.231628
    122          8           0       19.433366   -4.413198   -0.719588
    123          6           0       19.057038   -5.053742   -1.947604
    124          1           0       20.450663    2.383474   -2.431971
    125          1           0       26.636451    3.710921   -0.476266
    126          1           0       26.818609   -1.802193    2.760455
    127          1           0       19.381926   -2.001891   -1.252055
    128          1           0       18.885998    0.893577   -1.423923
    129          1           0       18.703261    0.518085   -3.492978
    130          1           0       19.563939   -1.185987   -3.521763
    131          1           0       20.395988    0.269818   -3.621614
    132          1           0       18.641906    0.044859    1.015718
    133          1           0       18.827172   -1.659464    1.299989
    134          1           0       17.066015   -1.733765   -0.608153
    135          1           0       16.865933   -0.048498   -0.265055
    136          1           0       21.497360    5.585791   -2.024025
    137          1           0       20.796087    4.460703   -3.111941
    138          1           0       21.976048    5.537446   -3.751252
    139          1           0       25.769861    5.814307   -0.033694
    140          1           0       26.090768    7.198965   -1.071264
    141          1           0       26.707987    5.514997   -1.579991
    142          1           0       27.679555    2.793196    1.690584
    143          1           0       28.715463   -0.055374    1.657222
    144          1           0       29.357882    3.287135    0.427416
    145          1           0       28.903499    2.008324   -0.817983
    146          1           0       29.926130    1.678128    0.624116
    147          1           0       26.936853    1.074277    3.735740
    148          1           0       28.356878    2.001482    3.610959
    149          1           0       29.515134    0.633700    4.756094
    150          1           0       29.130591   -0.866012    3.779712
    151          1           0       28.109885   -0.341466    5.119577
    152          1           0       24.749949   -4.775964    3.948762
    153          1           0       26.114940   -3.685267    3.465702
    154          1           0       25.754834   -4.957609    2.404216
    155          1           0       20.130417   -3.568339    1.406819
    156          1           0       18.605470   -6.006293   -1.670261
    157          1           0       19.813640   -5.234658   -2.711475
    158          1           0       18.322198   -4.412574   -2.433693
 ---------------------------------------------------------------------

 SCF Done:  E(RPBE1PBE) =  -4067.37541049     A.U. after   16 cycles

 Excitation energies and oscillator strengths:

 Excited State   1:      Singlet-A      1.8263 eV  678.87 nm  f=0.3779  <S**2>=0.000
     310 -> 316       -0.16169
     312 -> 314        0.69458
     312 <- 314       -0.11150
 This state for optimization and/or second-order correction.
 Total Energy, E(TD-HF/TD-DFT) =  -4067.30829372
 Copying the excited state density for this state as the 1-particle RhoCI density.

 Excited State   2:      Singlet-A      1.8467 eV  671.39 nm  f=0.0000  <S**2>=0.000
     312 -> 313        0.70711

 Excited State   3:      Singlet-A      1.9035 eV  651.34 nm  f=0.3846  <S**2>=0.000
     309 -> 315       -0.17021
     311 -> 313        0.69346
     311 <- 313       -0.10647

 Excited State   4:      Singlet-A      2.1431 eV  578.52 nm  f=0.0000  <S**2>=0.000
     311 -> 314        0.70711

 Excited State   5:      Singlet-A      2.2008 eV  563.37 nm  f=0.1155  <S**2>=0.000
     310 -> 314        0.65564
     312 -> 316        0.24478

 The electronic state is 1-A.
 Alpha  occ. eigenvalues --  -46.93036 -46.92521 -19.25664 -19.25164 -19.20738
 Alpha  occ. eigenvalues --  -19.20077 -19.19646 -19.19231 -19.18948 -19.18708
 Alpha  occ. eigenvalues --  -14.42218 -14.41786 -14.41720 -14.41266 -14.39728
 Alpha  occ. eigenvalues --  -14.39694 -14.38938 -14.38894 -10.36568 -10.36422
 Alpha  occ. eigenvalues --  -10.32670 -10.32406 -10.31804 -10.31481 -10.29889
 Alpha  occ. eigenvalues --  -10.29583 -10.29061 -10.28924 -10.28838 -10.28649
 Alpha  occ. eigenvalues --  -10.28604 -10.28553 -10.28531 -10.28529 -10.28488
 Alpha  occ. eigenvalues --  -10.28447 -10.28225 -10.28013 -10.27359 -10.27295
 Alpha  occ. eigenvalues --  -10.26974 -10.26896 -10.26556 -10.26508 -10.26325
 Alpha  occ. eigenvalues --  -10.26148 -10.26089 -10.26084 -10.26063 -10.25977
 Alpha  occ. eigenvalues --  -10.25903 -10.25808 -10.25747 -10.25697 -10.25587
 Alpha  occ. eigenvalues --  -10.25546 -10.25519 -10.25510 -10.25470 -10.25466
 Alpha  occ. eigenvalues --  -10.25372 -10.25252 -10.25236 -10.25230 -10.25178
 Alpha  occ. eigenvalues --  -10.24880 -10.24675 -10.24398 -10.24231 -10.24225
 Alpha  occ. eigenvalues --  -10.23984 -10.23981 -10.23963 -10.23924 -10.23866
 Alpha  occ. eigenvalues --  -10.23739 -10.23713 -10.23624 -10.23247 -10.23117
 Alpha  occ. eigenvalues --  -10.23071 -10.22978 -10.22744 -10.22685 -10.22480
 Alpha  occ. eigenvalues --  -10.21928  -3.15040  -3.14502  -1.87886  -1.87418
 Alpha  occ. eigenvalues --   -1.87356  -1.87249  -1.86834  -1.86756  -1.11416
 Alpha  occ. eigenvalues --   -1.10602  -1.05274  -1.05005  -1.04864  -1.04665
 Alpha  occ. eigenvalues --   -1.03715  -1.01722  -0.99289  -0.99165  -0.98435
 Alpha  occ. eigenvalues --   -0.98290  -0.97452  -0.97402  -0.97214  -0.96182
 Alpha  occ. eigenvalues --   -0.87830  -0.87754  -0.83652  -0.83529  -0.83477
 Alpha  occ. eigenvalues --   -0.83107  -0.83084  -0.82447  -0.82213  -0.81463
 Alpha  occ. eigenvalues --   -0.81069  -0.80871  -0.80191  -0.79961  -0.79415
 Alpha  occ. eigenvalues --   -0.78599  -0.78351  -0.78148  -0.77330  -0.77038
 Alpha  occ. eigenvalues --   -0.76766  -0.76440  -0.75679  -0.75266  -0.75228
 Alpha  occ. eigenvalues --   -0.74388  -0.72264  -0.72092  -0.71704  -0.71623
 Alpha  occ. eigenvalues --   -0.71268  -0.71132  -0.70542  -0.70300  -0.69832
 Alpha  occ. eigenvalues --   -0.68909  -0.67782  -0.67025  -0.66484  -0.65460
 Alpha  occ. eigenvalues --   -0.63775  -0.63483  -0.63420  -0.62889  -0.62355
 Alpha  occ. eigenvalues --   -0.62305  -0.61436  -0.61053  -0.60496  -0.60114
 Alpha  occ. eigenvalues --   -0.59807  -0.59424  -0.59323  -0.59179  -0.59115
 Alpha  occ. eigenvalues --   -0.58474  -0.57308  -0.56757  -0.54705  -0.54575
 Alpha  occ. eigenvalues --   -0.54547  -0.54249  -0.53867  -0.53593  -0.53339
 Alpha  occ. eigenvalues --   -0.53334  -0.53110  -0.53010  -0.52266  -0.52242
 Alpha  occ. eigenvalues --   -0.51104  -0.50535  -0.50408  -0.50316  -0.49936
 Alpha  occ. eigenvalues --   -0.49654  -0.49483  -0.49320  -0.48962  -0.48603
 Alpha  occ. eigenvalues --   -0.48181  -0.48150  -0.48030  -0.47879  -0.47824
 Alpha  occ. eigenvalues --   -0.47739  -0.47528  -0.47526  -0.47459  -0.47330
 Alpha  occ. eigenvalues --   -0.46563  -0.46535  -0.46374  -0.46313  -0.46131
 Alpha  occ. eigenvalues --   -0.46024  -0.45463  -0.45419  -0.45325  -0.44973
 Alpha  occ. eigenvalues --   -0.44874  -0.44832  -0.44520  -0.44339  -0.44157
 Alpha  occ. eigenvalues --   -0.44021  -0.43963  -0.43784  -0.43760  -0.43664
 Alpha  occ. eigenvalues --   -0.43357  -0.43271  -0.42877  -0.42873  -0.42771
 Alpha  occ. eigenvalues --   -0.42504  -0.42243  -0.42082  -0.42027  -0.41919
 Alpha  occ. eigenvalues --   -0.41765  -0.41711  -0.41476  -0.41128  -0.41104
 Alpha  occ. eigenvalues --   -0.41077  -0.40869  -0.40824  -0.40586  -0.40566
 Alpha  occ. eigenvalues --   -0.40127  -0.39992  -0.39862  -0.39699  -0.39485
 Alpha  occ. eigenvalues --   -0.39366  -0.39241  -0.39168  -0.39042  -0.39040
 Alpha  occ. eigenvalues --   -0.38650  -0.38420  -0.38391  -0.38191  -0.38181
 Alpha  occ. eigenvalues --   -0.38023  -0.37960  -0.37825  -0.37796  -0.37680
 Alpha  occ. eigenvalues --   -0.37634  -0.37348  -0.37274  -0.37257  -0.37164
 Alpha  occ. eigenvalues --   -0.36828  -0.36753  -0.36682  -0.36397  -0.36388
 Alpha  occ. eigenvalues --   -0.36162  -0.35853  -0.35469  -0.35254  -0.35224
 Alpha  occ. eigenvalues --   -0.34828  -0.34746  -0.34653  -0.33887  -0.33736
 Alpha  occ. eigenvalues --   -0.33470  -0.33045  -0.32993  -0.32952  -0.32767
 Alpha  occ. eigenvalues --   -0.32685  -0.31955  -0.31572  -0.31511  -0.31267
 Alpha  occ. eigenvalues --   -0.31138  -0.30910  -0.30148  -0.29568  -0.29388
 Alpha  occ. eigenvalues --   -0.29253  -0.29094  -0.28253  -0.27395  -0.26927
 Alpha  occ. eigenvalues --   -0.26443  -0.26152  -0.26026  -0.25938  -0.25804
 Alpha  occ. eigenvalues --   -0.25601  -0.25543  -0.25124  -0.21556  -0.20731
 Alpha  occ. eigenvalues --   -0.19274  -0.18577
 Alpha virt. eigenvalues --   -0.11510  -0.11118  -0.05479  -0.05052  -0.04039
 Alpha virt. eigenvalues --   -0.03318  -0.02440  -0.01723  -0.00737  -0.00430
 Alpha virt. eigenvalues --    0.00293   0.00565   0.00673   0.01081   0.01485

 Mulliken charges:
               1
     1  Mg  11.999694
     2  C    6.022981
     3  C    5.996627
     4  C    5.977570
     5  C    6.005142
     6  N    7.014221
     7  C    5.966757
     8  C    6.005215
     9  C    5.988775
    10  C    6.029573
    11  C    5.998172
    12  C    6.004174
    13  C    5.999796
    14  H    0.993591
    15  N    6.995413
    16  C    6.035940
    17  C    6.018470
    18  C    6.017291
    19  C    6.028184
    20  C    5.997686
    21  C    6.014448
    22  O    8.030480
    23  C    5.992417
    24  N    6.993597
    25  C    6.031443
    26  C    5.993069
    27  C    6.011057
    28  C    5.972743
    29  C    5.997737
    30  C    6.004277
    31  C    6.001502
    32  N    7.001148
    33  C    5.966382
    34  C    5.969499
    35  C    5.999581
    36  C    5.966352
    37  C    6.003002
    38  C    5.980621
    39  O    7.973514
    40  C    5.999711
    41  C    5.996786
    42  O    7.992130
    43  O    7.999380
    44  C    6.001212
    45  H    1.013082
    46  H    1.002059
    47  H    0.989135
    48  H    1.002897
    49  H    1.006173
    50  H    0.998870
    51  H    0.999249
    52  H    1.012855
    53  H    0.990892
    54  H    1.007551
    55  H    0.996967
    56  H    1.004339
    57  H    1.015651
    58  H    1.016694
    59  H    1.016399
    60  H    1.007370
    61  H    1.007581
    62  H    1.014681
    63  H    0.998089
    64  H    0.996426
    65  H    1.008124
    66  H    0.999776
    67  H    0.994804
    68  H    1.004465
    69  H    0.990742
    70  H    0.994555
    71  H    0.994718
    72  H    1.001187
    73  H    0.982670
    74  H    0.982270
    75  H    0.979713
    76  H    0.992619
    77  H    0.999359
    78  H    0.993310
    79  H    0.997370
    80  Mg  12.000000
    81  C    5.999980
    82  C    6.000031
    83  C    5.999969
    84  C    5.999972
    85  N    6.999973
    86  C    6.000096
    87  C    5.999968
    88  C    6.000039
    89  C    5.999924
    90  C    6.000023
    91  C    5.999982
    92  C    6.000005
    93  H    1.000009
    94  N    7.000058
    95  C    5.999825
    96  C    5.999932
    97  C    5.999895
    98  C    5.999915
    99  C    5.999993
   100  C    5.999939
   101  O    7.999869
   102  C    6.000014
   103  N    7.000070
   104  C    5.999900
   105  C    6.000035
   106  C    5.999972
   107  C    6.000052
   108  C    6.000000
   109  C    5.999981
   110  C    5.999991
   111  N    6.999925
   112  C    6.000179
   113  C    6.000127
   114  C    6.000030
   115  C    6.000103
   116  C    6.000049
   117  C    6.000063
   118  O    8.000181
   119  C    5.999985
   120  C    6.000040
   121  O    8.000019
   122  O    7.999999
   123  C    5.999993
   124  H    0.999921
   125  H    0.999985
   126  H    1.000047
   127  H    1.000015
   128  H    0.999971
   129  H    0.999949
   130  H    0.999962
   131  H    1.000011
   132  H    1.000011
   133  H    0.999993
   134  H    1.000015
   135  H    0.999989
   136  H    0.999916
   137  H    0.999926
   138  H    0.999913
   139  H    0.999965
   140  H    0.999930
   141  H    0.999979
   142  H    0.999996
   143  H    1.000017
   144  H    0.999992
   145  H    1.000007
   146  H    0.999978
   147  H    0.999995
   148  H    1.000030
   149  H    1.000023
   150  H    1.000007
   151  H    1.000000
   152  H    1.000088
   153  H    1.000060
   154  H    1.000091
   155  H    1.000039
   156  H    1.000045
   157  H    1.000020
   158  H    1.000008
 Sum of Mulliken charges = 624.00000

 Dipole moment (field-independent basis, Debye):
    X=              1.9533    Y=             10.0563    Z=             -2.0484  Tot=             10.4470
 Quadrupole moment (field-independent basis, Debye-Ang):
   XX=            -91.8159   YY=             13.1187   ZZ=             -3.4845
   XY=           -233.1693   XZ=             50.5586   YZ=              2.8548

 Normal termination of Gaussian 16 at Fri Oct 15 03:29:13 2021.
