 Gaussian 16, Revision A.03,
 Gaussian 16:  ES64L-G16RevA.03 25-Dec-2016

 --------------------------------------------------------
 #p PBE1PBE/Def2SVP td=(nstates=5) density=(transition=1)
 --------------------------------------------------------

 --------------------------------
 TDDFT excited states in gaussian
 --------------------------------
 Symbolic Z-matrix:
 Charge =  0 Multiplicity = 1

                         Standard orientation:
 ---------------------------------------------------------------------
 Center     Atomic      Atomic             Coordinates (Angstroms)
 Number     Number       Type             X           Y           Z
 ---------------------------------------------------------------------
      1         12           0       22.152643   -0.728773    0.444688
      2          6           0       21.994892    2.325687   -1.341200
      3          6           0       23.119715    1.205127    3.191213
      4          6           0       22.242342   -3.450743    2.278363
      5          6           0       21.983869   -2.465581   -2.562793
      6          7           0       22.468097    1.500575    0.833943
      7          6           0       22.206625    2.558351    0.016708
      8          6           0       22.468118    3.951745    0.613764
      9          6           0       22.955771    3.476664    2.075017
     10          6           0       22.847074    1.982698    1.994781
     11          6           0       24.439327    3.886830    2.431373
     12          6           0       21.187514    4.847573    0.660347
     13          6           0       20.981173    6.104509   -0.175908
     14          1           0       20.227398    7.306892    0.376901
     15          7           0       22.539879   -1.100637    2.482042
     16          6           0       22.992535   -0.184260    3.442211
     17          6           0       23.283855   -0.929865    4.646275
     18          6           0       22.887211   -2.252313    4.463438
     19          6           0       22.477952   -2.304841    3.046368
     20          6           0       23.695473   -0.177385    5.865418
     21          6           0       22.946167   -3.464557    5.392240
     22          8           0       22.585126   -4.604209    5.083196
     23          6           0       23.331361   -3.215294    6.797216
     24          7           0       22.224359   -2.697616   -0.041956
     25          6           0       22.043554   -3.684180    0.887426
     26          6           0       21.607355   -5.026100    0.207436
     27          6           0       21.642213   -4.684408   -1.276509
     28          6           0       22.048468   -3.185246   -1.325477
     29          6           0       22.464546   -6.257747    0.647277
     30          6           0       20.269862   -4.970730   -1.904852
     31          6           0       20.224667   -5.661059   -3.219396
     32          7           0       22.118446   -0.240053   -1.570122
     33          6           0       22.020395   -1.038209   -2.681714
     34          6           0       21.942889   -0.257830   -3.880335
     35          6           0       21.822726    1.150697   -3.440720
     36          6           0       21.933393    1.069503   -1.996788
     37          6           0       21.923907   -0.811126   -5.315551
     38          6           0       21.663833    2.572421   -3.837806
     39          8           0       21.406428    3.071624   -4.946365
     40          6           0       21.766493    3.369896   -2.472877
     41          6           0       22.937367    4.251411   -2.776765
     42          8           0       24.130351    4.009958   -2.637979
     43          8           0       22.540913    5.445748   -3.122088
     44          6           0       23.528054    6.432182   -3.624181
     45          1           0       23.257552    1.937301    3.989162
     46          1           0       22.283233   -4.431300    2.756524
     47          1           0       21.860056   -3.028887   -3.489659
     48          1           0       23.297796    4.396112    0.062545
     49          1           0       22.348998    3.753834    2.937608
     50          1           0       25.079199    4.201961    1.607595
     51          1           0       24.954248    3.045404    2.893684
     52          1           0       24.404236    4.699150    3.157554
     53          1           0       21.092946    5.190270    1.690872
     54          1           0       20.306903    4.258951    0.406314
     55          1           0       20.311302    5.718308   -0.944307
     56          1           0       22.001285    6.329413   -0.487344
     57          1           0       22.979912   -0.296352    6.677834
     58          1           0       23.783761    0.889276    5.657622
     59          1           0       24.653709   -0.502593    6.269405
     60          1           0       22.740321   -2.390219    7.194942
     61          1           0       24.340010   -2.811835    6.887520
     62          1           0       23.158115   -4.056402    7.467742
     63          1           0       20.597605   -5.148389    0.598951
     64          1           0       22.330323   -5.336257   -1.814489
     65          1           0       23.138813   -6.059677    1.480355
     66          1           0       23.097525   -6.658163   -0.143757
     67          1           0       21.813282   -7.112725    0.828252
     68          1           0       19.847533   -3.971700   -2.005113
     69          1           0       19.613564   -5.595947   -1.299982
     70          1           0       19.639859   -4.997141   -3.855606
     71          1           0       19.844515   -6.675555   -3.099866
     72          1           0       21.181103   -5.723245   -3.738943
     73          1           0       22.947232   -0.875352   -5.683547
     74          1           0       21.309424   -0.150440   -5.926922
     75          1           0       21.527297   -1.825641   -5.360700
     76          1           0       20.851203    3.954888   -2.384577
     77          1           0       24.308510    6.683242   -2.906714
     78          1           0       23.086728    7.362558   -3.981038
     79          1           0       24.084323    6.158262   -4.520115
     80         12           0      -22.073913   -0.800972   -0.339428
     81          6           0      -23.818137    1.894515    1.429592
     82          6           0      -19.701983    1.614127   -1.243406
     83          6           0      -20.655138   -3.050414   -2.224812
     84          6           0      -24.414500   -3.025687    0.815659
     85          7           0      -21.905836    1.495065   -0.130693
     86          6           0      -22.655850    2.390685    0.741228
     87          6           0      -22.151210    3.849461    0.718229
     88          6           0      -20.924005    3.686366   -0.353157
     89          6           0      -20.806845    2.175841   -0.636271
     90          6           0      -21.096372    4.514833   -1.611426
     91          6           0      -21.789989    4.328334    2.156882
     92          6           0      -21.015147    5.609546    2.231732
     93          1           0      -21.394320    6.657974    3.253835
     94          7           0      -20.397642   -0.752924   -1.611864
     95          6           0      -19.538228    0.325034   -1.852695
     96          6           0      -18.463267   -0.093643   -2.750388
     97          6           0      -18.717513   -1.492767   -3.058196
     98          6           0      -19.968699   -1.861367   -2.298083
     99          6           0      -17.246256    0.804927   -3.180440
    100          6           0      -18.012907   -2.446708   -3.954028
    101          8           0      -18.314955   -3.623298   -4.102870
    102          6           0      -16.785853   -2.031425   -4.654205
    103          7           0      -22.405742   -2.722807   -0.583276
    104          6           0      -21.773759   -3.445178   -1.510140
    105          6           0      -22.268969   -4.909378   -1.566763
    106          6           0      -23.121868   -4.974915   -0.316840
    107          6           0      -23.405444   -3.451897   -0.017461
    108          6           0      -23.045831   -5.233602   -2.837547
    109          6           0      -22.680962   -5.680881    0.939201
    110          6           0      -21.451699   -5.083907    1.590400
    111          7           0      -23.821694   -0.636451    0.781262
    112          6           0      -24.625114   -1.688987    1.255747
    113          6           0      -25.683933   -1.138644    2.065614
    114          6           0      -25.307881    0.224640    2.177872
    115          6           0      -24.183744    0.499195    1.375888
    116          6           0      -26.778329   -1.861415    2.795301
    117          6           0      -25.715032    1.473511    2.893176
    118          8           0      -26.575378    1.665993    3.778781
    119          6           0      -24.773969    2.564388    2.386902
    120          6           0      -25.583058    3.724330    1.802760
    121          8           0      -26.352071    3.760492    0.797181
    122          8           0      -25.222159    4.844267    2.491857
    123          6           0      -25.832947    6.109940    2.026166
    124          1           0      -18.869725    2.311429   -1.351213
    125          1           0      -20.235132   -3.801265   -2.897252
    126          1           0      -25.208417   -3.670736    1.198140
    127          1           0      -23.012695    4.441061    0.408605
    128          1           0      -19.984537    3.908231    0.153121
    129          1           0      -20.242362    5.186636   -1.702360
    130          1           0      -22.002122    5.102974   -1.468080
    131          1           0      -21.404381    3.995829   -2.518839
    132          1           0      -21.330243    3.466899    2.642545
    133          1           0      -22.715472    4.475222    2.713798
    134          1           0      -21.008608    6.236873    1.340672
    135          1           0      -19.988765    5.389116    2.523666
    136          1           0      -16.371040    0.291505   -2.781275
    137          1           0      -17.280837    1.811396   -2.763674
    138          1           0      -17.255465    0.824190   -4.270305
    139          1           0      -16.846381   -1.037779   -5.098647
    140          1           0      -16.677929   -2.777565   -5.440649
    141          1           0      -16.055179   -1.926357   -3.852798
    142          1           0      -21.384047   -5.545076   -1.534648
    143          1           0      -24.071577   -5.480074   -0.495055
    144          1           0      -22.755698   -6.228214   -3.174206
    145          1           0      -22.821256   -4.520992   -3.630465
    146          1           0      -24.107004   -5.345203   -2.612039
    147          1           0      -22.578460   -6.741367    0.707426
    148          1           0      -23.413520   -5.553286    1.736010
    149          1           0      -20.729631   -5.847563    1.877111
    150          1           0      -21.677188   -4.571332    2.525826
    151          1           0      -20.902391   -4.385824    0.958577
    152          1           0      -26.782130   -1.557486    3.841778
    153          1           0      -26.813178   -2.950727    2.810359
    154          1           0      -27.718700   -1.549770    2.340199
    155          1           0      -24.251336    2.985298    3.246323
    156          1           0      -25.119946    6.657638    1.410271
    157          1           0      -26.084583    6.537739    2.996624
    158          1           0      -26.792978    5.952814    1.532811
 ---------------------------------------------------------------------

 SCF Done:  E(RPBE1PBE) =  -4067.38154812     A.U. after   16 cycles

 Excitation energies and oscillator strengths:

 Excited State   1:      Singlet-A      1.8175 eV  682.18 nm  f=0.3846  <S**2>=0.000
     309 -> 316       -0.16217
     311 -> 313        0.69595
     311 <- 313       -0.11404
 This state for optimization and/or second-order correction.
 Total Energy, E(TD-HF/TD-DFT) =  -4067.31475745
 Copying the excited state density for this state as the 1-particle RhoCI density.

 Excited State   2:      Singlet-A      1.8519 eV  669.51 nm  f=0.0000  <S**2>=0.000
     312 -> 313        0.70711

 Excited State   3:      Singlet-A      1.8639 eV  665.20 nm  f=0.3680  <S**2>=0.000
     310 -> 315        0.18320
     312 -> 314        0.68971

 Excited State   4:      Singlet-A      2.1029 eV  589.59 nm  f=0.0000  <S**2>=0.000
     311 -> 314        0.70711

 Excited State   5:      Singlet-A      2.1799 eV  568.77 nm  f=0.1274  <S**2>=0.000
     309 -> 313        0.66143
     311 -> 316        0.23371

 The electronic state is 1-A.
 Alpha  occ. eigenvalues --  -46.91995 -46.91178 -19.26528 -19.25991 -19.20024
 Alpha  occ. eigenvalues --  -19.19544 -19.19406 -19.18917 -19.18788 -19.18528
 Alpha  occ. eigenvalues --  -14.42102 -14.41987 -14.41674 -14.41591 -14.39535
 Alpha  occ. eigenvalues --  -14.39391 -14.38892 -14.38689 -10.37109 -10.35746
 Alpha  occ. eigenvalues --  -10.32890 -10.32844 -10.32003 -10.31626 -10.29928
 Alpha  occ. eigenvalues --  -10.29243 -10.29222 -10.29184 -10.29063 -10.28976
 Alpha  occ. eigenvalues --  -10.28887 -10.28810 -10.28665 -10.28589 -10.28520
 Alpha  occ. eigenvalues --  -10.28446 -10.28158 -10.28076 -10.27870 -10.27330
 Alpha  occ. eigenvalues --  -10.27026 -10.26931 -10.26873 -10.26850 -10.26818
 Alpha  occ. eigenvalues --  -10.26646 -10.26586 -10.26572 -10.26512 -10.26476
 Alpha  occ. eigenvalues --  -10.26426 -10.26341 -10.25955 -10.25951 -10.25914
 Alpha  occ. eigenvalues --  -10.25832 -10.25765 -10.25723 -10.25492 -10.25381
 Alpha  occ. eigenvalues --  -10.25375 -10.25140 -10.25109 -10.24966 -10.24926
 Alpha  occ. eigenvalues --  -10.24858 -10.24721 -10.24687 -10.24485 -10.24163
 Alpha  occ. eigenvalues --  -10.23967 -10.23888 -10.23706 -10.23564 -10.23564
 Alpha  occ. eigenvalues --  -10.23484 -10.23397 -10.23349 -10.23336 -10.23274
 Alpha  occ. eigenvalues --  -10.23076 -10.22970 -10.22935 -10.22738 -10.22392
 Alpha  occ. eigenvalues --  -10.21993  -3.14170  -3.13495  -1.87012  -1.86546
 Alpha  occ. eigenvalues --   -1.86397  -1.86342  -1.85882  -1.85720  -1.12680
 Alpha  occ. eigenvalues --   -1.10887  -1.04912  -1.04559  -1.03391  -1.02712
 Alpha  occ. eigenvalues --   -1.01385  -1.00670  -1.00073  -0.99675  -0.98481
 Alpha  occ. eigenvalues --   -0.97719  -0.97472  -0.96742  -0.96329  -0.95170
 Alpha  occ. eigenvalues --   -0.86781  -0.86349  -0.84008  -0.83872  -0.83253
 Alpha  occ. eigenvalues --   -0.83143  -0.82982  -0.82967  -0.81901  -0.81634
 Alpha  occ. eigenvalues --   -0.81120  -0.81095  -0.80354  -0.79553  -0.79032
 Alpha  occ. eigenvalues --   -0.78721  -0.78421  -0.77924  -0.77237  -0.77210
 Alpha  occ. eigenvalues --   -0.76710  -0.76321  -0.75827  -0.75232  -0.74879
 Alpha  occ. eigenvalues --   -0.74419  -0.72908  -0.72676  -0.71902  -0.71635
 Alpha  occ. eigenvalues --   -0.71237  -0.71219  -0.70631  -0.70342  -0.69823
 Alpha  occ. eigenvalues --   -0.69524  -0.67309  -0.66829  -0.66345  -0.66264
 Alpha  occ. eigenvalues --   -0.64602  -0.63832  -0.63528  -0.62686  -0.62277
 Alpha  occ. eigenvalues --   -0.62071  -0.61642  -0.61298  -0.60245  -0.59755
 Alpha  occ. eigenvalues --   -0.59599  -0.59428  -0.59245  -0.58815  -0.58769
 Alpha  occ. eigenvalues --   -0.58394  -0.57125  -0.56597  -0.55299  -0.54683
 Alpha  occ. eigenvalues --   -0.54039  -0.53809  -0.53724  -0.53661  -0.53150
 Alpha  occ. eigenvalues --   -0.52930  -0.52462  -0.52319  -0.52301  -0.51963
 Alpha  occ. eigenvalues --   -0.51169  -0.50830  -0.50466  -0.50243  -0.50003
 Alpha  occ. eigenvalues --   -0.49801  -0.49657  -0.49367  -0.48960  -0.48934
 Alpha  occ. eigenvalues --   -0.48847  -0.48465  -0.47945  -0.47873  -0.47508
 Alpha  occ. eigenvalues --   -0.47452  -0.47360  -0.47276  -0.47094  -0.46930
 Alpha  occ. eigenvalues --   -0.46822  -0.46778  -0.46136  -0.45837  -0.45432
 Alpha  occ. eigenvalues --   -0.45368  -0.45182  -0.45016  -0.45016  -0.44823
 Alpha  occ. eigenvalues --   -0.44652  -0.44510  -0.44419  -0.44256  -0.43959
 Alpha  occ. eigenvalues --   -0.43956  -0.43594  -0.43526  -0.43516  -0.43491
 Alpha  occ. eigenvalues --   -0.43233  -0.43176  -0.42954  -0.42903  -0.42767
 Alpha  occ. eigenvalues --   -0.42648  -0.42436  -0.42413  -0.42241  -0.42173
 Alpha  occ. eigenvalues --   -0.41748  -0.41498  -0.41342  -0.41306  -0.41019
 Alpha  occ. eigenvalues --   -0.40917  -0.40844  -0.40720  -0.40685  -0.40511
 Alpha  occ. eigenvalues --   -0.40376  -0.40249  -0.40215  -0.40049  -0.39846
 Alpha  occ. eigenvalues --   -0.39708  -0.39561  -0.39267  -0.39188  -0.39161
 Alpha  occ. eigenvalues --   -0.39102  -0.38905  -0.38858  -0.38837  -0.38374
 Alpha  occ. eigenvalues --   -0.38111  -0.37927  -0.37924  -0.37740  -0.37494
 Alpha  occ. eigenvalues --   -0.37416  -0.37367  -0.37061  -0.36737  -0.36705
 Alpha  occ. eigenvalues --   -0.36497  -0.36452  -0.36349  -0.36141  -0.36097
 Alpha  occ. eigenvalues --   -0.35759  -0.35750  -0.35386  -0.35370  -0.35064
 Alpha  occ. eigenvalues --   -0.34862  -0.34856  -0.34457  -0.34216  -0.34016
 Alpha  occ. eigenvalues --   -0.33862  -0.33458  -0.32946  -0.32348  -0.32285
 Alpha  occ. eigenvalues --   -0.32191  -0.31831  -0.31773  -0.31599  -0.31383
 Alpha  occ. eigenvalues --   -0.31201  -0.30908  -0.29725  -0.29548  -0.29146
 Alpha  occ. eigenvalues --   -0.28896  -0.28632  -0.28119  -0.27299  -0.27095
 Alpha  occ. eigenvalues --   -0.26363  -0.25984  -0.25868  -0.25799  -0.25740
 Alpha  occ. eigenvalues --   -0.25400  -0.25029  -0.24726  -0.21176  -0.20854
 Alpha  occ. eigenvalues --   -0.19121  -0.18816
 Alpha virt. eigenvalues --   -0.11711  -0.11099  -0.05426  -0.05250  -0.04426
 Alpha virt. eigenvalues --   -0.03888  -0.02316  -0.02219  -0.00340  -0.00209
 Alpha virt. eigenvalues --    0.00077   0.01029   0.01455   0.01582   0.01755

 Mulliken charges:
               1
     1  Mg  11.999947
     2  C    6.000131
     3  C    5.999984
     4  C    5.999846
     5  C    6.000052
     6  N    7.000112
     7  C    5.999763
     8  C    6.000101
     9  C    5.999931
    10  C    6.000223
    11  C    5.999952
    12  C    6.000029
    13  C    6.000024
    14  H    0.999946
    15  N    6.999936
    16  C    6.000242
    17  C    6.000178
    18  C    6.000153
    19  C    6.000191
    20  C    5.999955
    21  C    6.000102
    22  O    8.000206
    23  C    5.999951
    24  N    6.999884
    25  C    6.000316
    26  C    5.999960
    27  C    6.000036
    28  C    5.999810
    29  C    5.999991
    30  C    6.000054
    31  C    5.999998
    32  N    7.000031
    33  C    5.999734
    34  C    5.999757
    35  C    5.999918
    36  C    5.999752
    37  C    6.000011
    38  C    5.999880
    39  O    7.999778
    40  C    5.999988
    41  C    6.000001
    42  O    7.999982
    43  O    7.999977
    44  C    5.999996
    45  H    1.000113
    46  H    1.000020
    47  H    0.999913
    48  H    1.000023
    49  H    0.999997
    50  H    1.000113
    51  H    1.000002
    52  H    1.000077
    53  H    0.999957
    54  H    0.999957
    55  H    0.999987
    56  H    1.000037
    57  H    1.000126
    58  H    1.000121
    59  H    1.000167
    60  H    1.000034
    61  H    1.000087
    62  H    1.000122
    63  H    0.999955
    64  H    1.000005
    65  H    0.999995
    66  H    1.000068
    67  H    1.000004
    68  H    0.999986
    69  H    0.999888
    70  H    0.999969
    71  H    0.999939
    72  H    1.000041
    73  H    0.999904
    74  H    0.999861
    75  H    0.999850
    76  H    0.999904
    77  H    0.999999
    78  H    0.999963
    79  H    1.000009
    80  Mg  11.997758
    81  C    6.015966
    82  C    5.993865
    83  C    5.985456
    84  C    6.009575
    85  N    7.005771
    86  C    5.968732
    87  C    6.010523
    88  C    5.992320
    89  C    6.024174
    90  C    5.993317
    91  C    6.003015
    92  C    5.999613
    93  H    0.999477
    94  N    6.995496
    95  C    6.035622
    96  C    6.021985
    97  C    6.015105
    98  C    6.029391
    99  C    6.001442
   100  C    6.011954
   101  O    8.030143
   102  C    5.996819
   103  N    7.001566
   104  C    6.033083
   105  C    5.992515
   106  C    6.001682
   107  C    5.967603
   108  C    5.998345
   109  C    6.006990
   110  C    6.005023
   111  N    7.001312
   112  C    5.960602
   113  C    5.978523
   114  C    5.993975
   115  C    5.967575
   116  C    6.002716
   117  C    5.980752
   118  O    7.969352
   119  C    6.001987
   120  C    5.997519
   121  O    7.994037
   122  O    7.998327
   123  C    6.001052
   124  H    1.010736
   125  H    1.006278
   126  H    0.990704
   127  H    1.000001
   128  H    0.999949
   129  H    1.001291
   130  H    1.012757
   131  H    0.997979
   132  H    0.997559
   133  H    1.005748
   134  H    0.995373
   135  H    0.994898
   136  H    1.015292
   137  H    1.016865
   138  H    1.014871
   139  H    1.006875
   140  H    1.013801
   141  H    1.007857
   142  H    0.998508
   143  H    0.999649
   144  H    1.002419
   145  H    0.994760
   146  H    1.012508
   147  H    0.989930
   148  H    1.004399
   149  H    0.994270
   150  H    1.005487
   151  H    0.985296
   152  H    0.985660
   153  H    0.982562
   154  H    0.983262
   155  H    0.991876
   156  H    0.993515
   157  H    0.997122
   158  H    0.997888
 Sum of Mulliken charges = 624.00000

 Dipole moment (field-independent basis, Debye):
    X=              8.3692    Y=             -0.6682    Z=             -6.4124  Tot=             10.5645
 Quadrupole moment (field-independent basis, Debye-Ang):
   XX=           -366.4453   YY=             -2.7699   ZZ=              5.7635
   XY=             10.1634   XZ=            140.8583   YZ=              4.1921

 Normal termination of Gaussian 16 at Fri Oct 15 12:50:35 2021.
