 Gaussian 16, Revision A.03,
 Gaussian 16:  ES64L-G16RevA.03 25-Dec-2016

 --------------------------------------------------------
 #p PBE1PBE/Def2SVP td=(nstates=5) density=(transition=1)
 --------------------------------------------------------

 --------------------------------
 TDDFT excited states in gaussian
 --------------------------------
 Symbolic Z-matrix:
 Charge =  0 Multiplicity = 1

                         Standard orientation:
 ---------------------------------------------------------------------
 Center     Atomic      Atomic             Coordinates (Angstroms)
 Number     Number       Type             X           Y           Z
 ---------------------------------------------------------------------
      1         12           0      -20.141144   -0.190721   -0.528403
      2          6           0      -17.573149   -0.796352    1.632214
      3          6           0      -20.290253    3.119881    0.709175
      4          6           0      -22.812709    0.379202   -2.465195
      5          6           0      -19.859121   -3.407898   -1.698450
      6          7           0      -19.290091    0.931324    1.190987
      7          6           0      -18.147822    0.481847    1.865711
      8          6           0      -17.613468    1.539396    2.872692
      9          6           0      -18.585073    2.702769    2.539909
     10          6           0      -19.512419    2.217099    1.440599
     11          6           0      -19.416173    3.442185    3.673291
     12          6           0      -16.083963    1.957241    2.729269
     13          6           0      -15.679336    3.042491    3.762706
     14          1           0      -14.772810    2.510518    4.873590
     15          7           0      -21.372476    1.576267   -0.870099
     16          6           0      -21.092346    2.852851   -0.432388
     17          6           0      -22.174788    3.689592   -0.936952
     18          6           0      -22.909022    2.873896   -1.856890
     19          6           0      -22.376865    1.549127   -1.793191
     20          6           0      -22.282847    5.112656   -0.544742
     21          6           0      -24.175322    3.382833   -2.630229
     22          8           0      -24.944949    2.633631   -3.265287
     23          6           0      -24.560482    4.837879   -2.567130
     24          7           0      -21.148234   -1.291358   -1.792508
     25          6           0      -22.287433   -0.853136   -2.524606
     26          6           0      -22.993554   -2.020423   -3.176315
     27          6           0      -21.826060   -2.997849   -3.297902
     28          6           0      -20.833266   -2.538795   -2.239437
     29          6           0      -24.172054   -2.582351   -2.312240
     30          6           0      -21.124382   -2.923727   -4.672471
     31          6           0      -21.682462   -3.739803   -5.807395
     32          7           0      -19.013283   -1.875350   -0.153603
     33          6           0      -18.885987   -3.053464   -0.785220
     34          6           0      -17.877715   -3.835782   -0.133140
     35          6           0      -17.309929   -3.004657    0.809025
     36          6           0      -18.010007   -1.790493    0.733915
     37          6           0      -17.534290   -5.219451   -0.562627
     38          6           0      -16.307067   -2.942250    1.784689
     39          8           0      -15.466916   -3.748638    2.134350
     40          6           0      -16.431607   -1.462679    2.382100
     41          6           0      -16.645938   -1.579542    3.849626
     42          8           0      -17.617708   -2.022475    4.411991
     43          8           0      -15.663043   -0.983358    4.531065
     44          6           0      -15.792860   -0.987296    6.039174
     45          1           0      -20.171760    4.158054    1.025912
     46          1           0      -23.678927    0.552077   -3.106997
     47          1           0      -19.624135   -4.394364   -2.102693
     48          1           0      -17.799832    1.177190    3.883770
     49          1           0      -18.031907    3.510180    2.059188
     50          1           0      -19.556393    4.516032    3.546805
     51          1           0      -19.060362    3.129426    4.655125
     52          1           0      -20.428095    3.056373    3.550476
     53          1           0      -16.003304    2.256545    1.684996
     54          1           0      -15.473463    1.065041    2.867841
     55          1           0      -16.567423    3.560600    4.124601
     56          1           0      -15.078350    3.773029    3.221996
     57          1           0      -23.168680    5.220257    0.081508
     58          1           0      -22.231272    5.680234   -1.473892
     59          1           0      -21.401026    5.428453    0.012907
     60          1           0      -25.423062    5.020935   -3.207876
     61          1           0      -23.731490    5.347345   -3.060288
     62          1           0      -24.723007    5.265239   -1.578008
     63          1           0      -23.407827   -1.739509   -4.144991
     64          1           0      -22.104775   -4.032451   -3.098911
     65          1           0      -23.798572   -3.148766   -1.460023
     66          1           0      -24.828284   -3.201468   -2.924501
     67          1           0      -24.730077   -1.706147   -1.983967
     68          1           0      -20.057826   -3.137711   -4.616258
     69          1           0      -21.082518   -1.885599   -5.002371
     70          1           0      -21.950439   -3.034823   -6.593828
     71          1           0      -22.634401   -4.091817   -5.409604
     72          1           0      -21.047238   -4.565725   -6.127875
     73          1           0      -16.667062   -5.207187   -1.221683
     74          1           0      -18.332052   -5.857742   -0.943685
     75          1           0      -17.199282   -5.720480    0.345746
     76          1           0      -15.498426   -0.935132    2.183363
     77          1           0      -16.790466   -0.614651    6.272633
     78          1           0      -15.088376   -0.317666    6.533224
     79          1           0      -15.664791   -2.014899    6.380077
     80         12           0       20.211344   -0.457486    0.084717
     81          6           0       18.289477    2.480527    0.056667
     82          6           0       17.658686   -2.003579    1.708252
     83          6           0       21.923108   -3.209550   -0.353918
     84          6           0       22.287823    1.220935   -2.331384
     85          7           0       18.270071    0.204692    0.836621
     86          6           0       17.675629    1.427596    0.702531
     87          6           0       16.196982    1.287902    1.094240
     88          6           0       16.240705    0.114522    2.066844
     89          6           0       17.414681   -0.652513    1.428583
     90          6           0       16.559297    0.546198    3.516944
     91          6           0       15.295432    0.992277   -0.161023
     92          6           0       14.234185    2.108797   -0.619643
     93          1           0       14.362835    2.731425   -2.020305
     94          7           0       19.819975   -2.356648    0.552485
     95          6           0       18.718766   -2.802181    1.246856
     96          6           0       18.911843   -4.186389    1.547068
     97          6           0       20.204498   -4.594112    1.078467
     98          6           0       20.727698   -3.384631    0.379542
     99          6           0       17.856398   -5.056434    2.311898
    100          6           0       20.843728   -6.009464    1.320855
    101          8           0       20.288479   -6.805173    2.014140
    102          6           0       22.230630   -6.217836    0.922870
    103          7           0       21.690178   -1.016865   -1.413695
    104          6           0       22.425533   -2.094917   -1.051696
    105          6           0       23.864182   -2.028831   -1.536308
    106          6           0       23.862795   -0.821996   -2.462142
    107          6           0       22.510361   -0.138248   -2.058592
    108          6           0       24.900936   -1.876501   -0.362510
    109          6           0       23.987687   -1.038945   -4.043435
    110          6           0       25.241257   -0.689558   -4.799785
    111          7           0       20.429943    1.476036   -0.781085
    112          6           0       21.305312    2.012031   -1.734343
    113          6           0       20.960317    3.376936   -2.068457
    114          6           0       19.802709    3.599580   -1.364078
    115          6           0       19.471143    2.431005   -0.602304
    116          6           0       21.682669    4.232827   -3.023743
    117          6           0       18.773177    4.590694   -1.091214
    118          8           0       18.698652    5.770729   -1.455494
    119          6           0       17.828349    3.956334   -0.092364
    120          6           0       17.882801    4.797024    1.178589
    121          8           0       18.943135    4.970046    1.775194
    122          8           0       16.647208    5.405122    1.449646
    123          6           0       16.636266    6.242672    2.619135
    124          1           0       16.892504   -2.423829    2.362607
    125          1           0       22.604059   -4.047940   -0.199370
    126          1           0       22.985850    1.756892   -2.978202
    127          1           0       15.875094    2.265832    1.453084
    128          1           0       15.282334   -0.400786    2.016533
    129          1           0       15.749776    0.021363    4.023013
    130          1           0       16.448136    1.630867    3.511791
    131          1           0       17.540026    0.274748    3.907750
    132          1           0       14.695911    0.112813    0.073643
    133          1           0       15.953880    0.695965   -0.977184
    134          1           0       14.389537    2.946387    0.060785
    135          1           0       13.190552    1.820282   -0.500201
    136          1           0       17.574338   -6.015908    1.879466
    137          1           0       16.961090   -4.437403    2.378122
    138          1           0       18.158357   -5.280575    3.335130
    139          1           0       22.424560   -6.052263   -0.137106
    140          1           0       22.510154   -7.240262    1.176919
    141          1           0       22.897959   -5.675925    1.591620
    142          1           0       24.180472   -2.944826   -2.036439
    143          1           0       24.641562   -0.118808   -2.166883
    144          1           0       25.368124   -2.818133   -0.074633
    145          1           0       24.443200   -1.324111    0.458113
    146          1           0       25.706079   -1.239065   -0.730728
    147          1           0       23.146773   -0.742383   -4.669419
    148          1           0       23.933029   -2.126987   -3.998877
    149          1           0       25.757071   -1.556841   -5.210707
    150          1           0       25.941429   -0.186550   -4.132382
    151          1           0       24.901060   -0.018218   -5.587911
    152          1           0       22.192947    3.580459   -3.732878
    153          1           0       22.443929    4.746199   -2.435662
    154          1           0       21.022230    4.971123   -3.476233
    155          1           0       16.860335    4.078597   -0.576378
    156          1           0       16.596364    5.701520    3.564850
    157          1           0       15.786675    6.924939    2.615166
    158          1           0       17.493872    6.909719    2.702364
 ---------------------------------------------------------------------

 SCF Done:  E(RPBE1PBE) =  -4067.40398212     A.U. after   16 cycles

 Excitation energies and oscillator strengths:

 Excited State   1:      Singlet-A      1.8106 eV  684.78 nm  f=0.3696  <S**2>=0.000
     309 -> 316        0.15516
     311 -> 313        0.69951
     311 <- 313       -0.12511
 This state for optimization and/or second-order correction.
 Total Energy, E(TD-HF/TD-DFT) =  -4067.33744527
 Copying the excited state density for this state as the 1-particle RhoCI density.

 Excited State   2:      Singlet-A      1.8547 eV  668.48 nm  f=0.0000  <S**2>=0.000
     312 -> 313        0.70711

 Excited State   3:      Singlet-A      1.8785 eV  660.00 nm  f=0.3566  <S**2>=0.000
     310 -> 315       -0.18357
     312 -> 314        0.69001
     312 <- 314       -0.10094

 Excited State   4:      Singlet-A      2.0637 eV  600.78 nm  f=0.0000  <S**2>=0.000
     311 -> 314        0.70711

 Excited State   5:      Singlet-A      2.2535 eV  550.19 nm  f=0.1055  <S**2>=0.000
     309 -> 313        0.64876
     311 -> 316       -0.26387

 The electronic state is 1-A.
 Alpha  occ. eigenvalues --  -46.92077 -46.90910 -19.26666 -19.25502 -19.20775
 Alpha  occ. eigenvalues --  -19.19485 -19.19309 -19.18923 -19.18893 -19.18891
 Alpha  occ. eigenvalues --  -14.42152 -14.41640 -14.41592 -14.41375 -14.39075
 Alpha  occ. eigenvalues --  -14.38997 -14.38604 -14.38468 -10.37263 -10.35460
 Alpha  occ. eigenvalues --  -10.32487 -10.32215 -10.31961 -10.31648 -10.29770
 Alpha  occ. eigenvalues --  -10.29485 -10.29035 -10.28878 -10.28866 -10.28717
 Alpha  occ. eigenvalues --  -10.28530 -10.28398 -10.28379 -10.28337 -10.27849
 Alpha  occ. eigenvalues --  -10.27437 -10.27341 -10.27287 -10.27161 -10.26981
 Alpha  occ. eigenvalues --  -10.26813 -10.26573 -10.26533 -10.26398 -10.26228
 Alpha  occ. eigenvalues --  -10.26199 -10.25988 -10.25982 -10.25937 -10.25714
 Alpha  occ. eigenvalues --  -10.25687 -10.25617 -10.25614 -10.25611 -10.25604
 Alpha  occ. eigenvalues --  -10.25595 -10.25380 -10.25285 -10.25227 -10.25081
 Alpha  occ. eigenvalues --  -10.24967 -10.24950 -10.24884 -10.24747 -10.24554
 Alpha  occ. eigenvalues --  -10.24551 -10.24519 -10.24507 -10.24378 -10.24281
 Alpha  occ. eigenvalues --  -10.24081 -10.24066 -10.24021 -10.23737 -10.23612
 Alpha  occ. eigenvalues --  -10.23525 -10.23348 -10.23283 -10.23262 -10.23204
 Alpha  occ. eigenvalues --  -10.23203 -10.23120 -10.23000 -10.22775 -10.22564
 Alpha  occ. eigenvalues --  -10.22526  -3.14266  -3.13265  -1.87080  -1.86655
 Alpha  occ. eigenvalues --   -1.86489  -1.86110  -1.85657  -1.85486  -1.11627
 Alpha  occ. eigenvalues --   -1.10707  -1.06702  -1.05078  -1.03783  -1.03103
 Alpha  occ. eigenvalues --   -1.02998  -1.01903  -1.00061  -0.99377  -0.98889
 Alpha  occ. eigenvalues --   -0.98530  -0.97742  -0.97490  -0.96780  -0.96730
 Alpha  occ. eigenvalues --   -0.87621  -0.87374  -0.83448  -0.83395  -0.83265
 Alpha  occ. eigenvalues --   -0.83132  -0.82941  -0.82860  -0.82201  -0.81918
 Alpha  occ. eigenvalues --   -0.81500  -0.81451  -0.80904  -0.79324  -0.78851
 Alpha  occ. eigenvalues --   -0.78647  -0.78517  -0.78275  -0.76817  -0.76812
 Alpha  occ. eigenvalues --   -0.76756  -0.75829  -0.75511  -0.75378  -0.75182
 Alpha  occ. eigenvalues --   -0.74917  -0.72750  -0.72343  -0.71869  -0.71528
 Alpha  occ. eigenvalues --   -0.71527  -0.70707  -0.70584  -0.70479  -0.69597
 Alpha  occ. eigenvalues --   -0.69450  -0.67647  -0.67311  -0.66596  -0.66268
 Alpha  occ. eigenvalues --   -0.63878  -0.63407  -0.63327  -0.63027  -0.62675
 Alpha  occ. eigenvalues --   -0.62494  -0.61228  -0.60568  -0.60260  -0.60247
 Alpha  occ. eigenvalues --   -0.60083  -0.59409  -0.59405  -0.59200  -0.59028
 Alpha  occ. eigenvalues --   -0.58706  -0.57276  -0.56633  -0.54818  -0.54755
 Alpha  occ. eigenvalues --   -0.54611  -0.54589  -0.53736  -0.53720  -0.53506
 Alpha  occ. eigenvalues --   -0.53481  -0.52959  -0.52904  -0.52417  -0.52285
 Alpha  occ. eigenvalues --   -0.51155  -0.50846  -0.50673  -0.50465  -0.49801
 Alpha  occ. eigenvalues --   -0.49670  -0.49393  -0.49242  -0.48831  -0.48578
 Alpha  occ. eigenvalues --   -0.48137  -0.48028  -0.47992  -0.47689  -0.47609
 Alpha  occ. eigenvalues --   -0.47439  -0.47405  -0.47286  -0.47167  -0.46813
 Alpha  occ. eigenvalues --   -0.46746  -0.46317  -0.46315  -0.46291  -0.45906
 Alpha  occ. eigenvalues --   -0.45609  -0.45491  -0.45122  -0.45018  -0.44895
 Alpha  occ. eigenvalues --   -0.44744  -0.44594  -0.44458  -0.44455  -0.44280
 Alpha  occ. eigenvalues --   -0.44154  -0.43898  -0.43831  -0.43671  -0.43586
 Alpha  occ. eigenvalues --   -0.43415  -0.43300  -0.43004  -0.42975  -0.42742
 Alpha  occ. eigenvalues --   -0.42741  -0.42377  -0.42238  -0.42153  -0.41849
 Alpha  occ. eigenvalues --   -0.41841  -0.41611  -0.41336  -0.41301  -0.41130
 Alpha  occ. eigenvalues --   -0.41027  -0.41001  -0.40855  -0.40854  -0.40708
 Alpha  occ. eigenvalues --   -0.40568  -0.40189  -0.40126  -0.40006  -0.39954
 Alpha  occ. eigenvalues --   -0.39437  -0.39215  -0.39071  -0.39003  -0.38997
 Alpha  occ. eigenvalues --   -0.38641  -0.38578  -0.38567  -0.38380  -0.38354
 Alpha  occ. eigenvalues --   -0.38221  -0.38134  -0.37899  -0.37713  -0.37392
 Alpha  occ. eigenvalues --   -0.37234  -0.37026  -0.36888  -0.36831  -0.36717
 Alpha  occ. eigenvalues --   -0.36553  -0.36550  -0.36449  -0.36365  -0.36010
 Alpha  occ. eigenvalues --   -0.35995  -0.35803  -0.35792  -0.35594  -0.35592
 Alpha  occ. eigenvalues --   -0.35336  -0.35278  -0.34934  -0.34928  -0.34746
 Alpha  occ. eigenvalues --   -0.33893  -0.33369  -0.32987  -0.32981  -0.32480
 Alpha  occ. eigenvalues --   -0.32470  -0.32066  -0.31987  -0.31714  -0.31685
 Alpha  occ. eigenvalues --   -0.31596  -0.31506  -0.29910  -0.29705  -0.29501
 Alpha  occ. eigenvalues --   -0.29119  -0.29010  -0.28479  -0.27072  -0.26956
 Alpha  occ. eigenvalues --   -0.26208  -0.26113  -0.25996  -0.25851  -0.25580
 Alpha  occ. eigenvalues --   -0.25419  -0.25262  -0.24819  -0.21473  -0.21284
 Alpha  occ. eigenvalues --   -0.18792  -0.18669
 Alpha virt. eigenvalues --   -0.11522  -0.10879  -0.05643  -0.05116  -0.03843
 Alpha virt. eigenvalues --   -0.03703  -0.02075  -0.01877  -0.00872  -0.00353
 Alpha virt. eigenvalues --    0.00186   0.00756   0.00988   0.01361   0.01716

 Mulliken charges:
               1
     1  Mg  11.998551
     2  C    5.975264
     3  C    5.995358
     4  C    6.029573
     5  C    6.013618
     6  N    6.988186
     7  C    6.038935
     8  C    5.985293
     9  C    6.006691
    10  C    5.975325
    11  C    6.004251
    12  C    5.997184
    13  C    6.002429
    14  H    0.995916
    15  N    7.006020
    16  C    5.963796
    17  C    5.976254
    18  C    5.992413
    19  C    5.955242
    20  C    6.004756
    21  C    5.987531
    22  O    7.974851
    23  C    6.005578
    24  N    7.017819
    25  C    5.961435
    26  C    6.007924
    27  C    5.994684
    28  C    6.020803
    29  C    6.001065
    30  C    5.992623
    31  C    5.999382
    32  N    6.996264
    33  C    6.022502
    34  C    6.035321
    35  C    5.998633
    36  C    6.031555
    37  C    5.995930
    38  C    6.015253
    39  O    8.026377
    40  C    6.002748
    41  C    6.001805
    42  O    8.003875
    43  O    8.001689
    44  C    5.999118
    45  H    0.983690
    46  H    0.995707
    47  H    1.013964
    48  H    1.001862
    49  H    0.998893
    50  H    0.999758
    51  H    0.985435
    52  H    1.001581
    53  H    1.005212
    54  H    0.992587
    55  H    1.006943
    56  H    1.002276
    57  H    0.981699
    58  H    0.982798
    59  H    0.984859
    60  H    0.986344
    61  H    0.994328
    62  H    0.994513
    63  H    1.001589
    64  H    1.001196
    65  H    0.987913
    66  H    0.994480
    67  H    1.007469
    68  H    0.995335
    69  H    1.015173
    70  H    1.007206
    71  H    1.004577
    72  H    0.999468
    73  H    1.021995
    74  H    1.017595
    75  H    1.015882
    76  H    1.007636
    77  H    1.005031
    78  H    1.004981
    79  H    1.000203
    80  Mg  11.999990
    81  C    5.999806
    82  C    6.000019
    83  C    5.999973
    84  C    6.000042
    85  N    7.000014
    86  C    6.000247
    87  C    5.999987
    88  C    6.000031
    89  C    5.999918
    90  C    6.000048
    91  C    6.000040
    92  C    6.000006
    93  H    0.999994
    94  N    7.000009
    95  C    5.999855
    96  C    5.999770
    97  C    5.999883
    98  C    5.999860
    99  C    6.000055
   100  C    5.999840
   101  O    7.999866
   102  C    6.000062
   103  N    6.999997
   104  C    5.999814
   105  C    6.000046
   106  C    6.000009
   107  C    6.000167
   108  C    5.999984
   109  C    5.999930
   110  C    5.999981
   111  N    7.000036
   112  C    6.000147
   113  C    6.000396
   114  C    5.999911
   115  C    6.000115
   116  C    5.999956
   117  C    6.000193
   118  O    8.000196
   119  C    5.999955
   120  C    6.000053
   121  O    8.000050
   122  O    7.999997
   123  C    5.999947
   124  H    0.999858
   125  H    0.999987
   126  H    1.000088
   127  H    0.999969
   128  H    0.999894
   129  H    0.999919
   130  H    0.999913
   131  H    1.000029
   132  H    0.999998
   133  H    0.999995
   134  H    1.000014
   135  H    0.999934
   136  H    0.999826
   137  H    0.999848
   138  H    0.999878
   139  H    0.999937
   140  H    0.999920
   141  H    0.999975
   142  H    1.000004
   143  H    1.000015
   144  H    1.000042
   145  H    1.000004
   146  H    0.999963
   147  H    0.999984
   148  H    1.000071
   149  H    1.000056
   150  H    1.000046
   151  H    1.000022
   152  H    1.000114
   153  H    1.000177
   154  H    1.000112
   155  H    1.000055
   156  H    1.000039
   157  H    1.000055
   158  H    1.000062
 Sum of Mulliken charges = 624.00000

 Dipole moment (field-independent basis, Debye):
    X=              5.6156    Y=             -8.6606    Z=              1.0527  Tot=             10.3754
 Quadrupole moment (field-independent basis, Debye-Ang):
   XX=           -224.0627   YY=              0.8969   ZZ=              1.5937
   XY=            176.3945   XZ=            -24.3972   YZ=              5.3393

 Normal termination of Gaussian 16 at Fri Oct 15 06:21:03 2021.
