 Gaussian 16, Revision A.03,
 Gaussian 16:  ES64L-G16RevA.03 25-Dec-2016

 --------------------------------------------------------
 #p PBE1PBE/Def2SVP td=(nstates=5) density=(transition=1)
 --------------------------------------------------------

 --------------------------------
 TDDFT excited states in gaussian
 --------------------------------
 Symbolic Z-matrix:
 Charge =  0 Multiplicity = 1

                         Standard orientation:
 ---------------------------------------------------------------------
 Center     Atomic      Atomic             Coordinates (Angstroms)
 Number     Number       Type             X           Y           Z
 ---------------------------------------------------------------------
      1         12           0        9.047535   -0.292399    0.107166
      2          6           0        7.673748    2.589116   -1.266491
      3          6           0       11.695139    1.497855    1.172387
      4          6           0       10.708650   -3.172136    0.729216
      5          6           0        6.696900   -2.197196   -1.736746
      6          7           0        9.483446    1.787988    0.000484
      7          6           0        8.759300    2.869184   -0.452456
      8          6           0        9.552165    4.186601   -0.230493
      9          6           0       10.989195    3.636388    0.025209
     10          6           0       10.705061    2.233149    0.540511
     11          6           0       11.907389    3.581286   -1.246200
     12          6           0        8.803583    5.013774    0.830644
     13          6           0        8.717948    6.460890    0.525892
     14          1           0        7.661156    7.179144    1.235413
     15          7           0       10.830071   -0.729477    1.046172
     16          6           0       11.754163    0.172781    1.466258
     17          6           0       12.675795   -0.497016    2.349119
     18          6           0       12.375769   -1.900989    2.218820
     19          6           0       11.303559   -1.988424    1.223132
     20          6           0       13.767094    0.196674    3.082792
     21          6           0       13.084875   -3.165302    2.804661
     22          8           0       12.685507   -4.312758    2.596490
     23          6           0       14.220534   -3.039695    3.781427
     24          7           0        8.898193   -2.359136   -0.741221
     25          6           0        9.673968   -3.402615   -0.166491
     26          6           0        9.219964   -4.768250   -0.563636
     27          6           0        7.825066   -4.381566   -1.154121
     28          6           0        7.765455   -2.856318   -1.154600
     29          6           0       10.183172   -5.502779   -1.556583
     30          6           0        6.615953   -4.963079   -0.334102
     31          6           0        6.641333   -4.683316    1.190190
     32          7           0        7.431677    0.072184   -1.144780
     33          6           0        6.534717   -0.799201   -1.781856
     34          6           0        5.612257    0.013436   -2.482508
     35          6           0        6.014890    1.326980   -2.275814
     36          6           0        7.112348    1.298562   -1.480010
     37          6           0        4.419269   -0.480211   -3.237324
     38          6           0        5.746086    2.636622   -2.646868
     39          8           0        4.856414    3.079746   -3.395848
     40          6           0        6.792530    3.603479   -2.015233
     41          6           0        5.921994    4.551136   -1.132238
     42          8           0        5.321647    4.220945   -0.094042
     43          8           0        5.936305    5.814097   -1.714224
     44          6           0        4.975470    6.842927   -1.203481
     45          1           0       12.535373    2.163811    1.380036
     46          1           0       11.020931   -4.195959    0.948641
     47          1           0        5.830525   -2.718603   -2.149175
     48          1           0        9.498129    4.814707   -1.119049
     49          1           0       11.447990    4.201665    0.835883
     50          1           0       11.487888    4.001121   -2.160900
     51          1           0       12.090768    2.548772   -1.540742
     52          1           0       12.808448    4.162289   -1.050730
     53          1           0        9.417727    4.958797    1.728392
     54          1           0        7.818190    4.566217    0.963031
     55          1           0        8.470715    6.522408   -0.534044
     56          1           0        9.706418    6.900531    0.657637
     57          1           0       13.580688    1.267998    3.155292
     58          1           0       14.719554   -0.141079    2.672944
     59          1           0       13.769133   -0.137158    4.120469
     60          1           0       14.775786   -3.971320    3.670121
     61          1           0       13.848559   -2.992454    4.805161
     62          1           0       14.884133   -2.210552    3.533994
     63          1           0        9.056414   -5.442181    0.278465
     64          1           0        7.769915   -4.740551   -2.182338
     65          1           0       10.808863   -4.761616   -2.054598
     66          1           0        9.717597   -6.089690   -2.348496
     67          1           0       10.871836   -6.220763   -1.110297
     68          1           0        6.574191   -6.023935   -0.581555
     69          1           0        5.747416   -4.526030   -0.826665
     70          1           0        5.766999   -4.127677    1.529757
     71          1           0        7.559012   -4.129353    1.389854
     72          1           0        6.668745   -5.596076    1.784600
     73          1           0        4.528884   -0.089735   -4.249022
     74          1           0        3.529065   -0.121166   -2.720893
     75          1           0        4.354766   -1.561789   -3.356831
     76          1           0        7.244128    4.185539   -2.818140
     77          1           0        3.979636    6.430356   -1.363757
     78          1           0        5.000753    7.831858   -1.661062
     79          1           0        5.308053    6.826499   -0.165551
     80         12           0       -8.440368   -1.050935    0.323348
     81          6           0      -10.585337    1.818259    0.682573
     82          6           0       -5.803426    1.114824    0.422691
     83          6           0       -6.470910   -3.689915   -0.315780
     84          6           0      -11.214884   -2.933877   -0.231402
     85          7           0       -8.241105    1.304042    0.591738
     86          6           0       -9.276539    2.177873    0.755233
     87          6           0       -8.687508    3.495150    1.091631
     88          6           0       -7.157678    3.327067    0.877771
     89          6           0       -6.977482    1.818715    0.553922
     90          6           0       -6.633407    4.212121   -0.297506
     91          6           0       -9.037651    4.045411    2.451546
     92          6           0       -8.675508    5.483524    2.785648
     93          1           0       -9.741114    6.320983    3.357556
     94          7           0       -6.439580   -1.270085    0.200267
     95          6           0       -5.487731   -0.213789    0.168511
     96          6           0       -4.157157   -0.850016    0.148463
     97          6           0       -4.380241   -2.191665   -0.150052
     98          6           0       -5.835533   -2.426550   -0.160607
     99          6           0       -2.890932   -0.024947    0.245588
    100          6           0       -3.365269   -3.337177   -0.353908
    101          8           0       -3.654092   -4.448091   -0.836786
    102          6           0       -1.980530   -3.085661    0.084935
    103          7           0       -8.770911   -3.057134   -0.272655
    104          6           0       -7.852348   -3.980624   -0.468912
    105          6           0       -8.439837   -5.359157   -0.878265
    106          6           0       -9.925526   -5.129156   -0.592727
    107          6           0       -9.973829   -3.645451   -0.308108
    108          6           0       -8.151082   -5.684500   -2.382639
    109          6           0      -10.542658   -5.946830    0.519450
    110          6           0      -11.937816   -6.537719    0.249267
    111          7           0      -10.461254   -0.661628    0.334867
    112          6           0      -11.475860   -1.562702    0.096318
    113          6           0      -12.817583   -0.923442    0.249244
    114          6           0      -12.425759    0.384418    0.452354
    115          6           0      -11.032616    0.523796    0.447743
    116          6           0      -14.160472   -1.576696    0.319282
    117          6           0      -12.976850    1.713306    0.673328
    118          8           0      -14.157126    2.023787    0.788453
    119          6           0      -11.813052    2.717558    0.837345
    120          6           0      -12.085578    3.810132   -0.061286
    121          8           0      -11.936173    3.817512   -1.306977
    122          8           0      -12.381342    4.937318    0.643301
    123          6           0      -12.417861    6.203534   -0.055314
    124          1           0       -4.947752    1.782911    0.538546
    125          1           0       -5.848615   -4.508019   -0.684020
    126          1           0      -12.006210   -3.559582   -0.648979
    127          1           0       -9.095063    4.143466    0.317054
    128          1           0       -6.581737    3.598248    1.762732
    129          1           0       -5.779481    4.884597   -0.209841
    130          1           0       -7.486854    4.838704   -0.556100
    131          1           0       -6.482498    3.686019   -1.240515
    132          1           0       -8.516535    3.504672    3.241752
    133          1           0      -10.047592    3.770584    2.754567
    134          1           0       -8.340922    6.012854    1.894738
    135          1           0       -8.011892    5.416308    3.647346
    136          1           0       -2.128799   -0.285984   -0.488360
    137          1           0       -2.415811   -0.055155    1.225915
    138          1           0       -3.018827    1.037871    0.038779
    139          1           0       -2.006597   -2.714820    1.109679
    140          1           0       -1.661592   -2.300437   -0.599602
    141          1           0       -1.488155   -4.056958    0.114844
    142          1           0       -7.993362   -6.089497   -0.202593
    143          1           0      -10.602403   -5.264899   -1.435755
    144          1           0       -9.064619   -5.680534   -2.976493
    145          1           0       -7.737559   -6.686330   -2.498672
    146          1           0       -7.484813   -4.892272   -2.724386
    147          1           0      -10.589210   -5.388938    1.454158
    148          1           0       -9.747330   -6.632011    0.811050
    149          1           0      -12.016001   -7.441244    0.853157
    150          1           0      -12.153912   -6.656449   -0.812928
    151          1           0      -12.576882   -5.731524    0.608853
    152          1           0      -14.549303   -1.694879    1.330861
    153          1           0      -14.070005   -2.479406   -0.284224
    154          1           0      -14.855362   -1.032585   -0.321589
    155          1           0      -11.968122    3.148437    1.826444
    156          1           0      -12.088597    6.159741   -1.093812
    157          1           0      -11.889879    6.970223    0.511057
    158          1           0      -13.427167    6.612784   -0.106330
 ---------------------------------------------------------------------

 SCF Done:  E(RPBE1PBE) =  -4067.39266574     A.U. after   16 cycles

 Excitation energies and oscillator strengths:

 Excited State   1:      Singlet-A      1.6698 eV  742.50 nm  f=0.0000  <S**2>=0.000
     312 -> 313        0.70706
 This state for optimization and/or second-order correction.
 Total Energy, E(TD-HF/TD-DFT) =  -4067.33130099
 Copying the excited state density for this state as the 1-particle RhoCI density.

 Excited State   2:      Singlet-A      1.8218 eV  680.57 nm  f=0.4467  <S**2>=0.000
     309 -> 315       -0.15322
     311 -> 313        0.69301
     311 <- 313       -0.11687

 Excited State   3:      Singlet-A      1.9179 eV  646.45 nm  f=0.3217  <S**2>=0.000
     310 -> 316        0.18969
     312 -> 314        0.68396

 Excited State   4:      Singlet-A      2.0816 eV  595.63 nm  f=0.0000  <S**2>=0.000
     311 -> 314        0.70702

 Excited State   5:      Singlet-A      2.2321 eV  555.46 nm  f=0.1137  <S**2>=0.000
     309 -> 313        0.65184
     311 -> 315        0.24363

 The electronic state is 1-A.
 Alpha  occ. eigenvalues --  -46.91858 -46.91769 -19.25709 -19.25605 -19.20436
 Alpha  occ. eigenvalues --  -19.19113 -19.19092 -19.18973 -19.18738 -19.18034
 Alpha  occ. eigenvalues --  -14.41695 -14.41281 -14.41063 -14.40483 -14.39285
 Alpha  occ. eigenvalues --  -14.39166 -14.39133 -14.38311 -10.37272 -10.36007
 Alpha  occ. eigenvalues --  -10.32588 -10.32207 -10.31527 -10.30906 -10.29386
 Alpha  occ. eigenvalues --  -10.28809 -10.28517 -10.28353 -10.28297 -10.28278
 Alpha  occ. eigenvalues --  -10.28270 -10.28148 -10.28140 -10.28086 -10.28005
 Alpha  occ. eigenvalues --  -10.27995 -10.27910 -10.27681 -10.27100 -10.27092
 Alpha  occ. eigenvalues --  -10.26484 -10.26277 -10.26150 -10.26107 -10.25994
 Alpha  occ. eigenvalues --  -10.25956 -10.25922 -10.25863 -10.25754 -10.25723
 Alpha  occ. eigenvalues --  -10.25663 -10.25646 -10.25509 -10.25486 -10.25466
 Alpha  occ. eigenvalues --  -10.25254 -10.25154 -10.25123 -10.24959 -10.24873
 Alpha  occ. eigenvalues --  -10.24841 -10.24819 -10.24675 -10.24603 -10.24567
 Alpha  occ. eigenvalues --  -10.24412 -10.24349 -10.24331 -10.24132 -10.24029
 Alpha  occ. eigenvalues --  -10.23745 -10.23727 -10.23572 -10.23502 -10.23455
 Alpha  occ. eigenvalues --  -10.23455 -10.23390 -10.23354 -10.23345 -10.23329
 Alpha  occ. eigenvalues --  -10.23282 -10.23197 -10.23107 -10.22999 -10.22224
 Alpha  occ. eigenvalues --  -10.21549  -3.14032  -3.13953  -1.86852  -1.86803
 Alpha  occ. eigenvalues --   -1.86410  -1.86318  -1.86257  -1.86189  -1.10780
 Alpha  occ. eigenvalues --   -1.09349  -1.04351  -1.04112  -1.03599  -1.02792
 Alpha  occ. eigenvalues --   -1.01649  -1.00629  -1.00311  -0.99594  -0.99186
 Alpha  occ. eigenvalues --   -0.98739  -0.98301  -0.97543  -0.96999  -0.96673
 Alpha  occ. eigenvalues --   -0.87428  -0.87045  -0.84323  -0.83602  -0.83458
 Alpha  occ. eigenvalues --   -0.83447  -0.83016  -0.82639  -0.82246  -0.81722
 Alpha  occ. eigenvalues --   -0.81581  -0.81259  -0.80989  -0.80847  -0.79028
 Alpha  occ. eigenvalues --   -0.78856  -0.78225  -0.77943  -0.77094  -0.76607
 Alpha  occ. eigenvalues --   -0.76595  -0.75917  -0.75469  -0.75421  -0.75147
 Alpha  occ. eigenvalues --   -0.74871  -0.72780  -0.72690  -0.71905  -0.71637
 Alpha  occ. eigenvalues --   -0.71505  -0.71369  -0.70760  -0.70483  -0.69956
 Alpha  occ. eigenvalues --   -0.69465  -0.67828  -0.67336  -0.66607  -0.66280
 Alpha  occ. eigenvalues --   -0.64258  -0.63832  -0.63519  -0.63333  -0.62370
 Alpha  occ. eigenvalues --   -0.62127  -0.61077  -0.60807  -0.60746  -0.59998
 Alpha  occ. eigenvalues --   -0.59716  -0.59526  -0.59221  -0.59175  -0.58992
 Alpha  occ. eigenvalues --   -0.58694  -0.57030  -0.56334  -0.54789  -0.54588
 Alpha  occ. eigenvalues --   -0.54459  -0.54374  -0.53935  -0.53908  -0.53279
 Alpha  occ. eigenvalues --   -0.53247  -0.52738  -0.52311  -0.52104  -0.51534
 Alpha  occ. eigenvalues --   -0.50923  -0.50691  -0.50288  -0.50138  -0.49999
 Alpha  occ. eigenvalues --   -0.49963  -0.49634  -0.49484  -0.48852  -0.48446
 Alpha  occ. eigenvalues --   -0.48326  -0.48212  -0.47820  -0.47796  -0.47694
 Alpha  occ. eigenvalues --   -0.47606  -0.47584  -0.47335  -0.47158  -0.46618
 Alpha  occ. eigenvalues --   -0.46538  -0.46387  -0.46288  -0.46166  -0.46119
 Alpha  occ. eigenvalues --   -0.45658  -0.45307  -0.45188  -0.45067  -0.44920
 Alpha  occ. eigenvalues --   -0.44697  -0.44456  -0.44331  -0.44162  -0.44127
 Alpha  occ. eigenvalues --   -0.43958  -0.43723  -0.43511  -0.43504  -0.43319
 Alpha  occ. eigenvalues --   -0.43162  -0.42915  -0.42880  -0.42879  -0.42781
 Alpha  occ. eigenvalues --   -0.42476  -0.42444  -0.42249  -0.42202  -0.41884
 Alpha  occ. eigenvalues --   -0.41833  -0.41755  -0.41570  -0.41464  -0.41196
 Alpha  occ. eigenvalues --   -0.41158  -0.40853  -0.40823  -0.40727  -0.40665
 Alpha  occ. eigenvalues --   -0.40403  -0.40243  -0.39826  -0.39749  -0.39528
 Alpha  occ. eigenvalues --   -0.39315  -0.39206  -0.39079  -0.38667  -0.38654
 Alpha  occ. eigenvalues --   -0.38449  -0.38447  -0.38402  -0.38362  -0.38124
 Alpha  occ. eigenvalues --   -0.37985  -0.37977  -0.37893  -0.37719  -0.37252
 Alpha  occ. eigenvalues --   -0.37233  -0.37091  -0.36911  -0.36787  -0.36661
 Alpha  occ. eigenvalues --   -0.36527  -0.36473  -0.36350  -0.36260  -0.36112
 Alpha  occ. eigenvalues --   -0.35952  -0.35885  -0.35849  -0.35666  -0.35624
 Alpha  occ. eigenvalues --   -0.35239  -0.35030  -0.34916  -0.34782  -0.34150
 Alpha  occ. eigenvalues --   -0.33629  -0.33333  -0.33165  -0.32782  -0.32533
 Alpha  occ. eigenvalues --   -0.32056  -0.31994  -0.31769  -0.31197  -0.30955
 Alpha  occ. eigenvalues --   -0.30869  -0.30482  -0.29442  -0.29283  -0.28942
 Alpha  occ. eigenvalues --   -0.28881  -0.28445  -0.28070  -0.27134  -0.27034
 Alpha  occ. eigenvalues --   -0.26069  -0.25774  -0.25745  -0.25619  -0.25477
 Alpha  occ. eigenvalues --   -0.25288  -0.25162  -0.24971  -0.21307  -0.20880
 Alpha  occ. eigenvalues --   -0.18983  -0.18475
 Alpha virt. eigenvalues --   -0.11570  -0.10563  -0.05267  -0.05112  -0.03808
 Alpha virt. eigenvalues --   -0.03376  -0.02172  -0.01793  -0.00669  -0.00016
 Alpha virt. eigenvalues --    0.00189   0.00501   0.00587   0.01574   0.02406

 Mulliken charges:
               1
     1  Mg  12.000000
     2  C    5.999998
     3  C    6.000000
     4  C    6.000001
     5  C    5.999999
     6  N    6.999998
     7  C    6.000002
     8  C    6.000000
     9  C    6.000000
    10  C    5.999998
    11  C    6.000000
    12  C    6.000000
    13  C    6.000000
    14  H    1.000000
    15  N    7.000000
    16  C    5.999998
    17  C    5.999998
    18  C    5.999999
    19  C    5.999998
    20  C    6.000000
    21  C    5.999999
    22  O    7.999998
    23  C    6.000000
    24  N    7.000000
    25  C    5.999998
    26  C    6.000001
    27  C    6.000000
    28  C    6.000001
    29  C    6.000000
    30  C    6.000000
    31  C    6.000000
    32  N    7.000000
    33  C    6.000002
    34  C    6.000004
    35  C    5.999999
    36  C    6.000002
    37  C    6.000000
    38  C    6.000000
    39  O    8.000001
    40  C    6.000000
    41  C    6.000000
    42  O    8.000000
    43  O    8.000000
    44  C    6.000000
    45  H    0.999999
    46  H    1.000000
    47  H    1.000001
    48  H    1.000000
    49  H    1.000000
    50  H    0.999999
    51  H    1.000000
    52  H    1.000000
    53  H    1.000001
    54  H    1.000000
    55  H    1.000000
    56  H    1.000000
    57  H    0.999999
    58  H    0.999999
    59  H    0.999999
    60  H    0.999999
    61  H    0.999999
    62  H    1.000000
    63  H    1.000000
    64  H    1.000000
    65  H    1.000000
    66  H    1.000000
    67  H    1.000000
    68  H    1.000000
    69  H    1.000000
    70  H    1.000000
    71  H    1.000001
    72  H    1.000000
    73  H    1.000001
    74  H    0.999997
    75  H    1.000001
    76  H    1.000000
    77  H    1.000000
    78  H    1.000000
    79  H    1.000000
    80  Mg  12.000000
    81  C    5.999999
    82  C    6.000000
    83  C    6.000001
    84  C    6.000000
    85  N    7.000000
    86  C    6.000002
    87  C    6.000000
    88  C    6.000000
    89  C    6.000001
    90  C    6.000000
    91  C    6.000000
    92  C    6.000000
    93  H    1.000000
    94  N    7.000000
    95  C    5.999999
    96  C    6.000004
    97  C    5.999999
    98  C    5.999999
    99  C    6.000001
   100  C    6.000001
   101  O    8.000001
   102  C    5.999999
   103  N    7.000000
   104  C    6.000000
   105  C    6.000000
   106  C    6.000000
   107  C    6.000002
   108  C    6.000000
   109  C    6.000000
   110  C    6.000000
   111  N    7.000000
   112  C    6.000002
   113  C    6.000002
   114  C    6.000000
   115  C    6.000002
   116  C    6.000000
   117  C    6.000001
   118  O    8.000002
   119  C    6.000000
   120  C    6.000000
   121  O    8.000000
   122  O    8.000000
   123  C    6.000000
   124  H    1.000000
   125  H    1.000000
   126  H    1.000001
   127  H    1.000000
   128  H    1.000000
   129  H    1.000000
   130  H    0.999999
   131  H    1.000000
   132  H    1.000000
   133  H    1.000000
   134  H    1.000000
   135  H    1.000000
   136  H    0.999993
   137  H    1.000001
   138  H    0.999999
   139  H    1.000000
   140  H    0.999999
   141  H    0.999999
   142  H    1.000000
   143  H    1.000000
   144  H    1.000000
   145  H    1.000000
   146  H    1.000000
   147  H    1.000000
   148  H    1.000001
   149  H    1.000000
   150  H    1.000000
   151  H    1.000000
   152  H    1.000001
   153  H    1.000001
   154  H    1.000001
   155  H    1.000000
   156  H    1.000000
   157  H    1.000000
   158  H    1.000000
 Sum of Mulliken charges = 624.00000

 Dipole moment (field-independent basis, Debye):
    X=             -0.0017    Y=              0.0000    Z=             -0.0002  Tot=              0.0017
 Quadrupole moment (field-independent basis, Debye-Ang):
   XX=              0.0002   YY=              0.0004   ZZ=             -0.0002
   XY=              0.0014   XZ=             -0.0028   YZ=              0.0003

 Normal termination of Gaussian 16 at Thu Oct 14 16:45:00 2021.
