 Gaussian 16, Revision A.03,
 Gaussian 16:  ES64L-G16RevA.03 25-Dec-2016

 --------------------------------------------------------
 #p PBE1PBE/Def2SVP td=(nstates=5) density=(transition=1)
 --------------------------------------------------------

 --------------------------------
 TDDFT excited states in gaussian
 --------------------------------
 Symbolic Z-matrix:
 Charge =  0 Multiplicity = 1

                         Standard orientation:
 ---------------------------------------------------------------------
 Center     Atomic      Atomic             Coordinates (Angstroms)
 Number     Number       Type             X           Y           Z
 ---------------------------------------------------------------------
      1         12           0       20.221419    0.382043    0.426310
      2          6           0       17.911719   -1.538977   -1.318643
      3          6           0       20.954297    1.891427   -2.609201
      4          6           0       22.827214    1.903002    1.995627
      5          6           0       19.457661   -1.371086    3.307127
      6          7           0       19.545714    0.151291   -1.727615
      7          6           0       18.550468   -0.679855   -2.218832
      8          6           0       18.374907   -0.606849   -3.786544
      9          6           0       19.621307    0.288022   -4.154470
     10          6           0       20.116715    0.795186   -2.750119
     11          6           0       20.811622   -0.292515   -4.923645
     12          6           0       16.992672   -0.039779   -4.158686
     13          6           0       15.982456   -1.006299   -4.718560
     14          1           0       15.056476   -0.476575   -5.827848
     15          7           0       21.577541    1.851520   -0.121596
     16          6           0       21.628815    2.358419   -1.382589
     17          6           0       22.728775    3.342389   -1.365725
     18          6           0       23.350368    3.303555   -0.107829
     19          6           0       22.620884    2.370422    0.659607
     20          6           0       22.950711    4.251535   -2.505718
     21          6           0       24.560106    4.034391    0.396503
     22          8           0       24.950569    3.988889    1.596120
     23          6           0       25.413959    4.828642   -0.429672
     24          7           0       20.959905    0.345883    2.341560
     25          6           0       22.024947    1.076758    2.770574
     26          6           0       22.365625    0.849597    4.190781
     27          6           0       21.253523   -0.158479    4.654289
     28          6           0       20.574267   -0.446269    3.368363
     29          6           0       23.773760    0.386478    4.667443
     30          6           0       20.325027    0.347054    5.866217
     31          6           0       19.069150    1.244605    5.658105
     32          7           0       19.002929   -1.159850    0.953694
     33          6           0       18.764709   -1.744864    2.163961
     34          6           0       17.665240   -2.603148    2.076050
     35          6           0       17.365217   -2.601054    0.659449
     36          6           0       18.192907   -1.685050    0.041343
     37          6           0       16.959110   -3.346388    3.208485
     38          6           0       16.405968   -3.106918   -0.279929
     39          8           0       15.402278   -3.784658   -0.192634
     40          6           0       16.894260   -2.590529   -1.678692
     41          6           0       17.475397   -3.706660   -2.450826
     42          8           0       18.676389   -3.841996   -2.772627
     43          8           0       16.590598   -4.665286   -2.801869
     44          6           0       16.995781   -5.727233   -3.784922
     45          1           0       21.224747    2.316521   -3.577360
     46          1           0       23.668765    2.329914    2.545506
     47          1           0       19.044033   -1.841153    4.202338
     48          1           0       18.678422   -1.532222   -4.277217
     49          1           0       19.215630    1.136734   -4.705034
     50          1           0       21.683253   -0.360131   -4.272221
     51          1           0       21.111626    0.474154   -5.636488
     52          1           0       20.636495   -1.255155   -5.405256
     53          1           0       17.188726    0.679152   -4.955038
     54          1           0       16.615080    0.520765   -3.303517
     55          1           0       15.349959   -1.330936   -3.891909
     56          1           0       16.389119   -1.940709   -5.105600
     57          1           0       22.783766    5.249004   -2.101218
     58          1           0       22.354840    4.136789   -3.412107
     59          1           0       23.989352    4.183086   -2.829097
     60          1           0       25.568106    4.237203   -1.331808
     61          1           0       26.270764    5.192879    0.135706
     62          1           0       24.886615    5.701192   -0.815327
     63          1           0       22.176648    1.851934    4.574000
     64          1           0       21.720920   -1.094944    4.956426
     65          1           0       24.276880    1.150179    5.260578
     66          1           0       24.432439    0.192585    3.820214
     67          1           0       23.757223   -0.554133    5.217851
     68          1           0       21.023097    0.951001    6.446304
     69          1           0       20.123603   -0.599808    6.367425
     70          1           0       18.760694    1.384122    4.622333
     71          1           0       19.057176    2.186617    6.207086
     72          1           0       18.282137    0.699409    6.177481
     73          1           0       16.933726   -4.422814    3.035683
     74          1           0       15.918759   -3.021609    3.213490
     75          1           0       17.338990   -3.120822    4.205282
     76          1           0       16.006013   -2.334377   -2.256446
     77          1           0       15.990949   -6.085909   -4.008442
     78          1           0       17.650449   -6.501221   -3.385705
     79          1           0       17.492742   -5.266530   -4.639231
     80         12           0      -20.036884   -0.582379   -0.351779
     81          6           0      -19.918176    2.995648   -0.178456
     82          6           0      -16.519504   -0.548010    0.030234
     83          6           0      -20.160305   -3.879411    0.260295
     84          6           0      -23.469404   -0.393398   -0.042797
     85          7           0      -18.371845    1.039007   -0.109924
     86          6           0      -18.648752    2.375870   -0.044365
     87          6           0      -17.413405    3.130272    0.421085
     88          6           0      -16.337274    1.989483    0.184594
     89          6           0      -17.063859    0.708814    0.023416
     90          6           0      -15.341731    2.178981   -1.008816
     91          6           0      -17.637235    3.690339    1.862391
     92          6           0      -17.213617    5.177505    2.205416
     93          1           0      -16.138241    5.436654    3.275826
     94          7           0      -18.618229   -2.014837   -0.111340
     95          6           0      -17.215244   -1.832205    0.008060
     96          6           0      -16.545675   -3.112976    0.140185
     97          6           0      -17.629965   -4.079104    0.214179
     98          6           0      -18.859965   -3.316755    0.109007
     99          6           0      -15.088305   -3.211376    0.320615
    100          6           0      -17.389145   -5.592808    0.348568
    101          8           0      -16.186278   -5.957103    0.497787
    102          6           0      -18.483202   -6.680998    0.314348
    103          7           0      -21.569457   -1.994475    0.329801
    104          6           0      -21.405311   -3.303431    0.333604
    105          6           0      -22.714375   -3.944996    0.663123
    106          6           0      -23.750033   -2.801123    0.495527
    107          6           0      -22.872018   -1.599414    0.327100
    108          6           0      -23.163459   -5.266722   -0.094934
    109          6           0      -24.798330   -2.635356    1.713118
    110          6           0      -26.300251   -2.888575    1.434620
    111          7           0      -21.429907    0.906852   -0.349350
    112          6           0      -22.766219    0.847934   -0.221342
    113          6           0      -23.350013    2.138682   -0.253532
    114          6           0      -22.255825    3.006410   -0.282889
    115          6           0      -21.082261    2.210919   -0.297161
    116          6           0      -24.763408    2.563597   -0.257024
    117          6           0      -21.955328    4.404780   -0.264728
    118          8           0      -22.720249    5.338784   -0.174844
    119          6           0      -20.302961    4.452758   -0.145222
    120          6           0      -19.741141    5.179988   -1.289664
    121          8           0      -20.098107    5.053573   -2.467846
    122          8           0      -18.740113    5.986617   -0.791857
    123          6           0      -18.032359    6.818178   -1.763912
    124          1           0      -15.435677   -0.603968    0.142593
    125          1           0      -20.261888   -4.923980    0.560802
    126          1           0      -24.547802   -0.285325   -0.177706
    127          1           0      -17.212439    3.884238   -0.340433
    128          1           0      -15.907181    1.983713    1.186826
    129          1           0      -15.441459    1.306244   -1.655759
    130          1           0      -14.293694    2.224045   -0.713519
    131          1           0      -15.548453    3.024644   -1.665440
    132          1           0      -17.013748    2.991417    2.419507
    133          1           0      -18.642707    3.576858    2.267043
    134          1           0      -18.145262    5.671638    2.480435
    135          1           0      -16.983991    5.686376    1.269735
    136          1           0      -14.838843   -2.553132    1.153163
    137          1           0      -14.577399   -2.797913   -0.548692
    138          1           0      -14.650240   -4.206229    0.405196
    139          1           0      -19.045647   -6.620388    1.246204
    140          1           0      -17.960642   -7.569822   -0.037708
    141          1           0      -19.114684   -6.357043   -0.513614
    142          1           0      -22.649395   -4.264065    1.702614
    143          1           0      -24.143440   -3.004204   -0.500590
    144          1           0      -23.798908   -5.785195    0.623480
    145          1           0      -22.270107   -5.827117   -0.370137
    146          1           0      -23.750400   -4.943864   -0.954973
    147          1           0      -24.631148   -1.614072    2.054963
    148          1           0      -24.429639   -3.237262    2.543603
    149          1           0      -26.939235   -2.088526    1.806029
    150          1           0      -26.583696   -3.834127    1.897647
    151          1           0      -26.528255   -3.057237    0.381997
    152          1           0      -24.876378    3.587801   -0.611060
    153          1           0      -24.945890    2.460539    0.812797
    154          1           0      -25.360354    1.740207   -0.648974
    155          1           0      -19.987148    4.804173    0.836403
    156          1           0      -18.722383    7.395065   -2.380098
    157          1           0      -17.392957    6.192186   -2.388069
    158          1           0      -17.409473    7.531045   -1.223548
 ---------------------------------------------------------------------

 SCF Done:  E(RPBE1PBE) =  -4067.36492791     A.U. after   17 cycles

 Excitation energies and oscillator strengths:

 Excited State   1:      Singlet-A      1.8630 eV  665.50 nm  f=0.3543  <S**2>=0.000
     309 -> 315       -0.17280
     311 -> 313        0.66382
     312 -> 314        0.19707
     311 <- 313       -0.10461
 This state for optimization and/or second-order correction.
 Total Energy, E(TD-HF/TD-DFT) =  -4067.29646258
 Copying the excited state density for this state as the 1-particle RhoCI density.

 Excited State   2:      Singlet-A      1.8656 eV  664.57 nm  f=0.3938  <S**2>=0.000
     310 -> 316        0.16319
     311 -> 313       -0.19722
     312 -> 314        0.66304
     312 <- 314       -0.10457

 Excited State   3:      Singlet-A      1.9140 eV  647.78 nm  f=0.0000  <S**2>=0.000
     312 -> 313        0.70711

 Excited State   4:      Singlet-A      2.0473 eV  605.59 nm  f=0.0000  <S**2>=0.000
     311 -> 314        0.70710

 Excited State   5:      Singlet-A      2.2251 eV  557.22 nm  f=0.1298  <S**2>=0.000
     310 -> 314        0.65911
     312 -> 316       -0.23845

 The electronic state is 1-A.
 Alpha  occ. eigenvalues --  -46.92277 -46.90932 -19.26846 -19.24667 -19.20708
 Alpha  occ. eigenvalues --  -19.19953 -19.18502 -19.18497 -19.18408 -19.18168
 Alpha  occ. eigenvalues --  -14.41464 -14.41400 -14.41375 -14.40952 -14.39588
 Alpha  occ. eigenvalues --  -14.39434 -14.39183 -14.38054 -10.37015 -10.35521
 Alpha  occ. eigenvalues --  -10.32570 -10.32460 -10.31587 -10.31348 -10.29608
 Alpha  occ. eigenvalues --  -10.29213 -10.28914 -10.28735 -10.28577 -10.28480
 Alpha  occ. eigenvalues --  -10.28266 -10.28250 -10.28139 -10.28101 -10.28033
 Alpha  occ. eigenvalues --  -10.28018 -10.27785 -10.27677 -10.27421 -10.26742
 Alpha  occ. eigenvalues --  -10.26466 -10.26378 -10.26308 -10.26282 -10.26281
 Alpha  occ. eigenvalues --  -10.25975 -10.25963 -10.25953 -10.25779 -10.25631
 Alpha  occ. eigenvalues --  -10.25590 -10.25450 -10.25428 -10.25409 -10.25348
 Alpha  occ. eigenvalues --  -10.25306 -10.25245 -10.25179 -10.25104 -10.25087
 Alpha  occ. eigenvalues --  -10.25059 -10.24951 -10.24913 -10.24897 -10.24889
 Alpha  occ. eigenvalues --  -10.24828 -10.24788 -10.24476 -10.24348 -10.24311
 Alpha  occ. eigenvalues --  -10.24284 -10.24264 -10.24143 -10.23990 -10.23884
 Alpha  occ. eigenvalues --  -10.23765 -10.23685 -10.23505 -10.23492 -10.23457
 Alpha  occ. eigenvalues --  -10.23411 -10.23153 -10.22900 -10.22512 -10.22410
 Alpha  occ. eigenvalues --  -10.22274  -3.14410  -3.13224  -1.87239  -1.86772
 Alpha  occ. eigenvalues --   -1.86650  -1.86077  -1.85603  -1.85452  -1.11230
 Alpha  occ. eigenvalues --   -1.09866  -1.05564  -1.04319  -1.02894  -1.02602
 Alpha  occ. eigenvalues --   -1.01969  -1.00100  -0.99869  -0.99524  -0.99391
 Alpha  occ. eigenvalues --   -0.98758  -0.98321  -0.97860  -0.97018  -0.96869
 Alpha  occ. eigenvalues --   -0.87480  -0.87471  -0.83658  -0.83266  -0.82727
 Alpha  occ. eigenvalues --   -0.82607  -0.82599  -0.82402  -0.82276  -0.81832
 Alpha  occ. eigenvalues --   -0.81804  -0.81323  -0.80454  -0.80327  -0.78926
 Alpha  occ. eigenvalues --   -0.78623  -0.78096  -0.77931  -0.76972  -0.76965
 Alpha  occ. eigenvalues --   -0.76705  -0.76198  -0.75683  -0.75296  -0.74869
 Alpha  occ. eigenvalues --   -0.74778  -0.72880  -0.72568  -0.71943  -0.71823
 Alpha  occ. eigenvalues --   -0.71178  -0.71134  -0.70566  -0.70506  -0.69695
 Alpha  occ. eigenvalues --   -0.69644  -0.67655  -0.67552  -0.66651  -0.65773
 Alpha  occ. eigenvalues --   -0.64488  -0.64153  -0.63828  -0.63120  -0.62836
 Alpha  occ. eigenvalues --   -0.62433  -0.61500  -0.61203  -0.60575  -0.60138
 Alpha  occ. eigenvalues --   -0.59670  -0.59637  -0.59495  -0.59277  -0.59208
 Alpha  occ. eigenvalues --   -0.58905  -0.57485  -0.56067  -0.54705  -0.54541
 Alpha  occ. eigenvalues --   -0.54490  -0.54172  -0.54040  -0.53713  -0.53457
 Alpha  occ. eigenvalues --   -0.53260  -0.52907  -0.52244  -0.52209  -0.51833
 Alpha  occ. eigenvalues --   -0.50768  -0.50761  -0.50409  -0.50144  -0.50110
 Alpha  occ. eigenvalues --   -0.49461  -0.49424  -0.49103  -0.48918  -0.48394
 Alpha  occ. eigenvalues --   -0.48303  -0.47956  -0.47826  -0.47547  -0.47258
 Alpha  occ. eigenvalues --   -0.47094  -0.47083  -0.47013  -0.46593  -0.46585
 Alpha  occ. eigenvalues --   -0.46503  -0.46305  -0.45914  -0.45862  -0.45657
 Alpha  occ. eigenvalues --   -0.45402  -0.45154  -0.44955  -0.44947  -0.44790
 Alpha  occ. eigenvalues --   -0.44565  -0.44508  -0.44343  -0.44212  -0.44198
 Alpha  occ. eigenvalues --   -0.44020  -0.43995  -0.43597  -0.43467  -0.43438
 Alpha  occ. eigenvalues --   -0.43143  -0.43036  -0.42805  -0.42598  -0.42547
 Alpha  occ. eigenvalues --   -0.42419  -0.42413  -0.42343  -0.42313  -0.42146
 Alpha  occ. eigenvalues --   -0.41889  -0.41739  -0.41426  -0.41359  -0.41176
 Alpha  occ. eigenvalues --   -0.41123  -0.40985  -0.40777  -0.40773  -0.40676
 Alpha  occ. eigenvalues --   -0.40424  -0.40360  -0.40172  -0.40068  -0.40042
 Alpha  occ. eigenvalues --   -0.39915  -0.39773  -0.39581  -0.39301  -0.39038
 Alpha  occ. eigenvalues --   -0.38781  -0.38571  -0.38557  -0.38537  -0.38420
 Alpha  occ. eigenvalues --   -0.38341  -0.38176  -0.38085  -0.37909  -0.37760
 Alpha  occ. eigenvalues --   -0.37754  -0.37661  -0.37634  -0.37345  -0.37214
 Alpha  occ. eigenvalues --   -0.36443  -0.36414  -0.36245  -0.36113  -0.35992
 Alpha  occ. eigenvalues --   -0.35903  -0.35688  -0.35632  -0.35269  -0.35169
 Alpha  occ. eigenvalues --   -0.35169  -0.34802  -0.34597  -0.33925  -0.33817
 Alpha  occ. eigenvalues --   -0.33733  -0.33219  -0.33211  -0.32830  -0.32631
 Alpha  occ. eigenvalues --   -0.32572  -0.31910  -0.31586  -0.31509  -0.31469
 Alpha  occ. eigenvalues --   -0.30851  -0.30513  -0.29910  -0.29526  -0.29261
 Alpha  occ. eigenvalues --   -0.28777  -0.28625  -0.27559  -0.26981  -0.26658
 Alpha  occ. eigenvalues --   -0.26104  -0.25702  -0.25631  -0.25203  -0.25186
 Alpha  occ. eigenvalues --   -0.25013  -0.24890  -0.24884  -0.21135  -0.20607
 Alpha  occ. eigenvalues --   -0.18933  -0.18702
 Alpha virt. eigenvalues --   -0.11339  -0.11080  -0.05210  -0.04875  -0.03915
 Alpha virt. eigenvalues --   -0.03509  -0.02029  -0.02026  -0.00540  -0.00179
 Alpha virt. eigenvalues --    0.00618   0.00845   0.00906   0.01443   0.01844

 Mulliken charges:
               1
     1  Mg  12.000051
     2  C    6.004894
     3  C    5.996002
     4  C    5.995225
     5  C    5.999031
     6  N    7.001394
     7  C    5.992605
     8  C    6.003259
     9  C    5.998435
    10  C    6.007276
    11  C    5.999494
    12  C    6.001078
    13  C    6.000576
    14  H    0.998104
    15  N    6.998817
    16  C    6.011312
    17  C    6.008626
    18  C    6.001619
    19  C    6.009269
    20  C    5.998384
    21  C    6.003297
    22  O    8.007067
    23  C    5.998807
    24  N    6.997569
    25  C    6.010813
    26  C    5.995899
    27  C    6.003620
    28  C    5.990707
    29  C    6.000319
    30  C    6.001100
    31  C    6.000423
    32  N    7.000919
    33  C    5.993027
    34  C    5.991927
    35  C    5.998656
    36  C    5.992601
    37  C    6.000530
    38  C    5.995909
    39  O    7.992003
    40  C    5.998728
    41  C    5.999706
    42  O    7.997042
    43  O    8.000413
    44  C    6.000540
    45  H    1.002796
    46  H    1.002312
    47  H    0.996343
    48  H    0.998953
    49  H    1.000195
    50  H    0.998966
    51  H    0.999789
    52  H    1.003321
    53  H    0.997559
    54  H    0.999869
    55  H    1.001413
    56  H    1.000099
    57  H    1.005818
    58  H    1.005592
    59  H    1.006065
    60  H    1.000990
    61  H    1.003813
    62  H    1.001877
    63  H    0.999977
    64  H    0.999870
    65  H    0.999980
    66  H    0.999213
    67  H    1.002830
    68  H    0.996651
    69  H    1.000402
    70  H    1.000203
    71  H    0.997668
    72  H    1.000418
    73  H    0.994997
    74  H    0.995170
    75  H    0.995549
    76  H    0.997572
    77  H    0.999087
    78  H    0.999232
    79  H    0.998341
    80  Mg  11.999505
    81  C    6.012699
    82  C    5.982376
    83  C    5.985170
    84  C    6.018985
    85  N    6.996186
    86  C    5.975295
    87  C    6.006956
    88  C    5.991869
    89  C    6.028405
    90  C    5.997847
    91  C    6.006946
    92  C    6.000544
    93  H    0.990720
    94  N    6.997258
    95  C    6.043888
    96  C    6.018659
    97  C    6.011219
    98  C    6.030285
    99  C    5.996314
   100  C    6.012141
   101  O    8.021210
   102  C    6.001772
   103  N    7.000218
   104  C    6.030037
   105  C    5.990107
   106  C    6.010280
   107  C    5.967105
   108  C    5.998597
   109  C    6.001449
   110  C    6.001083
   111  N    7.000433
   112  C    5.966463
   113  C    5.973261
   114  C    5.996071
   115  C    5.973358
   116  C    5.998752
   117  C    5.984953
   118  O    7.974640
   119  C    5.996185
   120  C    5.995268
   121  O    7.995755
   122  O    7.997561
   123  C    6.002128
   124  H    1.007867
   125  H    1.006912
   126  H    0.993802
   127  H    1.000310
   128  H    1.001869
   129  H    0.995331
   130  H    1.001390
   131  H    1.011696
   132  H    0.988652
   133  H    1.004884
   134  H    1.003298
   135  H    1.000055
   136  H    1.018148
   137  H    1.018721
   138  H    1.012695
   139  H    1.009994
   140  H    1.011026
   141  H    1.007188
   142  H    1.001010
   143  H    0.997903
   144  H    1.005045
   145  H    0.992958
   146  H    1.006519
   147  H    1.005498
   148  H    0.991329
   149  H    1.002056
   150  H    0.994605
   151  H    0.998823
   152  H    0.987901
   153  H    0.982175
   154  H    0.982259
   155  H    0.990972
   156  H    0.998224
   157  H    0.993867
   158  H    0.995063
 Sum of Mulliken charges = 624.00000

 Dipole moment (field-independent basis, Debye):
    X=              8.3191    Y=             -5.5577    Z=             -0.4531  Tot=             10.0150
 Quadrupole moment (field-independent basis, Debye-Ang):
   XX=           -175.6727   YY=              7.0481   ZZ=             -2.1779
   XY=            188.9242   XZ=            -22.8523   YZ=             -0.0798

 Normal termination of Gaussian 16 at Thu Oct 14 03:09:28 2021.
