 Gaussian 16, Revision A.03,
 Gaussian 16:  ES64L-G16RevA.03 25-Dec-2016

 --------------------------------------------------------
 #p PBE1PBE/Def2SVP td=(nstates=5) density=(transition=1)
 --------------------------------------------------------

 --------------------------------
 TDDFT excited states in gaussian
 --------------------------------
 Symbolic Z-matrix:
 Charge =  0 Multiplicity = 1

                         Standard orientation:
 ---------------------------------------------------------------------
 Center     Atomic      Atomic             Coordinates (Angstroms)
 Number     Number       Type             X           Y           Z
 ---------------------------------------------------------------------
      1         12           0       -9.245369   -0.845910    0.586136
      2          6           0       -9.932398    2.449699   -0.305201
      3          6           0       -7.450403    0.286360    3.293702
      4          6           0       -8.440850   -4.075723    1.154830
      5          6           0      -10.790899   -1.876472   -2.466565
      6          7           0       -8.684892    1.132227    1.296301
      7          6           0       -9.087579    2.338920    0.813430
      8          6           0       -8.622909    3.487616    1.718010
      9          6           0       -7.708899    2.714785    2.768560
     10          6           0       -7.990691    1.249824    2.418756
     11          6           0       -6.232996    3.057700    2.605812
     12          6           0       -9.749352    4.221793    2.529031
     13          6           0       -9.508155    5.661833    2.900557
     14          1           0       -8.156581    6.215011    2.811282
     15          7           0       -8.198051   -1.747940    2.052010
     16          6           0       -7.514458   -1.087500    3.092441
     17          6           0       -7.054781   -2.116522    3.987903
     18          6           0       -7.360157   -3.390081    3.444693
     19          6           0       -8.032083   -3.114185    2.150983
     20          6           0       -6.168472   -1.838678    5.183165
     21          6           0       -7.147500   -4.747201    3.971463
     22          8           0       -7.283776   -5.749893    3.303329
     23          6           0       -6.563182   -4.957627    5.415348
     24          7           0       -9.705533   -2.800439   -0.411258
     25          6           0       -9.236270   -3.933251    0.019131
     26          6           0       -9.627163   -5.108358   -0.926843
     27          6           0      -10.430671   -4.452326   -2.034980
     28          6           0      -10.290554   -2.925032   -1.694153
     29          6           0       -8.326672   -5.938771   -1.353871
     30          6           0      -11.881699   -4.971065   -2.120508
     31          6           0      -12.176734   -6.115945   -3.160266
     32          7           0      -10.365710   -0.021797   -0.886104
     33          6           0      -10.933090   -0.549331   -2.072601
     34          6           0      -11.594904    0.455044   -2.814589
     35          6           0      -11.132052    1.675971   -2.162453
     36          6           0      -10.427507    1.274009   -0.991776
     37          6           0      -12.231002    0.281317   -4.181639
     38          6           0      -11.180833    3.081931   -2.327066
     39          8           0      -11.732218    3.794803   -3.156196
     40          6           0      -10.413364    3.678246   -0.971943
     41          6           0       -9.369986    4.620351   -1.496695
     42          8           0       -8.461298    4.297946   -2.269218
     43          8           0       -9.611217    5.974302   -1.117901
     44          6           0       -8.616712    6.975799   -1.615118
     45          1           0       -6.895196    0.716534    4.130717
     46          1           0       -7.985560   -5.056189    1.306912
     47          1           0      -11.320002   -2.140374   -3.384253
     48          1           0       -8.039912    4.155454    1.083421
     49          1           0       -7.960173    2.948788    3.802985
     50          1           0       -6.100072    3.948775    1.992880
     51          1           0       -5.641289    2.215656    2.245693
     52          1           0       -5.761935    3.419793    3.519674
     53          1           0       -9.938504    3.636132    3.427979
     54          1           0      -10.670414    4.096375    1.959388
     55          1           0       -9.740558    5.756638    3.961036
     56          1           0      -10.153424    6.297797    2.294469
     57          1           0       -5.161745   -2.241903    5.074096
     58          1           0       -6.666392   -2.233422    6.069792
     59          1           0       -5.970040   -0.789149    5.399855
     60          1           0       -5.484027   -4.836499    5.317753
     61          1           0       -6.676609   -5.998867    5.717406
     62          1           0       -6.940249   -4.200822    6.102142
     63          1           0      -10.240742   -5.741264   -0.285438
     64          1           0       -9.924264   -4.520001   -2.996596
     65          1           0       -8.234055   -5.974871   -2.439242
     66          1           0       -8.376232   -6.994323   -1.085832
     67          1           0       -7.495423   -5.381844   -0.919523
     68          1           0      -12.493116   -4.107207   -2.383684
     69          1           0      -12.160980   -5.278281   -1.112567
     70          1           0      -12.373219   -5.643176   -4.123193
     71          1           0      -12.943842   -6.855093   -2.928596
     72          1           0      -11.186206   -6.561621   -3.245056
     73          1           0      -13.230762   -0.081097   -3.943834
     74          1           0      -11.705830   -0.467823   -4.772981
     75          1           0      -12.137942    1.121510   -4.870965
     76          1           0      -11.154632    4.161147   -0.334007
     77          1           0       -8.614545    7.033195   -2.703009
     78          1           0       -7.574755    6.866581   -1.313115
     79          1           0       -9.078348    7.880875   -1.220368
     80         12           0        9.518282   -0.455616   -0.328593
     81          6           0        7.521977    2.382381   -0.258474
     82          6           0       12.114567    1.321383    0.886192
     83          6           0       11.390983   -3.215731   -0.610792
     84          6           0        6.812689   -2.175458   -1.737097
     85          7           0        9.705235    1.642299    0.262410
     86          6           0        8.787738    2.578639    0.303842
     87          6           0        9.464596    3.888631    0.919678
     88          6           0       10.887255    3.622252    0.475222
     89          6           0       10.950760    2.065173    0.579139
     90          6           0       11.131995    4.223173   -0.925744
     91          6           0        9.087765    4.045326    2.455485
     92          6           0        9.265995    5.460197    3.014722
     93          1           0        9.986728    6.496070    2.169326
     94          7           0       11.401535   -0.929529    0.239134
     95          6           0       12.312062   -0.043468    0.810073
     96          6           0       13.484938   -0.842515    1.275951
     97          6           0       13.315242   -2.202947    0.775002
     98          6           0       12.025780   -2.094749    0.042194
     99          6           0       14.627470   -0.239065    2.058062
    100          6           0       14.203056   -3.517848    0.967589
    101          8           0       13.882840   -4.630725    0.536481
    102          6           0       15.492969   -3.352953    1.743825
    103          7           0        9.204253   -2.329793   -1.147554
    104          6           0       10.118770   -3.295775   -1.164297
    105          6           0        9.639205   -4.569395   -1.926676
    106          6           0        8.137107   -4.268999   -2.031567
    107          6           0        7.997903   -2.855090   -1.561705
    108          6           0       10.344068   -4.813969   -3.290142
    109          6           0        7.108682   -5.320081   -1.418053
    110          6           0        6.468978   -4.976081   -0.113184
    111          7           0        7.627697    0.007699   -1.090258
    112          6           0        6.630644   -0.778201   -1.561595
    113          6           0        5.455736   -0.053214   -1.891631
    114          6           0        5.754189    1.248368   -1.378881
    115          6           0        7.051275    1.173920   -0.925067
    116          6           0        4.162604   -0.407953   -2.578788
    117          6           0        5.287750    2.583547   -1.150546
    118          8           0        4.233979    3.128331   -1.399671
    119          6           0        6.331655    3.351557   -0.278602
    120          6           0        6.627047    4.648471   -0.894946
    121          8           0        7.119377    4.747484   -2.008582
    122          8           0        6.126037    5.757449   -0.166292
    123          6           0        6.292083    7.074740   -0.800315
    124          1           0       12.946729    1.944696    1.216665
    125          1           0       12.040490   -4.084814   -0.728092
    126          1           0        6.008585   -2.731834   -2.222512
    127          1           0        9.033840    4.776583    0.458943
    128          1           0       11.649000    3.977678    1.168685
    129          1           0       11.845030    5.019698   -0.710418
    130          1           0       10.227419    4.631728   -1.378135
    131          1           0       11.656707    3.453954   -1.491953
    132          1           0        9.705209    3.382167    3.062017
    133          1           0        8.020198    3.829425    2.503798
    134          1           0        9.785015    5.353620    3.966780
    135          1           0        8.269013    5.831764    3.250235
    136          1           0       14.282849    0.562013    2.712980
    137          1           0       15.472126    0.145401    1.487282
    138          1           0       15.017392   -0.998740    2.735360
    139          1           0       15.984694   -2.519987    1.241913
    140          1           0       16.174965   -4.200105    1.676908
    141          1           0       15.270977   -3.190568    2.798681
    142          1           0        9.812024   -5.471840   -1.340510
    143          1           0        7.944743   -4.136758   -3.095650
    144          1           0        9.545263   -5.108439   -3.971237
    145          1           0       11.147347   -5.548937   -3.306400
    146          1           0       10.834957   -3.885093   -3.580643
    147          1           0        7.588729   -6.298570   -1.399459
    148          1           0        6.243285   -5.390578   -2.076612
    149          1           0        5.410351   -4.801519   -0.306830
    150          1           0        6.733863   -4.007418    0.312432
    151          1           0        6.518970   -5.764610    0.637777
    152          1           0        4.163779   -1.427155   -2.966821
    153          1           0        3.935226    0.357802   -3.320989
    154          1           0        3.277885   -0.475869   -1.945366
    155          1           0        5.964217    3.526718    0.732194
    156          1           0        6.063806    7.926568   -0.160180
    157          1           0        5.599200    7.030710   -1.641038
    158          1           0        7.307137    7.077065   -1.195761
 ---------------------------------------------------------------------

 SCF Done:  E(RPBE1PBE) =  -4067.41539286     A.U. after   16 cycles

 Excitation energies and oscillator strengths:

 Excited State   1:      Singlet-A      1.8454 eV  671.85 nm  f=0.3952  <S**2>=0.000
     309 -> 315        0.17404
     311 -> 313        0.69091
     311 <- 313       -0.10429
 This state for optimization and/or second-order correction.
 Total Energy, E(TD-HF/TD-DFT) =  -4067.34757517
 Copying the excited state density for this state as the 1-particle RhoCI density.

 Excited State   2:      Singlet-A      1.8635 eV  665.33 nm  f=0.0000  <S**2>=0.000
     312 -> 313        0.70708

 Excited State   3:      Singlet-A      1.8722 eV  662.24 nm  f=0.3492  <S**2>=0.000
     310 -> 316        0.17525
     312 -> 314        0.69173
     312 <- 314       -0.10637

 Excited State   4:      Singlet-A      1.9086 eV  649.61 nm  f=0.0000  <S**2>=0.000
     311 -> 314        0.70707

 Excited State   5:      Singlet-A      2.2107 eV  560.84 nm  f=0.0735  <S**2>=0.000
     309 -> 313        0.64173
     310 -> 314        0.15959
     311 -> 315       -0.23184

 The electronic state is 1-A.
 Alpha  occ. eigenvalues --  -46.91280 -46.91212 -19.24746 -19.24666 -19.20520
 Alpha  occ. eigenvalues --  -19.19763 -19.19607 -19.19080 -19.18752 -19.18373
 Alpha  occ. eigenvalues --  -14.42012 -14.41419 -14.41130 -14.41089 -14.39672
 Alpha  occ. eigenvalues --  -14.39615 -14.39090 -14.38462 -10.36032 -10.35957
 Alpha  occ. eigenvalues --  -10.34225 -10.32198 -10.31683 -10.31464 -10.28974
 Alpha  occ. eigenvalues --  -10.28914 -10.28873 -10.28692 -10.28645 -10.28569
 Alpha  occ. eigenvalues --  -10.28434 -10.28369 -10.28358 -10.28312 -10.28269
 Alpha  occ. eigenvalues --  -10.28209 -10.28185 -10.27845 -10.27686 -10.26993
 Alpha  occ. eigenvalues --  -10.26881 -10.26780 -10.26731 -10.26512 -10.26208
 Alpha  occ. eigenvalues --  -10.26072 -10.25954 -10.25882 -10.25833 -10.25803
 Alpha  occ. eigenvalues --  -10.25718 -10.25640 -10.25512 -10.25411 -10.25405
 Alpha  occ. eigenvalues --  -10.25364 -10.25347 -10.25333 -10.25314 -10.25289
 Alpha  occ. eigenvalues --  -10.25129 -10.25069 -10.25028 -10.24812 -10.24780
 Alpha  occ. eigenvalues --  -10.24723 -10.24691 -10.24493 -10.24367 -10.24310
 Alpha  occ. eigenvalues --  -10.24057 -10.24015 -10.23816 -10.23786 -10.23483
 Alpha  occ. eigenvalues --  -10.23441 -10.23380 -10.23311 -10.23301 -10.23243
 Alpha  occ. eigenvalues --  -10.23230 -10.23113 -10.23042 -10.22649 -10.22222
 Alpha  occ. eigenvalues --  -10.22045  -3.13552  -3.13551  -1.86407  -1.86406
 Alpha  occ. eigenvalues --   -1.85919  -1.85890  -1.85824  -1.85797  -1.09302
 Alpha  occ. eigenvalues --   -1.08106  -1.05472  -1.05046  -1.04556  -1.03617
 Alpha  occ. eigenvalues --   -1.01648  -1.00582  -1.00409  -0.99671  -0.99471
 Alpha  occ. eigenvalues --   -0.98823  -0.98620  -0.98049  -0.97747  -0.96732
 Alpha  occ. eigenvalues --   -0.86638  -0.86490  -0.83578  -0.83458  -0.83105
 Alpha  occ. eigenvalues --   -0.82850  -0.82553  -0.82535  -0.81915  -0.81634
 Alpha  occ. eigenvalues --   -0.81612  -0.81312  -0.80780  -0.80630  -0.78564
 Alpha  occ. eigenvalues --   -0.78417  -0.78053  -0.77275  -0.77053  -0.76619
 Alpha  occ. eigenvalues --   -0.76352  -0.75618  -0.75369  -0.74485  -0.74478
 Alpha  occ. eigenvalues --   -0.74181  -0.72777  -0.72741  -0.71636  -0.71546
 Alpha  occ. eigenvalues --   -0.71061  -0.71054  -0.70177  -0.70061  -0.69460
 Alpha  occ. eigenvalues --   -0.69300  -0.67535  -0.67372  -0.65931  -0.65657
 Alpha  occ. eigenvalues --   -0.63726  -0.63725  -0.63273  -0.63183  -0.62467
 Alpha  occ. eigenvalues --   -0.62406  -0.61547  -0.60922  -0.60054  -0.59629
 Alpha  occ. eigenvalues --   -0.59622  -0.59359  -0.59201  -0.59119  -0.58807
 Alpha  occ. eigenvalues --   -0.58455  -0.55934  -0.55926  -0.55091  -0.54684
 Alpha  occ. eigenvalues --   -0.54244  -0.54148  -0.53822  -0.53778  -0.53111
 Alpha  occ. eigenvalues --   -0.52732  -0.52582  -0.52302  -0.52139  -0.51751
 Alpha  occ. eigenvalues --   -0.50712  -0.50427  -0.50272  -0.50043  -0.49424
 Alpha  occ. eigenvalues --   -0.49358  -0.49093  -0.48488  -0.48473  -0.48254
 Alpha  occ. eigenvalues --   -0.47762  -0.47724  -0.47614  -0.47491  -0.47256
 Alpha  occ. eigenvalues --   -0.47167  -0.46957  -0.46919  -0.46714  -0.46672
 Alpha  occ. eigenvalues --   -0.46651  -0.46561  -0.46480  -0.46087  -0.45876
 Alpha  occ. eigenvalues --   -0.45645  -0.45227  -0.45160  -0.45127  -0.45076
 Alpha  occ. eigenvalues --   -0.44568  -0.44427  -0.44350  -0.44121  -0.44073
 Alpha  occ. eigenvalues --   -0.43907  -0.43772  -0.43746  -0.43631  -0.43515
 Alpha  occ. eigenvalues --   -0.43472  -0.43253  -0.43131  -0.43048  -0.42905
 Alpha  occ. eigenvalues --   -0.42749  -0.42373  -0.42260  -0.42141  -0.42038
 Alpha  occ. eigenvalues --   -0.41770  -0.41700  -0.41665  -0.41549  -0.41449
 Alpha  occ. eigenvalues --   -0.41282  -0.41165  -0.40785  -0.40546  -0.40506
 Alpha  occ. eigenvalues --   -0.40393  -0.39855  -0.39734  -0.39707  -0.39470
 Alpha  occ. eigenvalues --   -0.39382  -0.39169  -0.39160  -0.38860  -0.38784
 Alpha  occ. eigenvalues --   -0.38716  -0.38616  -0.38580  -0.38372  -0.38157
 Alpha  occ. eigenvalues --   -0.38105  -0.37973  -0.37828  -0.37808  -0.37631
 Alpha  occ. eigenvalues --   -0.37459  -0.37439  -0.37013  -0.36939  -0.36711
 Alpha  occ. eigenvalues --   -0.36710  -0.36612  -0.36386  -0.36293  -0.36094
 Alpha  occ. eigenvalues --   -0.35944  -0.35855  -0.35619  -0.35533  -0.35025
 Alpha  occ. eigenvalues --   -0.34943  -0.34907  -0.34597  -0.34334  -0.34147
 Alpha  occ. eigenvalues --   -0.33510  -0.33209  -0.33085  -0.32691  -0.32589
 Alpha  occ. eigenvalues --   -0.32172  -0.31926  -0.31739  -0.31254  -0.31121
 Alpha  occ. eigenvalues --   -0.30625  -0.30604  -0.29727  -0.29602  -0.29076
 Alpha  occ. eigenvalues --   -0.29062  -0.28608  -0.28427  -0.26890  -0.26879
 Alpha  occ. eigenvalues --   -0.26654  -0.26030  -0.25926  -0.25625  -0.25497
 Alpha  occ. eigenvalues --   -0.25383  -0.25282  -0.24966  -0.20996  -0.20869
 Alpha  occ. eigenvalues --   -0.19029  -0.19002
 Alpha virt. eigenvalues --   -0.11428  -0.11324  -0.05126  -0.04833  -0.04227
 Alpha virt. eigenvalues --   -0.03870  -0.02059  -0.01933   0.00093   0.00148
 Alpha virt. eigenvalues --    0.00830   0.01247   0.01374   0.01438   0.01986

 Mulliken charges:
               1
     1  Mg  11.999329
     2  C    6.027595
     3  C    5.999137
     4  C    5.979753
     5  C    5.998610
     6  N    7.015968
     7  C    5.965007
     8  C    6.011723
     9  C    5.987945
    10  C    6.025740
    11  C    5.995940
    12  C    6.002157
    13  C    6.000325
    14  H    0.995864
    15  N    6.991077
    16  C    6.033946
    17  C    6.020619
    18  C    6.017252
    19  C    6.027550
    20  C    5.995669
    21  C    6.009443
    22  O    8.030433
    23  C    5.998030
    24  N    6.992720
    25  C    6.027033
    26  C    5.998353
    27  C    6.003814
    28  C    5.976703
    29  C    5.997539
    30  C    6.003916
    31  C    5.998775
    32  N    7.000132
    33  C    5.968639
    34  C    5.974381
    35  C    5.993740
    36  C    5.971679
    37  C    6.000155
    38  C    5.986043
    39  O    7.969167
    40  C    5.992102
    41  C    5.995736
    42  O    7.996623
    43  O    7.997794
    44  C    6.001466
    45  H    1.013621
    46  H    1.002086
    47  H    0.988007
    48  H    1.002492
    49  H    1.002733
    50  H    1.014411
    51  H    0.998047
    52  H    1.003294
    53  H    0.990478
    54  H    1.007299
    55  H    0.996757
    56  H    1.004118
    57  H    1.017871
    58  H    1.016323
    59  H    1.015826
    60  H    1.008244
    61  H    1.013657
    62  H    1.004599
    63  H    0.996189
    64  H    1.000204
    65  H    1.007445
    66  H    0.999096
    67  H    0.994280
    68  H    1.005540
    69  H    0.990111
    70  H    1.001808
    71  H    0.995220
    72  H    0.994298
    73  H    0.985273
    74  H    0.983815
    75  H    0.987252
    76  H    0.994216
    77  H    0.999618
    78  H    0.993985
    79  H    0.996165
    80  Mg  11.999640
    81  C    6.001304
    82  C    5.999663
    83  C    5.998515
    84  C    5.999599
    85  N    7.000890
    86  C    5.997817
    87  C    6.000217
    88  C    5.999785
    89  C    6.001544
    90  C    6.000172
    91  C    6.000124
    92  C    5.999894
    93  H    1.000357
    94  N    6.999744
    95  C    6.002529
    96  C    6.001261
    97  C    6.001304
    98  C    6.001651
    99  C    5.999739
   100  C    6.000968
   101  O    8.001915
   102  C    5.999688
   103  N    6.999634
   104  C    6.002070
   105  C    5.999364
   106  C    6.000570
   107  C    5.998316
   108  C    5.999952
   109  C    6.000016
   110  C    6.000432
   111  N    6.999784
   112  C    5.998171
   113  C    5.997743
   114  C    5.999725
   115  C    5.998608
   116  C    6.000356
   117  C    5.999059
   118  O    7.998188
   119  C    5.999867
   120  C    5.999703
   121  O    8.000096
   122  O    7.999681
   123  C    5.999924
   124  H    1.000921
   125  H    1.000329
   126  H    0.999085
   127  H    1.000400
   128  H    0.999978
   129  H    1.000393
   130  H    1.001038
   131  H    0.999955
   132  H    0.999145
   133  H    1.000102
   134  H    0.999707
   135  H    1.000058
   136  H    1.000960
   137  H    1.001550
   138  H    1.000914
   139  H    1.000428
   140  H    1.001062
   141  H    1.000422
   142  H    0.999756
   143  H    1.000225
   144  H    1.000800
   145  H    0.999933
   146  H    1.000107
   147  H    0.999452
   148  H    1.000069
   149  H    0.999429
   150  H    0.999981
   151  H    0.998961
   152  H    0.998977
   153  H    0.999642
   154  H    0.997605
   155  H    0.999058
   156  H    0.999776
   157  H    1.000414
   158  H    0.999788
 Sum of Mulliken charges = 624.00000

 Dipole moment (field-independent basis, Debye):
    X=              5.8822    Y=             -3.7489    Z=              8.0179  Tot=             10.6274
 Quadrupole moment (field-independent basis, Debye-Ang):
   XX=            -82.7390   YY=              3.5184   ZZ=              9.3175
   XY=             27.3974   XZ=            -67.6730   YZ=             -9.9794

 Normal termination of Gaussian 16 at Fri Oct 15 12:03:19 2021.
