 Gaussian 16, Revision A.03,
 Gaussian 16:  ES64L-G16RevA.03 25-Dec-2016

 --------------------------------------------------------
 #p PBE1PBE/Def2SVP td=(nstates=5) density=(transition=1)
 --------------------------------------------------------

 --------------------------------
 TDDFT excited states in gaussian
 --------------------------------
 Symbolic Z-matrix:
 Charge =  0 Multiplicity = 1

                         Standard orientation:
 ---------------------------------------------------------------------
 Center     Atomic      Atomic             Coordinates (Angstroms)
 Number     Number       Type             X           Y           Z
 ---------------------------------------------------------------------
      1         12           0       14.474175   -0.205909   -0.163839
      2          6           0       11.141679   -1.032626   -0.423248
      3          6           0       14.012243    2.133225   -2.609112
      4          6           0       17.167702    1.319828    0.989310
      5          6           0       14.758543   -2.625960    2.364001
      6          7           0       12.617670    0.740971   -1.013466
      7          6           0       11.436478    0.087571   -1.161334
      8          6           0       10.523251    0.755211   -2.146570
      9          6           0       11.582180    1.429980   -3.077378
     10          6           0       12.841013    1.373153   -2.224616
     11          6           0       11.690977    0.748355   -4.471494
     12          6           0        9.569029    1.849008   -1.448708
     13          6           0        8.101846    1.976510   -2.071292
     14          1           0        7.931981    3.388746   -2.574060
     15          7           0       15.551600    1.385158   -0.871587
     16          6           0       15.207553    2.293102   -1.811176
     17          6           0       16.233156    3.321345   -1.933821
     18          6           0       17.173955    3.075341   -0.912740
     19          6           0       16.635991    1.878752   -0.206591
     20          6           0       16.117113    4.447105   -2.989980
     21          6           0       18.281541    4.034090   -0.575187
     22          8           0       18.436960    5.020631   -1.246623
     23          6           0       19.235878    3.882588    0.624764
     24          7           0       15.901951   -0.645518    1.389535
     25          6           0       16.864403    0.122339    1.650106
     26          6           0       17.609726   -0.258413    2.875596
     27          6           0       16.850892   -1.562055    3.343184
     28          6           0       15.783870   -1.636731    2.339375
     29          6           0       19.146242   -0.390374    2.602603
     30          6           0       16.285811   -1.426932    4.832513
     31          6           0       15.917054   -2.751854    5.590088
     32          7           0       13.284457   -1.621266    0.753065
     33          6           0       13.574229   -2.598900    1.687502
     34          6           0       12.454359   -3.482355    1.858851
     35          6           0       11.456208   -2.923225    0.986268
     36          6           0       11.973733   -1.764088    0.441130
     37          6           0       12.363917   -4.689774    2.735384
     38          6           0       10.136899   -3.117940    0.492134
     39          8           0        9.241406   -3.949234    0.689865
     40          6           0        9.807973   -1.802180   -0.287996
     41          6           0        9.144721   -2.215158   -1.559502
     42          8           0        7.919346   -2.294155   -1.725112
     43          8           0       10.091796   -2.546026   -2.488956
     44          6           0        9.410468   -3.001276   -3.733306
     45          1           0       14.014314    2.809140   -3.467217
     46          1           0       18.019035    1.878481    1.382349
     47          1           0       14.806902   -3.282317    3.236256
     48          1           0       10.033263   -0.075380   -2.653065
     49          1           0       11.266284    2.450998   -3.292095
     50          1           0       11.381795    1.454164   -5.241887
     51          1           0       10.957311   -0.058203   -4.490785
     52          1           0       12.705942    0.364412   -4.569255
     53          1           0        9.986644    2.848890   -1.331628
     54          1           0        9.411650    1.597926   -0.400255
     55          1           0        7.439925    1.849323   -1.214549
     56          1           0        7.757098    1.243038   -2.800263
     57          1           0       16.105763    5.458547   -2.584000
     58          1           0       15.268099    4.337174   -3.665572
     59          1           0       16.968055    4.334897   -3.661022
     60          1           0       19.871517    3.000054    0.560508
     61          1           0       18.731003    3.896543    1.591015
     62          1           0       19.777693    4.828158    0.661680
     63          1           0       17.394491    0.561041    3.561230
     64          1           0       17.359981   -2.520927    3.248758
     65          1           0       19.645337    0.314384    3.267314
     66          1           0       19.393382   -0.189711    1.559971
     67          1           0       19.586965   -1.316234    2.971933
     68          1           0       15.390321   -0.805138    4.836839
     69          1           0       17.060098   -0.894418    5.382847
     70          1           0       16.409718   -3.022572    6.523546
     71          1           0       16.130383   -3.619460    4.967206
     72          1           0       14.850759   -2.771767    5.815360
     73          1           0       13.290879   -5.029872    3.196679
     74          1           0       11.963467   -5.398612    2.011736
     75          1           0       11.562969   -4.373233    3.403628
     76          1           0        9.176752   -1.101596    0.259712
     77          1           0        8.933686   -3.963968   -3.551684
     78          1           0       10.111573   -3.272212   -4.522733
     79          1           0        8.731194   -2.207651   -4.045208
     80         12           0      -13.912956    0.842315    0.247448
     81          6           0      -14.002020   -2.557915   -0.682432
     82          6           0      -10.506940    0.794119   -0.208778
     83          6           0      -13.732280    4.058732    1.197466
     84          6           0      -17.262833    0.682056    1.245361
     85          7           0      -12.545965   -0.693697   -0.496384
     86          6           0      -12.697971   -1.971952   -0.830670
     87          6           0      -11.430892   -2.717837   -1.298363
     88          6           0      -10.369039   -1.616243   -0.813417
     89          6           0      -11.207038   -0.420750   -0.431048
     90          6           0       -9.494052   -2.076754    0.327049
     91          6           0      -11.367535   -2.991907   -2.901622
     92          6           0      -10.516917   -4.211158   -3.269488
     93          1           0      -11.299510   -5.333928   -3.998051
     94          7           0      -12.350018    2.327571    0.319330
     95          6           0      -10.973839    2.050306    0.127379
     96          6           0      -10.299099    3.326797    0.056473
     97          6           0      -11.215222    4.302777    0.438284
     98          6           0      -12.519139    3.602062    0.658723
     99          6           0       -8.804967    3.482944   -0.154780
    100          6           0      -11.086657    5.803135    0.569262
    101          8           0      -12.048839    6.460210    0.840894
    102          6           0       -9.800971    6.517808    0.295778
    103          7           0      -15.217931    2.130985    1.277715
    104          6           0      -14.944061    3.449935    1.494712
    105          6           0      -16.243399    4.076248    2.072822
    106          6           0      -17.388482    3.222821    1.557680
    107          6           0      -16.625985    1.892367    1.354548
    108          6           0      -16.204773    4.002368    3.598565
    109          6           0      -18.052322    3.744745    0.337467
    110          6           0      -17.201723    4.215413   -0.816239
    111          7           0      -15.391251   -0.591890    0.268213
    112          6           0      -16.702463   -0.545345    0.702998
    113          6           0      -17.324921   -1.858161    0.472404
    114          6           0      -16.304245   -2.646196   -0.087326
    115          6           0      -15.190723   -1.857483   -0.187220
    116          6           0      -18.698468   -2.244264    0.816260
    117          6           0      -15.997833   -3.897924   -0.726222
    118          8           0      -16.727858   -4.902341   -0.973564
    119          6           0      -14.458049   -3.843198   -1.163394
    120          6           0      -13.766632   -4.958642   -0.423090
    121          8           0      -13.910998   -5.147912    0.748249
    122          8           0      -12.873290   -5.747101   -1.197815
    123          6           0      -11.956848   -6.626803   -0.410363
    124          1           0       -9.419142    0.785546   -0.297745
    125          1           0      -13.694077    5.069473    1.609928
    126          1           0      -18.345489    0.609833    1.370363
    127          1           0      -11.380187   -3.699766   -0.826238
    128          1           0       -9.762414   -1.432658   -1.701071
    129          1           0       -8.560463   -2.411345   -0.124949
    130          1           0       -9.983916   -2.810408    0.967623
    131          1           0       -9.221881   -1.151546    0.834894
    132          1           0      -10.935220   -2.128054   -3.407511
    133          1           0      -12.371932   -3.090035   -3.314014
    134          1           0      -10.120698   -4.498704   -2.295396
    135          1           0       -9.633408   -3.936891   -3.845618
    136          1           0       -8.497275    2.534060   -0.592515
    137          1           0       -8.421648    3.519273    0.864551
    138          1           0       -8.562876    4.304967   -0.828712
    139          1           0       -9.765727    6.408935   -0.788335
    140          1           0       -8.918163    6.046085    0.726472
    141          1           0       -9.871586    7.559397    0.611029
    142          1           0      -16.391306    5.131717    1.846968
    143          1           0      -18.224189    3.099128    2.245643
    144          1           0      -16.778908    3.235114    4.118081
    145          1           0      -16.527755    4.971990    3.977392
    146          1           0      -15.162939    3.893130    3.901959
    147          1           0      -18.764730    4.536846    0.569228
    148          1           0      -18.643018    2.900474   -0.017553
    149          1           0      -17.369762    3.495007   -1.617303
    150          1           0      -16.119697    4.337919   -0.759730
    151          1           0      -17.609920    5.161477   -1.171468
    152          1           0      -18.771239   -2.303841    1.902144
    153          1           0      -18.838013   -3.191140    0.294797
    154          1           0      -19.416312   -1.482050    0.510254
    155          1           0      -14.481254   -3.928266   -2.249979
    156          1           0      -12.489040   -7.512207   -0.062753
    157          1           0      -11.511689   -6.123746    0.449257
    158          1           0      -11.130995   -7.072679   -0.963937
 ---------------------------------------------------------------------

 SCF Done:  E(RPBE1PBE) =  -4067.35912408     A.U. after   17 cycles

 Excitation energies and oscillator strengths:

 Excited State   1:      Singlet-A      1.7987 eV  689.28 nm  f=0.3533  <S**2>=0.000
     309 -> 315       -0.16156
     312 -> 313        0.69476
     312 <- 313       -0.10912
 This state for optimization and/or second-order correction.
 Total Energy, E(TD-HF/TD-DFT) =  -4067.29302132
 Copying the excited state density for this state as the 1-particle RhoCI density.

 Excited State   2:      Singlet-A      1.8249 eV  679.40 nm  f=0.3543  <S**2>=0.000
     310 -> 316        0.17190
     311 -> 314        0.69445
     311 <- 314       -0.10916

 Excited State   3:      Singlet-A      1.8999 eV  652.59 nm  f=0.0000  <S**2>=0.000
     311 -> 313        0.70710

 Excited State   4:      Singlet-A      1.9132 eV  648.05 nm  f=0.0000  <S**2>=0.000
     312 -> 314        0.70710

 Excited State   5:      Singlet-A      2.1782 eV  569.20 nm  f=0.1139  <S**2>=0.000
     310 -> 314        0.65700
     311 -> 316       -0.25096

 The electronic state is 1-A.
 Alpha  occ. eigenvalues --  -46.92678 -46.91936 -19.26417 -19.25073 -19.20153
 Alpha  occ. eigenvalues --  -19.19566 -19.19497 -19.18952 -19.18638 -19.18569
 Alpha  occ. eigenvalues --  -14.42619 -14.41598 -14.41562 -14.40977 -14.39833
 Alpha  occ. eigenvalues --  -14.39147 -14.38798 -14.38541 -10.36361 -10.35955
 Alpha  occ. eigenvalues --  -10.32694 -10.32023 -10.31971 -10.31589 -10.29864
 Alpha  occ. eigenvalues --  -10.29244 -10.29134 -10.29102 -10.28932 -10.28831
 Alpha  occ. eigenvalues --  -10.28734 -10.28422 -10.28398 -10.28285 -10.28200
 Alpha  occ. eigenvalues --  -10.28175 -10.27982 -10.27852 -10.27404 -10.26715
 Alpha  occ. eigenvalues --  -10.26612 -10.26609 -10.26583 -10.26501 -10.26287
 Alpha  occ. eigenvalues --  -10.26244 -10.26238 -10.26203 -10.26177 -10.26025
 Alpha  occ. eigenvalues --  -10.26018 -10.25865 -10.25772 -10.25712 -10.25526
 Alpha  occ. eigenvalues --  -10.25476 -10.25433 -10.25427 -10.25318 -10.25292
 Alpha  occ. eigenvalues --  -10.25263 -10.25194 -10.25155 -10.24832 -10.24806
 Alpha  occ. eigenvalues --  -10.24765 -10.24724 -10.24711 -10.24501 -10.24500
 Alpha  occ. eigenvalues --  -10.24438 -10.24434 -10.24006 -10.23911 -10.23852
 Alpha  occ. eigenvalues --  -10.23840 -10.23726 -10.23652 -10.23576 -10.23260
 Alpha  occ. eigenvalues --  -10.22999 -10.22732 -10.22651 -10.22499 -10.22318
 Alpha  occ. eigenvalues --  -10.21833  -3.14830  -3.14014  -1.87657  -1.87219
 Alpha  occ. eigenvalues --   -1.87045  -1.86878  -1.86365  -1.86253  -1.10936
 Alpha  occ. eigenvalues --   -1.10265  -1.06543  -1.06497  -1.03226  -1.02138
 Alpha  occ. eigenvalues --   -1.01768  -1.01497  -1.01475  -0.99732  -0.99168
 Alpha  occ. eigenvalues --   -0.98631  -0.97880  -0.97792  -0.97746  -0.96327
 Alpha  occ. eigenvalues --   -0.87322  -0.87173  -0.84185  -0.84170  -0.83621
 Alpha  occ. eigenvalues --   -0.83023  -0.82893  -0.82636  -0.81894  -0.81738
 Alpha  occ. eigenvalues --   -0.81294  -0.81207  -0.80890  -0.80708  -0.78788
 Alpha  occ. eigenvalues --   -0.78614  -0.78289  -0.77819  -0.76731  -0.76634
 Alpha  occ. eigenvalues --   -0.76466  -0.75974  -0.75406  -0.75267  -0.74808
 Alpha  occ. eigenvalues --   -0.74126  -0.72913  -0.72885  -0.72053  -0.71575
 Alpha  occ. eigenvalues --   -0.71411  -0.71210  -0.70471  -0.70461  -0.69882
 Alpha  occ. eigenvalues --   -0.69245  -0.67312  -0.66915  -0.66722  -0.65659
 Alpha  occ. eigenvalues --   -0.64984  -0.63973  -0.63742  -0.63198  -0.62689
 Alpha  occ. eigenvalues --   -0.62202  -0.62154  -0.61435  -0.61298  -0.60098
 Alpha  occ. eigenvalues --   -0.59900  -0.59536  -0.59344  -0.59156  -0.58738
 Alpha  occ. eigenvalues --   -0.57811  -0.57185  -0.56294  -0.55025  -0.54677
 Alpha  occ. eigenvalues --   -0.54355  -0.54319  -0.53835  -0.53663  -0.53524
 Alpha  occ. eigenvalues --   -0.53487  -0.52973  -0.52674  -0.52195  -0.51536
 Alpha  occ. eigenvalues --   -0.51394  -0.50879  -0.50820  -0.50397  -0.50232
 Alpha  occ. eigenvalues --   -0.49642  -0.49141  -0.48987  -0.48931  -0.48550
 Alpha  occ. eigenvalues --   -0.48398  -0.48389  -0.48012  -0.47835  -0.47647
 Alpha  occ. eigenvalues --   -0.47598  -0.47261  -0.47031  -0.46893  -0.46550
 Alpha  occ. eigenvalues --   -0.46432  -0.46383  -0.46021  -0.45935  -0.45872
 Alpha  occ. eigenvalues --   -0.45850  -0.45472  -0.45378  -0.45257  -0.44907
 Alpha  occ. eigenvalues --   -0.44869  -0.44651  -0.44612  -0.44515  -0.44225
 Alpha  occ. eigenvalues --   -0.44201  -0.43981  -0.43863  -0.43742  -0.43732
 Alpha  occ. eigenvalues --   -0.43616  -0.43413  -0.43054  -0.42929  -0.42737
 Alpha  occ. eigenvalues --   -0.42545  -0.42473  -0.42293  -0.42116  -0.42085
 Alpha  occ. eigenvalues --   -0.41834  -0.41684  -0.41524  -0.41339  -0.41149
 Alpha  occ. eigenvalues --   -0.41122  -0.40974  -0.40763  -0.40668  -0.40626
 Alpha  occ. eigenvalues --   -0.40332  -0.40162  -0.40053  -0.39908  -0.39883
 Alpha  occ. eigenvalues --   -0.39590  -0.39507  -0.39323  -0.39219  -0.39031
 Alpha  occ. eigenvalues --   -0.39022  -0.38806  -0.38764  -0.38480  -0.38427
 Alpha  occ. eigenvalues --   -0.38304  -0.38137  -0.37933  -0.37743  -0.37653
 Alpha  occ. eigenvalues --   -0.37552  -0.37541  -0.37220  -0.37188  -0.37161
 Alpha  occ. eigenvalues --   -0.36990  -0.36913  -0.36589  -0.36342  -0.36312
 Alpha  occ. eigenvalues --   -0.36238  -0.35836  -0.35791  -0.35733  -0.35178
 Alpha  occ. eigenvalues --   -0.35099  -0.35086  -0.34688  -0.34619  -0.34345
 Alpha  occ. eigenvalues --   -0.33747  -0.33342  -0.33197  -0.32785  -0.32608
 Alpha  occ. eigenvalues --   -0.32246  -0.32020  -0.32003  -0.31930  -0.31623
 Alpha  occ. eigenvalues --   -0.31347  -0.31117  -0.30301  -0.29721  -0.29434
 Alpha  occ. eigenvalues --   -0.29182  -0.28717  -0.28506  -0.27030  -0.26939
 Alpha  occ. eigenvalues --   -0.26378  -0.26201  -0.25892  -0.25489  -0.25448
 Alpha  occ. eigenvalues --   -0.25204  -0.25165  -0.24851  -0.21138  -0.20935
 Alpha  occ. eigenvalues --   -0.18864  -0.18850
 Alpha virt. eigenvalues --   -0.11418  -0.11340  -0.05428  -0.05153  -0.04095
 Alpha virt. eigenvalues --   -0.03722  -0.02371  -0.02138  -0.00901   0.00138
 Alpha virt. eigenvalues --    0.00139   0.00832   0.01031   0.01072   0.01460

 Mulliken charges:
               1
     1  Mg  11.999367
     2  C    5.987080
     3  C    6.007556
     4  C    6.015152
     5  C    5.996787
     6  N    6.991705
     7  C    6.033673
     8  C    5.989670
     9  C    6.013797
    10  C    5.968105
    11  C    6.003059
    12  C    6.001042
    13  C    5.997858
    14  H    1.008899
    15  N    7.004760
    16  C    5.964308
    17  C    5.977774
    18  C    5.986304
    19  C    5.970731
    20  C    6.003815
    21  C    5.990735
    22  O    7.981178
    23  C    6.001637
    24  N    6.999460
    25  C    5.971066
    26  C    6.008329
    27  C    5.989846
    28  C    6.033994
    29  C    6.002658
    30  C    5.993669
    31  C    5.998651
    32  N    7.000432
    33  C    6.026862
    34  C    6.031540
    35  C    5.999810
    36  C    6.024598
    37  C    6.000817
    38  C    6.015843
    39  O    8.028818
    40  C    5.998693
    41  C    6.003805
    42  O    8.007041
    43  O    7.998995
    44  C    5.999200
    45  H    0.989767
    46  H    0.993718
    47  H    1.008336
    48  H    0.997168
    49  H    0.994816
    50  H    0.996567
    51  H    0.984995
    52  H    1.000367
    53  H    1.010624
    54  H    0.995062
    55  H    0.997913
    56  H    0.999518
    57  H    0.982715
    58  H    0.982803
    59  H    0.983071
    60  H    0.989426
    61  H    0.988992
    62  H    0.989241
    63  H    1.001941
    64  H    1.001657
    65  H    0.999995
    66  H    1.005816
    67  H    0.991210
    68  H    1.002827
    69  H    1.011863
    70  H    1.005732
    71  H    0.998486
    72  H    0.996502
    73  H    1.017207
    74  H    1.015067
    75  H    1.017078
    76  H    1.008332
    77  H    0.999956
    78  H    1.006258
    79  H    1.005856
    80  Mg  12.000070
    81  C    5.999740
    82  C    5.999947
    83  C    6.000381
    84  C    6.000115
    85  N    6.999849
    86  C    6.000311
    87  C    5.999816
    88  C    6.000227
    89  C    5.999701
    90  C    6.000076
    91  C    5.999980
    92  C    6.000008
    93  H    1.000046
    94  N    7.000109
    95  C    5.999522
    96  C    5.999951
    97  C    5.999843
    98  C    5.999639
    99  C    6.000010
   100  C    5.999989
   101  O    7.999803
   102  C    6.000022
   103  N    7.000060
   104  C    5.999734
   105  C    6.000007
   106  C    5.999918
   107  C    6.000203
   108  C    5.999979
   109  C    5.999915
   110  C    5.999963
   111  N    6.999987
   112  C    6.000305
   113  C    6.000428
   114  C    5.999982
   115  C    6.000320
   116  C    5.999967
   117  C    6.000092
   118  O    8.000329
   119  C    6.000042
   120  C    6.000092
   121  O    7.999925
   122  O    8.000056
   123  C    6.000058
   124  H    0.999636
   125  H    1.000093
   126  H    1.000216
   127  H    0.999864
   128  H    0.999850
   129  H    0.999575
   130  H    0.999803
   131  H    0.999966
   132  H    1.000151
   133  H    1.000071
   134  H    0.999827
   135  H    0.999918
   136  H    0.999726
   137  H    0.999715
   138  H    0.999958
   139  H    0.999999
   140  H    0.999815
   141  H    1.000026
   142  H    1.000152
   143  H    1.000101
   144  H    0.999912
   145  H    1.000118
   146  H    0.999997
   147  H    1.000204
   148  H    0.999987
   149  H    0.999972
   150  H    1.000099
   151  H    1.000172
   152  H    1.000229
   153  H    1.000169
   154  H    1.000294
   155  H    1.000057
   156  H    1.000017
   157  H    0.999917
   158  H    0.999877
 Sum of Mulliken charges = 624.00000

 Dipole moment (field-independent basis, Debye):
    X=             -5.5640    Y=             -7.6070    Z=              3.8403  Tot=             10.1771
 Quadrupole moment (field-independent basis, Debye-Ang):
   XX=           -149.9413   YY=              0.3459   ZZ=              0.2458
   XY=           -109.3417   XZ=             55.8610   YZ=             -0.2195

 Normal termination of Gaussian 16 at Fri Oct 15 06:45:39 2021.
