 Gaussian 16, Revision A.03,
 Gaussian 16:  ES64L-G16RevA.03 25-Dec-2016

 --------------------------------------------------------
 #p PBE1PBE/Def2SVP td=(nstates=5) density=(transition=1)
 --------------------------------------------------------

 --------------------------------
 TDDFT excited states in gaussian
 --------------------------------
 Symbolic Z-matrix:
 Charge =  0 Multiplicity = 1

                         Standard orientation:
 ---------------------------------------------------------------------
 Center     Atomic      Atomic             Coordinates (Angstroms)
 Number     Number       Type             X           Y           Z
 ---------------------------------------------------------------------
      1         12           0      -24.193560    0.527053    0.088492
      2          6           0      -21.968720   -1.937108    1.139931
      3          6           0      -26.555624   -1.899205   -0.518773
      4          6           0      -26.127602    2.999075   -1.156874
      5          6           0      -21.533921    2.895844    0.379800
      6          7           0      -24.177605   -1.645471    0.195165
      7          6           0      -23.191145   -2.451764    0.672883
      8          6           0      -23.652521   -3.912579    0.755558
      9          6           0      -25.085793   -3.832496    0.065884
     10          6           0      -25.283348   -2.320344   -0.083278
     11          6           0      -25.112599   -4.538778   -1.284232
     12          6           0      -23.861000   -4.486062    2.202382
     13          6           0      -23.684214   -5.970379    2.390721
     14          1           0      -23.669351   -6.850828    1.222252
     15          7           0      -26.077529    0.550130   -0.625261
     16          6           0      -26.896240   -0.582564   -0.806073
     17          6           0      -28.195709   -0.084525   -1.174011
     18          6           0      -28.140312    1.324646   -1.320469
     19          6           0      -26.732386    1.694120   -1.033201
     20          6           0      -29.344317   -0.985025   -1.575503
     21          6           0      -29.185264    2.309947   -1.639437
     22          8           0      -28.947448    3.464214   -1.924880
     23          6           0      -30.684320    1.860617   -1.785878
     24          7           0      -23.963352    2.739263   -0.194109
     25          6           0      -24.887780    3.475650   -0.734359
     26          6           0      -24.414838    4.950841   -0.903715
     27          6           0      -22.998257    4.960202   -0.358574
     28          6           0      -22.738991    3.438199   -0.067524
     29          6           0      -24.624565    5.435280   -2.415188
     30          6           0      -22.822191    5.895766    0.856173
     31          6           0      -22.273210    7.344448    0.575402
     32          7           0      -22.319037    0.598215    0.851983
     33          6           0      -21.341635    1.622691    0.907851
     34          6           0      -20.147551    1.159571    1.505345
     35          6           0      -20.353873   -0.285111    1.527727
     36          6           0      -21.707193   -0.512213    1.146425
     37          6           0      -18.856178    1.944993    1.643527
     38          6           0      -19.648971   -1.479597    1.814983
     39          8           0      -18.513012   -1.687045    2.222699
     40          6           0      -20.792482   -2.680565    1.638867
     41          6           0      -20.171484   -3.677320    0.704839
     42          8           0      -19.792152   -3.419204   -0.442302
     43          8           0      -19.934597   -4.939479    1.325885
     44          6           0      -19.305060   -5.983391    0.458018
     45          1           0      -27.254714   -2.721278   -0.690141
     46          1           0      -26.740070    3.691643   -1.737363
     47          1           0      -20.703149    3.586423    0.536850
     48          1           0      -22.944110   -4.487722    0.158934
     49          1           0      -25.871018   -4.295296    0.663520
     50          1           0      -24.243363   -5.183828   -1.409564
     51          1           0      -25.239808   -3.848930   -2.118960
     52          1           0      -25.889687   -5.298551   -1.368103
     53          1           0      -24.856441   -4.189049    2.530659
     54          1           0      -23.207381   -3.911015    2.858646
     55          1           0      -24.550899   -6.322310    2.949843
     56          1           0      -22.758881   -6.151196    2.937738
     57          1           0      -29.612241   -0.895602   -2.628217
     58          1           0      -30.190337   -0.761210   -0.924342
     59          1           0      -29.171628   -2.056507   -1.475778
     60          1           0      -30.773558    1.453696   -2.793461
     61          1           0      -31.337012    2.733501   -1.804678
     62          1           0      -30.928019    1.077727   -1.068723
     63          1           0      -25.109429    5.501794   -0.269330
     64          1           0      -22.266613    5.172687   -1.136571
     65          1           0      -23.683689    5.785108   -2.839784
     66          1           0      -25.265547    6.312354   -2.506696
     67          1           0      -24.970222    4.543466   -2.939584
     68          1           0      -22.122984    5.390875    1.523658
     69          1           0      -23.788412    5.935673    1.359311
     70          1           0      -21.184238    7.286803    0.562575
     71          1           0      -22.609528    8.168100    1.205445
     72          1           0      -22.576081    7.469179   -0.463671
     73          1           0      -19.003140    2.499577    2.569947
     74          1           0      -18.725904    2.645410    0.819424
     75          1           0      -17.929902    1.382103    1.521376
     76          1           0      -21.023317   -3.090942    2.622707
     77          1           0      -18.306773   -5.689070    0.136144
     78          1           0      -19.834850   -6.299507   -0.440984
     79          1           0      -19.211404   -6.780529    1.195512
     80         12           0       24.278130    0.587387   -0.039325
     81          6           0       23.170008   -2.534322   -1.156977
     82          6           0       24.223670   -0.667437    3.174579
     83          6           0       24.667306    3.756734    1.166842
     84          6           0       23.649431    1.858005   -3.198953
     85          7           0       23.842452   -1.377864    0.817881
     86          6           0       23.628970   -2.522699    0.156751
     87          6           0       23.734609   -3.790037    1.017613
     88          6           0       23.889458   -3.173087    2.460457
     89          6           0       24.099410   -1.584851    2.162876
     90          6           0       22.744904   -3.428080    3.464782
     91          6           0       24.862977   -4.740694    0.617159
     92          6           0       24.589232   -6.205972    1.001999
     93          1           0       23.288932   -6.558913    1.737900
     94          7           0       24.537680    1.433750    1.872326
     95          6           0       24.550489    0.728913    3.098055
     96          6           0       24.826302    1.672721    4.162563
     97          6           0       24.895803    3.001034    3.598584
     98          6           0       24.736323    2.779597    2.162208
     99          6           0       25.074570    1.202913    5.569516
    100          6           0       25.249941    4.398061    4.280676
    101          8           0       25.413994    5.423413    3.665181
    102          6           0       25.361400    4.397816    5.789858
    103          7           0       24.081299    2.515628   -0.864800
    104          6           0       24.326057    3.678759   -0.195239
    105          6           0       24.227101    4.938559   -1.132151
    106          6           0       23.976670    4.281094   -2.488320
    107          6           0       23.893242    2.803104   -2.156359
    108          6           0       23.273079    6.152389   -0.787667
    109          6           0       25.118426    4.596033   -3.483066
    110          6           0       26.412363    3.754140   -3.425191
    111          7           0       23.697650   -0.145359   -1.913882
    112          6           0       23.482428    0.481503   -3.113837
    113          6           0       23.084452   -0.447371   -4.117897
    114          6           0       22.930973   -1.706998   -3.381699
    115          6           0       23.280317   -1.445574   -2.114222
    116          6           0       22.820508   -0.281111   -5.548818
    117          6           0       22.458767   -3.082859   -3.452473
    118          8           0       22.112184   -3.754277   -4.430170
    119          6           0       22.589539   -3.703640   -2.030454
    120          6           0       21.307792   -4.204374   -1.544641
    121          8           0       20.394794   -3.526354   -1.085329
    122          8           0       21.182805   -5.527273   -1.887618
    123          6           0       19.848754   -6.158418   -1.894109
    124          1           0       24.154237   -1.142975    4.155351
    125          1           0       24.971582    4.747114    1.511744
    126          1           0       23.543724    2.236019   -4.217928
    127          1           0       22.785294   -4.323107    1.064807
    128          1           0       24.842403   -3.409962    2.932274
    129          1           0       23.310570   -3.834516    4.303005
    130          1           0       22.044596   -4.164900    3.072101
    131          1           0       22.214762   -2.501084    3.683591
    132          1           0       25.822703   -4.434904    1.031962
    133          1           0       25.010158   -4.714595   -0.462876
    134          1           0       25.461274   -6.413685    1.622423
    135          1           0       24.716885   -6.880147    0.153860
    136          1           0       24.802187    0.147445    5.574948
    137          1           0       24.457398    1.786510    6.252939
    138          1           0       26.110290    1.333223    5.886783
    139          1           0       24.431204    4.350158    6.356978
    140          1           0       25.950921    5.268315    6.077583
    141          1           0       25.956907    3.502386    5.967500
    142          1           0       25.238105    5.335265   -1.042276
    143          1           0       23.027932    4.676649   -2.849194
    144          1           0       22.645679    6.486812   -1.613040
    145          1           0       23.896839    7.009940   -0.537427
    146          1           0       22.702771    5.881245    0.101274
    147          1           0       25.346866    5.650278   -3.331356
    148          1           0       24.656865    4.507733   -4.467001
    149          1           0       27.213973    4.480241   -3.558040
    150          1           0       26.497826    3.036754   -4.241051
    151          1           0       26.514368    3.147539   -2.526031
    152          1           0       23.255824   -1.135937   -6.065205
    153          1           0       23.199055    0.638892   -5.994339
    154          1           0       21.757954   -0.420796   -5.748553
    155          1           0       23.329019   -4.494266   -2.156770
    156          1           0       19.069330   -5.477744   -1.549885
    157          1           0       19.877917   -6.999252   -1.200674
    158          1           0       19.753213   -6.422045   -2.946837
 ---------------------------------------------------------------------

 SCF Done:  E(RPBE1PBE) =  -4067.42063559     A.U. after   16 cycles

 Excitation energies and oscillator strengths:

 Excited State   1:      Singlet-A      1.8459 eV  671.69 nm  f=0.3595  <S**2>=0.000
     309 -> 315        0.17469
     311 -> 313        0.69230
     311 <- 313       -0.10446
 This state for optimization and/or second-order correction.
 Total Energy, E(TD-HF/TD-DFT) =  -4067.35280151
 Copying the excited state density for this state as the 1-particle RhoCI density.

 Excited State   2:      Singlet-A      1.8755 eV  661.08 nm  f=0.3914  <S**2>=0.000
     310 -> 316        0.17473
     312 -> 314        0.69087
     312 <- 314       -0.10931

 Excited State   3:      Singlet-A      1.9197 eV  645.85 nm  f=0.0000  <S**2>=0.000
     312 -> 313        0.70711

 Excited State   4:      Singlet-A      2.0692 eV  599.20 nm  f=0.0000  <S**2>=0.000
     311 -> 314        0.70711

 Excited State   5:      Singlet-A      2.1488 eV  577.00 nm  f=0.1391  <S**2>=0.000
     310 -> 314        0.66655
     312 -> 316       -0.21032

 The electronic state is 1-A.
 Alpha  occ. eigenvalues --  -46.91643 -46.91393 -19.24898 -19.24532 -19.20049
 Alpha  occ. eigenvalues --  -19.19760 -19.19184 -19.19166 -19.18980 -19.18868
 Alpha  occ. eigenvalues --  -14.42130 -14.41679 -14.41450 -14.41196 -14.39725
 Alpha  occ. eigenvalues --  -14.39203 -14.39066 -14.37898 -10.36182 -10.35632
 Alpha  occ. eigenvalues --  -10.33246 -10.32283 -10.32265 -10.31801 -10.29079
 Alpha  occ. eigenvalues --  -10.28996 -10.28795 -10.28765 -10.28578 -10.28576
 Alpha  occ. eigenvalues --  -10.28477 -10.28426 -10.28418 -10.28381 -10.28369
 Alpha  occ. eigenvalues --  -10.28312 -10.27958 -10.27494 -10.27102 -10.26883
 Alpha  occ. eigenvalues --  -10.26846 -10.26577 -10.26358 -10.26205 -10.26001
 Alpha  occ. eigenvalues --  -10.25962 -10.25956 -10.25851 -10.25844 -10.25778
 Alpha  occ. eigenvalues --  -10.25757 -10.25622 -10.25570 -10.25477 -10.25477
 Alpha  occ. eigenvalues --  -10.25450 -10.25435 -10.25401 -10.25245 -10.25225
 Alpha  occ. eigenvalues --  -10.25209 -10.25131 -10.24881 -10.24783 -10.24700
 Alpha  occ. eigenvalues --  -10.24598 -10.24565 -10.24492 -10.24324 -10.24119
 Alpha  occ. eigenvalues --  -10.24093 -10.23966 -10.23922 -10.23584 -10.23538
 Alpha  occ. eigenvalues --  -10.23458 -10.23441 -10.23434 -10.23375 -10.23299
 Alpha  occ. eigenvalues --  -10.23297 -10.23227 -10.23225 -10.22859 -10.22762
 Alpha  occ. eigenvalues --  -10.22539  -3.13748  -3.13665  -1.86590  -1.86519
 Alpha  occ. eigenvalues --   -1.86118  -1.86032  -1.85977  -1.85909  -1.09825
 Alpha  occ. eigenvalues --   -1.08258  -1.06239  -1.05557  -1.03734  -1.03633
 Alpha  occ. eigenvalues --   -1.01435  -1.00735  -0.99792  -0.99020  -0.98731
 Alpha  occ. eigenvalues --   -0.98156  -0.97954  -0.97125  -0.96840  -0.95608
 Alpha  occ. eigenvalues --   -0.86610  -0.86449  -0.83564  -0.83432  -0.83231
 Alpha  occ. eigenvalues --   -0.83024  -0.82645  -0.82425  -0.82021  -0.81739
 Alpha  occ. eigenvalues --   -0.81376  -0.80737  -0.80693  -0.80390  -0.78544
 Alpha  occ. eigenvalues --   -0.78460  -0.77668  -0.77374  -0.76568  -0.76465
 Alpha  occ. eigenvalues --   -0.76068  -0.75719  -0.75303  -0.74591  -0.74518
 Alpha  occ. eigenvalues --   -0.74293  -0.72839  -0.72425  -0.71652  -0.71398
 Alpha  occ. eigenvalues --   -0.71182  -0.71115  -0.70203  -0.70190  -0.69406
 Alpha  occ. eigenvalues --   -0.69363  -0.67645  -0.66876  -0.66048  -0.65517
 Alpha  occ. eigenvalues --   -0.64142  -0.63827  -0.63368  -0.62828  -0.62585
 Alpha  occ. eigenvalues --   -0.62099  -0.61659  -0.60433  -0.60184  -0.59725
 Alpha  occ. eigenvalues --   -0.59474  -0.59235  -0.59234  -0.59099  -0.58923
 Alpha  occ. eigenvalues --   -0.58266  -0.56063  -0.55963  -0.54789  -0.54266
 Alpha  occ. eigenvalues --   -0.54265  -0.53935  -0.53645  -0.53580  -0.53232
 Alpha  occ. eigenvalues --   -0.52825  -0.52415  -0.52284  -0.51957  -0.51873
 Alpha  occ. eigenvalues --   -0.50817  -0.50387  -0.49968  -0.49668  -0.49534
 Alpha  occ. eigenvalues --   -0.49210  -0.49172  -0.48614  -0.48229  -0.47847
 Alpha  occ. eigenvalues --   -0.47797  -0.47719  -0.47434  -0.47370  -0.47237
 Alpha  occ. eigenvalues --   -0.47045  -0.46832  -0.46760  -0.46746  -0.46671
 Alpha  occ. eigenvalues --   -0.46660  -0.46383  -0.46233  -0.46212  -0.45758
 Alpha  occ. eigenvalues --   -0.45490  -0.45281  -0.45123  -0.44743  -0.44663
 Alpha  occ. eigenvalues --   -0.44440  -0.44186  -0.44185  -0.44075  -0.43918
 Alpha  occ. eigenvalues --   -0.43875  -0.43835  -0.43641  -0.43627  -0.43587
 Alpha  occ. eigenvalues --   -0.43160  -0.43144  -0.43025  -0.42877  -0.42856
 Alpha  occ. eigenvalues --   -0.42742  -0.42366  -0.42297  -0.42239  -0.41893
 Alpha  occ. eigenvalues --   -0.41777  -0.41763  -0.41656  -0.41561  -0.41406
 Alpha  occ. eigenvalues --   -0.40974  -0.40849  -0.40501  -0.40490  -0.40365
 Alpha  occ. eigenvalues --   -0.39982  -0.39978  -0.39848  -0.39759  -0.39500
 Alpha  occ. eigenvalues --   -0.39380  -0.39277  -0.39038  -0.38893  -0.38823
 Alpha  occ. eigenvalues --   -0.38723  -0.38618  -0.38427  -0.38270  -0.38215
 Alpha  occ. eigenvalues --   -0.37978  -0.37934  -0.37860  -0.37768  -0.37618
 Alpha  occ. eigenvalues --   -0.37561  -0.37440  -0.37224  -0.37028  -0.36846
 Alpha  occ. eigenvalues --   -0.36824  -0.36736  -0.36488  -0.36317  -0.36197
 Alpha  occ. eigenvalues --   -0.35914  -0.35717  -0.35709  -0.35524  -0.35089
 Alpha  occ. eigenvalues --   -0.35078  -0.34802  -0.34720  -0.34422  -0.33601
 Alpha  occ. eigenvalues --   -0.33460  -0.33304  -0.32804  -0.32780  -0.32665
 Alpha  occ. eigenvalues --   -0.32289  -0.32045  -0.31708  -0.31241  -0.31175
 Alpha  occ. eigenvalues --   -0.30780  -0.30580  -0.29714  -0.29527  -0.29186
 Alpha  occ. eigenvalues --   -0.28945  -0.28574  -0.28458  -0.27000  -0.26582
 Alpha  occ. eigenvalues --   -0.26314  -0.26034  -0.25711  -0.25709  -0.25496
 Alpha  occ. eigenvalues --   -0.25163  -0.25084  -0.24363  -0.21108  -0.20480
 Alpha  occ. eigenvalues --   -0.19140  -0.18864
 Alpha virt. eigenvalues --   -0.11537  -0.11258  -0.05236  -0.04849  -0.03980
 Alpha virt. eigenvalues --   -0.03603  -0.02038  -0.01900  -0.00148   0.00002
 Alpha virt. eigenvalues --    0.00723   0.01115   0.01137   0.01319   0.01730

 Mulliken charges:
               1
     1  Mg  11.999354
     2  C    6.027733
     3  C    5.999067
     4  C    5.979755
     5  C    5.998505
     6  N    7.016040
     7  C    5.964695
     8  C    6.011604
     9  C    5.987929
    10  C    6.025931
    11  C    5.995931
    12  C    6.002155
    13  C    6.000309
    14  H    0.995839
    15  N    6.991272
    16  C    6.034112
    17  C    6.020377
    18  C    6.017580
    19  C    6.027237
    20  C    5.995647
    21  C    6.009711
    22  O    8.030430
    23  C    5.998012
    24  N    6.992570
    25  C    6.027333
    26  C    5.998364
    27  C    6.003863
    28  C    5.976564
    29  C    5.997542
    30  C    6.003912
    31  C    5.998797
    32  N    7.000112
    33  C    5.968586
    34  C    5.974291
    35  C    5.993942
    36  C    5.971621
    37  C    6.000239
    38  C    5.986053
    39  O    7.968955
    40  C    5.992027
    41  C    5.995741
    42  O    7.996506
    43  O    7.997887
    44  C    6.001521
    45  H    1.013488
    46  H    1.002139
    47  H    0.988056
    48  H    1.002516
    49  H    1.002752
    50  H    1.014425
    51  H    0.997957
    52  H    1.003314
    53  H    0.990509
    54  H    1.007367
    55  H    0.996809
    56  H    1.004171
    57  H    1.017803
    58  H    1.016348
    59  H    1.015824
    60  H    1.008144
    61  H    1.013680
    62  H    1.004584
    63  H    0.996245
    64  H    1.000270
    65  H    1.007472
    66  H    0.999109
    67  H    0.994154
    68  H    1.005614
    69  H    0.990105
    70  H    1.001794
    71  H    0.995209
    72  H    0.994266
    73  H    0.985263
    74  H    0.983798
    75  H    0.987192
    76  H    0.994288
    77  H    0.999618
    78  H    0.993883
    79  H    0.996185
    80  Mg  12.000002
    81  C    6.000047
    82  C    6.000086
    83  C    5.999976
    84  C    5.999961
    85  N    7.000002
    86  C    6.000007
    87  C    6.000002
    88  C    6.000002
    89  C    5.999926
    90  C    6.000008
    91  C    6.000000
    92  C    6.000003
    93  H    1.000051
    94  N    7.000029
    95  C    5.999909
    96  C    6.000055
    97  C    5.999970
    98  C    5.999993
    99  C    5.999981
   100  C    5.999974
   101  O    7.999976
   102  C    6.000008
   103  N    6.999999
   104  C    5.999944
   105  C    5.999985
   106  C    5.999998
   107  C    6.000029
   108  C    6.000012
   109  C    5.999996
   110  C    6.000000
   111  N    6.999982
   112  C    6.000077
   113  C    6.000002
   114  C    6.000063
   115  C    5.999968
   116  C    6.000007
   117  C    6.000022
   118  O    8.000034
   119  C    5.999986
   120  C    6.000007
   121  O    8.000051
   122  O    7.999981
   123  C    5.999990
   124  H    0.999999
   125  H    0.999987
   126  H    0.999998
   127  H    1.000030
   128  H    0.999973
   129  H    0.999983
   130  H    1.000022
   131  H    1.000039
   132  H    0.999975
   133  H    0.999978
   134  H    0.999973
   135  H    0.999977
   136  H    0.999991
   137  H    1.000005
   138  H    0.999945
   139  H    1.000026
   140  H    0.999959
   141  H    0.999976
   142  H    0.999975
   143  H    1.000035
   144  H    1.000013
   145  H    0.999977
   146  H    1.000039
   147  H    0.999996
   148  H    0.999997
   149  H    0.999971
   150  H    0.999982
   151  H    1.000006
   152  H    0.999987
   153  H    0.999988
   154  H    1.000055
   155  H    0.999981
   156  H    1.000057
   157  H    1.000005
   158  H    0.999995
 Sum of Mulliken charges = 624.00000

 Dipole moment (field-independent basis, Debye):
    X=             -9.5834    Y=             -0.7917    Z=             -3.2005  Tot=             10.1347
 Quadrupole moment (field-independent basis, Debye-Ang):
   XX=            463.6676   YY=             -4.0485   ZZ=             -0.3683
   XY=             14.2824   XZ=             77.0042   YZ=             -1.4625

 Normal termination of Gaussian 16 at Fri Oct 15 10:58:50 2021.
