 Gaussian 16, Revision A.03,
 Gaussian 16:  ES64L-G16RevA.03 25-Dec-2016

 --------------------------------------------------------
 #p PBE1PBE/Def2SVP td=(nstates=5) density=(transition=1)
 --------------------------------------------------------

 --------------------------------
 TDDFT excited states in gaussian
 --------------------------------
 Symbolic Z-matrix:
 Charge =  0 Multiplicity = 1

                         Standard orientation:
 ---------------------------------------------------------------------
 Center     Atomic      Atomic             Coordinates (Angstroms)
 Number     Number       Type             X           Y           Z
 ---------------------------------------------------------------------
      1         12           0       -4.733766   -0.186548    1.001679
      2          6           0       -4.815111    3.190422    0.000501
      3          6           0       -2.162855    0.543060    3.096621
      4          6           0       -4.622577   -3.461608    1.839273
      5          6           0       -7.049311   -0.911337   -1.482565
      6          7           0       -3.567278    1.599906    1.416662
      7          6           0       -3.850128    2.896494    0.978461
      8          6           0       -2.985412    3.871465    1.719589
      9          6           0       -1.871902    2.961899    2.291039
     10          6           0       -2.587921    1.586814    2.269896
     11          6           0       -0.534491    2.869232    1.490704
     12          6           0       -3.708108    4.729106    2.825536
     13          6           0       -3.400166    6.191755    2.774197
     14          1           0       -3.087167    6.876455    4.117775
     15          7           0       -3.645087   -1.238199    2.337928
     16          6           0       -2.660584   -0.744066    3.209784
     17          6           0       -2.185400   -1.779568    4.037969
     18          6           0       -2.908412   -3.018148    3.698118
     19          6           0       -3.763870   -2.611974    2.619804
     20          6           0       -1.034995   -1.678772    4.996474
     21          6           0       -2.789156   -4.513538    4.225827
     22          8           0       -3.518477   -5.379937    3.804944
     23          6           0       -1.825533   -4.874278    5.347373
     24          7           0       -5.625117   -1.954548    0.198479
     25          6           0       -5.389902   -3.183064    0.727555
     26          6           0       -6.193539   -4.301337   -0.093417
     27          6           0       -7.207333   -3.440025   -0.966616
     28          6           0       -6.597822   -1.989484   -0.752074
     29          6           0       -5.340212   -5.256728   -0.972722
     30          6           0       -8.704551   -3.541299   -0.504307
     31          6           0       -9.587244   -3.910422   -1.621578
     32          7           0       -5.703163    0.880974   -0.482656
     33          6           0       -6.708421    0.468159   -1.355823
     34          6           0       -7.181973    1.589734   -2.120332
     35          6           0       -6.452503    2.659664   -1.643367
     36          6           0       -5.614926    2.221427   -0.666648
     37          6           0       -8.338669    1.471052   -3.146745
     38          6           0       -6.211676    4.082942   -1.794394
     39          8           0       -6.657937    4.829574   -2.637405
     40          6           0       -5.089104    4.491391   -0.716683
     41          6           0       -3.925940    5.053206   -1.427513
     42          8           0       -3.268398    4.444455   -2.311911
     43          8           0       -3.729954    6.329995   -0.989086
     44          6           0       -2.853273    7.150866   -1.865797
     45          1           0       -1.313433    0.843158    3.713714
     46          1           0       -4.639047   -4.535556    2.035448
     47          1           0       -7.721581   -1.166546   -2.303764
     48          1           0       -2.440119    4.560988    1.074004
     49          1           0       -1.560786    3.235917    3.299264
     50          1           0       -0.256225    3.795126    0.985630
     51          1           0       -0.649490    2.052986    0.777060
     52          1           0        0.332382    2.526095    2.054829
     53          1           0       -3.414964    4.272424    3.770653
     54          1           0       -4.789015    4.587914    2.799890
     55          1           0       -4.305869    6.577339    2.305820
     56          1           0       -2.494467    6.353795    2.189917
     57          1           0       -1.300503   -1.665968    6.053795
     58          1           0       -0.540507   -0.717941    4.859500
     59          1           0       -0.240989   -2.422289    4.932293
     60          1           0       -2.050504   -5.908780    5.603881
     61          1           0       -1.867795   -4.151004    6.162262
     62          1           0       -0.801956   -4.668980    5.032571
     63          1           0       -6.671562   -4.996007    0.597448
     64          1           0       -7.103164   -3.743694   -2.009331
     65          1           0       -4.271621   -5.045410   -1.024120
     66          1           0       -5.667038   -5.287272   -2.012421
     67          1           0       -5.471122   -6.257925   -0.561290
     68          1           0       -9.029937   -2.556470   -0.167072
     69          1           0       -8.891220   -4.283681    0.271387
     70          1           0       -9.799589   -4.977895   -1.556722
     71          1           0       -9.295114   -3.648411   -2.637876
     72          1           0      -10.513398   -3.339749   -1.552360
     73          1           0       -8.879266    0.542206   -2.963253
     74          1           0       -7.986076    1.627026   -4.167308
     75          1           0       -9.016155    2.279687   -2.875016
     76          1           0       -5.468645    5.216268    0.003904
     77          1           0       -2.850247    8.188406   -1.532138
     78          1           0       -3.364228    7.174225   -2.828580
     79          1           0       -1.884566    6.651307   -1.896312
     80         12           0        4.112648   -0.910498   -1.110823
     81          6           0        6.731974    1.219376   -0.290666
     82          6           0        2.106345    1.917639   -1.188705
     83          6           0        1.449674   -3.005153   -1.406170
     84          6           0        6.253158   -3.609349   -0.810299
     85          7           0        4.386601    1.308179   -0.721412
     86          6           0        5.565507    1.978222   -0.431868
     87          6           0        5.374474    3.525726   -0.181649
     88          6           0        3.798539    3.603452   -0.173745
     89          6           0        3.373788    2.179625   -0.690612
     90          6           0        3.029127    3.917249    1.112739
     91          6           0        6.094025    4.350242   -1.264724
     92          6           0        7.348918    5.075068   -0.854811
     93          1           0        7.586640    6.459797   -1.482968
     94          7           0        2.089712   -0.631693   -1.469472
     95          6           0        1.527595    0.605016   -1.534683
     96          6           0        0.090094    0.370749   -1.773646
     97          6           0       -0.153792   -1.011169   -1.741863
     98          6           0        1.102847   -1.625265   -1.553221
     99          6           0       -0.814508    1.486063   -2.110034
    100          6           0       -1.445655   -1.768155   -1.841873
    101          8           0       -1.510991   -3.027041   -1.909312
    102          6           0       -2.734358   -1.150343   -1.837735
    103          7           0        3.895257   -2.950478   -1.188757
    104          6           0        2.705587   -3.593134   -1.344400
    105          6           0        2.824035   -5.066436   -1.345600
    106          6           0        4.373996   -5.287008   -1.216001
    107          6           0        4.844029   -3.897114   -1.003678
    108          6           0        2.044172   -5.986436   -0.360742
    109          6           0        5.057764   -6.106663   -2.418941
    110          6           0        5.519040   -5.439093   -3.748494
    111          7           0        6.062299   -1.218513   -0.616586
    112          6           0        6.809370   -2.360255   -0.571316
    113          6           0        8.162098   -2.044983   -0.416596
    114          6           0        8.139186   -0.611744   -0.211463
    115          6           0        6.841084   -0.170301   -0.373478
    116          6           0        9.360070   -2.991569   -0.464253
    117          6           0        9.021822    0.508428   -0.054436
    118          8           0       10.227844    0.648820   -0.042408
    119          6           0        8.077900    1.747450    0.133880
    120          6           0        8.100492    2.185956    1.543441
    121          8           0        7.153220    2.120763    2.357492
    122          8           0        9.288927    2.676347    1.958413
    123          6           0        9.382994    3.373025    3.286603
    124          1           0        1.468882    2.802631   -1.148563
    125          1           0        0.634061   -3.729516   -1.460053
    126          1           0        7.017535   -4.387629   -0.869131
    127          1           0        5.564076    3.800253    0.856563
    128          1           0        3.541364    4.338784   -0.936079
    129          1           0        2.488358    3.033573    1.452371
    130          1           0        2.221751    4.588566    0.823935
    131          1           0        3.625829    4.320881    1.931471
    132          1           0        5.381676    5.126368   -1.546968
    133          1           0        6.238163    3.711930   -2.136435
    134          1           0        8.193925    4.442567   -1.128122
    135          1           0        7.480034    5.219722    0.217654
    136          1           0       -1.170584    1.260729   -3.114460
    137          1           0       -0.439101    2.510048   -2.092911
    138          1           0       -1.669614    1.477767   -1.434194
    139          1           0       -2.690294   -0.404657   -1.044374
    140          1           0       -3.523837   -1.900781   -1.836498
    141          1           0       -2.876779   -0.532840   -2.724623
    142          1           0        2.478945   -5.264520   -2.359960
    143          1           0        4.585276   -5.814495   -0.286574
    144          1           0        1.317504   -6.614785   -0.875823
    145          1           0        1.468096   -5.398842    0.354883
    146          1           0        2.692382   -6.606602    0.258280
    147          1           0        4.262657   -6.797838   -2.699360
    148          1           0        5.848842   -6.626064   -1.877880
    149          1           0        5.495642   -4.349685   -3.757294
    150          1           0        5.096739   -5.853481   -4.664383
    151          1           0        6.556101   -5.758374   -3.843062
    152          1           0        9.958255   -2.937743    0.445953
    153          1           0       10.012306   -2.652660   -1.268968
    154          1           0        9.112061   -4.025248   -0.706727
    155          1           0        8.538855    2.586754   -0.387163
    156          1           0       10.351550    3.843546    3.116880
    157          1           0        9.369859    2.715712    4.155389
    158          1           0        8.564595    4.086788    3.385739
 ---------------------------------------------------------------------

 SCF Done:  E(RPBE1PBE) =  -4067.40831592     A.U. after   17 cycles

 Excitation energies and oscillator strengths:

 Excited State   1:      Singlet-A      1.5164 eV  817.62 nm  f=0.0001  <S**2>=0.000
     312 -> 313        0.70678
 This state for optimization and/or second-order correction.
 Total Energy, E(TD-HF/TD-DFT) =  -4067.35258894
 Copying the excited state density for this state as the 1-particle RhoCI density.

 Excited State   2:      Singlet-A      1.8571 eV  667.64 nm  f=0.3494  <S**2>=0.000
     310 -> 316       -0.16090
     311 -> 314        0.19313
     312 -> 314        0.66521
     312 <- 314       -0.10250

 Excited State   3:      Singlet-A      1.8713 eV  662.55 nm  f=0.0221  <S**2>=0.000
     311 -> 314        0.67717
     312 -> 314       -0.18511

 Excited State   4:      Singlet-A      1.8926 eV  655.10 nm  f=0.3812  <S**2>=0.000
     309 -> 315       -0.17199
     311 -> 313        0.68827
     311 <- 313       -0.10657

 Excited State   5:      Singlet-A      2.0524 eV  604.10 nm  f=0.0002  <S**2>=0.000
     310 -> 313        0.70642

 The electronic state is 1-A.
 Alpha  occ. eigenvalues --  -46.90838 -46.90776 -19.26873 -19.24716 -19.20469
 Alpha  occ. eigenvalues --  -19.20010 -19.19639 -19.18541 -19.18435 -19.17968
 Alpha  occ. eigenvalues --  -14.41754 -14.41359 -14.41339 -14.41162 -14.39056
 Alpha  occ. eigenvalues --  -14.39046 -14.38542 -14.37973 -10.37059 -10.35557
 Alpha  occ. eigenvalues --  -10.33415 -10.32584 -10.31300 -10.31288 -10.29921
 Alpha  occ. eigenvalues --  -10.29293 -10.29121 -10.28651 -10.28456 -10.28434
 Alpha  occ. eigenvalues --  -10.28403 -10.28338 -10.28280 -10.28097 -10.28091
 Alpha  occ. eigenvalues --  -10.27704 -10.27571 -10.27546 -10.27188 -10.26533
 Alpha  occ. eigenvalues --  -10.26410 -10.26405 -10.26162 -10.26135 -10.26096
 Alpha  occ. eigenvalues --  -10.25994 -10.25947 -10.25896 -10.25854 -10.25793
 Alpha  occ. eigenvalues --  -10.25711 -10.25704 -10.25542 -10.25499 -10.25495
 Alpha  occ. eigenvalues --  -10.25352 -10.25329 -10.25276 -10.25171 -10.25029
 Alpha  occ. eigenvalues --  -10.24840 -10.24839 -10.24756 -10.24592 -10.24501
 Alpha  occ. eigenvalues --  -10.24487 -10.24343 -10.24246 -10.24235 -10.24033
 Alpha  occ. eigenvalues --  -10.23930 -10.23865 -10.23860 -10.23741 -10.23700
 Alpha  occ. eigenvalues --  -10.23530 -10.23372 -10.23359 -10.23357 -10.23152
 Alpha  occ. eigenvalues --  -10.23074 -10.22419 -10.22413 -10.22352 -10.22311
 Alpha  occ. eigenvalues --  -10.22101  -3.13132  -3.13071  -1.85985  -1.85921
 Alpha  occ. eigenvalues --   -1.85511  -1.85433  -1.85359  -1.85320  -1.11102
 Alpha  occ. eigenvalues --   -1.09912  -1.06370  -1.05463  -1.04259  -1.02341
 Alpha  occ. eigenvalues --   -1.01767  -0.99896  -0.99779  -0.99446  -0.98666
 Alpha  occ. eigenvalues --   -0.98317  -0.97788  -0.97305  -0.96731  -0.96095
 Alpha  occ. eigenvalues --   -0.87415  -0.87277  -0.83736  -0.83305  -0.83000
 Alpha  occ. eigenvalues --   -0.82630  -0.82463  -0.82369  -0.81515  -0.81495
 Alpha  occ. eigenvalues --   -0.81221  -0.80751  -0.80372  -0.80349  -0.78816
 Alpha  occ. eigenvalues --   -0.78578  -0.78175  -0.77872  -0.77363  -0.76780
 Alpha  occ. eigenvalues --   -0.76453  -0.76315  -0.75670  -0.75201  -0.75199
 Alpha  occ. eigenvalues --   -0.74766  -0.72589  -0.72565  -0.71928  -0.71696
 Alpha  occ. eigenvalues --   -0.71319  -0.71142  -0.70496  -0.70196  -0.69493
 Alpha  occ. eigenvalues --   -0.69242  -0.67533  -0.67420  -0.65671  -0.65537
 Alpha  occ. eigenvalues --   -0.64403  -0.63276  -0.63052  -0.62529  -0.62393
 Alpha  occ. eigenvalues --   -0.62143  -0.61268  -0.61034  -0.60211  -0.59629
 Alpha  occ. eigenvalues --   -0.59607  -0.59465  -0.59257  -0.59131  -0.58808
 Alpha  occ. eigenvalues --   -0.58803  -0.56897  -0.56068  -0.55075  -0.54682
 Alpha  occ. eigenvalues --   -0.54178  -0.54097  -0.54033  -0.53633  -0.53170
 Alpha  occ. eigenvalues --   -0.52967  -0.52648  -0.52309  -0.52190  -0.51703
 Alpha  occ. eigenvalues --   -0.50764  -0.50561  -0.50530  -0.50411  -0.50031
 Alpha  occ. eigenvalues --   -0.49887  -0.49294  -0.48868  -0.48473  -0.48428
 Alpha  occ. eigenvalues --   -0.48294  -0.48147  -0.47797  -0.47582  -0.47478
 Alpha  occ. eigenvalues --   -0.47083  -0.46945  -0.46759  -0.46639  -0.46539
 Alpha  occ. eigenvalues --   -0.46489  -0.46303  -0.45989  -0.45896  -0.45729
 Alpha  occ. eigenvalues --   -0.45641  -0.45372  -0.45021  -0.44973  -0.44881
 Alpha  occ. eigenvalues --   -0.44738  -0.44547  -0.44297  -0.44134  -0.44035
 Alpha  occ. eigenvalues --   -0.43893  -0.43742  -0.43593  -0.43567  -0.43437
 Alpha  occ. eigenvalues --   -0.43337  -0.43022  -0.42881  -0.42725  -0.42647
 Alpha  occ. eigenvalues --   -0.42490  -0.42066  -0.42018  -0.41652  -0.41533
 Alpha  occ. eigenvalues --   -0.41488  -0.41343  -0.41311  -0.41098  -0.40976
 Alpha  occ. eigenvalues --   -0.40859  -0.40780  -0.40663  -0.40593  -0.40292
 Alpha  occ. eigenvalues --   -0.40205  -0.40042  -0.39999  -0.39934  -0.39824
 Alpha  occ. eigenvalues --   -0.39732  -0.39620  -0.39481  -0.39326  -0.39214
 Alpha  occ. eigenvalues --   -0.39022  -0.38634  -0.38514  -0.38474  -0.38409
 Alpha  occ. eigenvalues --   -0.38137  -0.38063  -0.37943  -0.37811  -0.37675
 Alpha  occ. eigenvalues --   -0.37582  -0.37531  -0.37275  -0.37228  -0.36981
 Alpha  occ. eigenvalues --   -0.36802  -0.36361  -0.36322  -0.36256  -0.35969
 Alpha  occ. eigenvalues --   -0.35938  -0.35578  -0.35272  -0.35211  -0.35060
 Alpha  occ. eigenvalues --   -0.34582  -0.34446  -0.34171  -0.33919  -0.33848
 Alpha  occ. eigenvalues --   -0.33454  -0.33196  -0.33038  -0.32890  -0.32798
 Alpha  occ. eigenvalues --   -0.32218  -0.31761  -0.31653  -0.31504  -0.31424
 Alpha  occ. eigenvalues --   -0.31183  -0.30563  -0.29611  -0.29565  -0.29432
 Alpha  occ. eigenvalues --   -0.28927  -0.28656  -0.27601  -0.27123  -0.26531
 Alpha  occ. eigenvalues --   -0.26500  -0.26164  -0.25855  -0.25393  -0.25247
 Alpha  occ. eigenvalues --   -0.24957  -0.24927  -0.24812  -0.21065  -0.20518
 Alpha  occ. eigenvalues --   -0.19283  -0.18576
 Alpha virt. eigenvalues --   -0.11565  -0.10942  -0.05007  -0.04775  -0.03720
 Alpha virt. eigenvalues --   -0.03389  -0.01905  -0.01866  -0.00746   0.00486
 Alpha virt. eigenvalues --    0.00671   0.00844   0.01247   0.01451   0.01772

 Mulliken charges:
               1
     1  Mg  11.999813
     2  C    6.000019
     3  C    6.000065
     4  C    5.999662
     5  C    6.000067
     6  N    7.000372
     7  C    5.999825
     8  C    6.000283
     9  C    5.999695
    10  C    6.000542
    11  C    6.000176
    12  C    6.000099
    13  C    6.000049
    14  H    0.999812
    15  N    7.000009
    16  C    6.000083
    17  C    6.000329
    18  C    6.000037
    19  C    6.000324
    20  C    5.999946
    21  C    6.000102
    22  O    8.000188
    23  C    5.999972
    24  N    6.999936
    25  C    6.000252
    26  C    5.999961
    27  C    6.000074
    28  C    5.999723
    29  C    5.999941
    30  C    6.000052
    31  C    6.000026
    32  N    6.999973
    33  C    5.999635
    34  C    5.999687
    35  C    5.999944
    36  C    5.999571
    37  C    5.999998
    38  C    5.999752
    39  O    7.999510
    40  C    5.999930
    41  C    5.999994
    42  O    7.999856
    43  O    7.999970
    44  C    6.000029
    45  H    1.000143
    46  H    0.999953
    47  H    0.999850
    48  H    0.999864
    49  H    0.999969
    50  H    1.000114
    51  H    0.999756
    52  H    0.999938
    53  H    0.999785
    54  H    1.000047
    55  H    1.000066
    56  H    0.999936
    57  H    1.000175
    58  H    1.000118
    59  H    1.000151
    60  H    1.000084
    61  H    1.000012
    62  H    0.999995
    63  H    0.999939
    64  H    0.999944
    65  H    1.000045
    66  H    1.000043
    67  H    0.999944
    68  H    1.000031
    69  H    0.999860
    70  H    0.999898
    71  H    1.000007
    72  H    0.999978
    73  H    0.999794
    74  H    0.999749
    75  H    0.999805
    76  H    0.999811
    77  H    0.999902
    78  H    0.999983
    79  H    0.999867
    80  Mg  12.000236
    81  C    5.999958
    82  C    6.000079
    83  C    5.999957
    84  C    6.000047
    85  N    6.999976
    86  C    6.000138
    87  C    5.999924
    88  C    5.999938
    89  C    6.000022
    90  C    5.999926
    91  C    5.999967
    92  C    5.999956
    93  H    1.000110
    94  N    6.999961
    95  C    6.000005
    96  C    6.000070
    97  C    6.000066
    98  C    5.999959
    99  C    6.000093
   100  C    5.999855
   101  O    7.999813
   102  C    6.000015
   103  N    6.999979
   104  C    6.000046
   105  C    6.000012
   106  C    5.999905
   107  C    6.000213
   108  C    6.000039
   109  C    5.999971
   110  C    5.999964
   111  N    6.999957
   112  C    6.000160
   113  C    6.000122
   114  C    6.000057
   115  C    6.000150
   116  C    5.999976
   117  C    6.000116
   118  O    8.000219
   119  C    6.000022
   120  C    6.000016
   121  O    8.000061
   122  O    8.000000
   123  C    5.999975
   124  H    1.000103
   125  H    1.000052
   126  H    1.000121
   127  H    1.000056
   128  H    1.000115
   129  H    0.999794
   130  H    1.000209
   131  H    1.000084
   132  H    1.000094
   133  H    0.999989
   134  H    0.999969
   135  H    1.000004
   136  H    1.000104
   137  H    0.999970
   138  H    0.999216
   139  H    1.000067
   140  H    1.000021
   141  H    1.000066
   142  H    1.000095
   143  H    1.000062
   144  H    1.000078
   145  H    0.999951
   146  H    0.999992
   147  H    1.000119
   148  H    1.000030
   149  H    0.999996
   150  H    1.000104
   151  H    1.000029
   152  H    1.000140
   153  H    1.000138
   154  H    1.000119
   155  H    1.000101
   156  H    1.000049
   157  H    1.000037
   158  H    1.000053
 Sum of Mulliken charges = 624.00000

 Dipole moment (field-independent basis, Debye):
    X=              0.2073    Y=             -0.0728    Z=              0.0581  Tot=              0.2273
 Quadrupole moment (field-independent basis, Debye-Ang):
   XX=             -0.1460   YY=             -0.0536   ZZ=              0.0961
   XY=              0.1772   XZ=             -0.3279   YZ=              0.0124

 Normal termination of Gaussian 16 at Thu Oct 14 00:58:41 2021.
