 Gaussian 16, Revision A.03,
 Gaussian 16:  ES64L-G16RevA.03 25-Dec-2016

 --------------------------------------------------------
 #p PBE1PBE/Def2SVP td=(nstates=5) density=(transition=1)
 --------------------------------------------------------

 --------------------------------
 TDDFT excited states in gaussian
 --------------------------------
 Symbolic Z-matrix:
 Charge =  0 Multiplicity = 1

                         Standard orientation:
 ---------------------------------------------------------------------
 Center     Atomic      Atomic             Coordinates (Angstroms)
 Number     Number       Type             X           Y           Z
 ---------------------------------------------------------------------
      1         12           0      -32.923312   -0.280894   -0.492407
      2          6           0      -30.331046    1.702334    0.650623
      3          6           0      -31.376453   -3.063867    1.074472
      4          6           0      -35.709685   -2.187669   -1.077643
      5          6           0      -34.647068    2.502193   -1.593362
      6          7           0      -31.001494   -0.613066    0.599656
      7          6           0      -30.155041    0.385599    1.033191
      8          6           0      -29.053395   -0.105740    2.045417
      9          6           0      -29.158611   -1.691849    1.852150
     10          6           0      -30.583909   -1.871353    1.084694
     11          6           0      -27.994744   -2.457626    1.114994
     12          6           0      -29.260845    0.307032    3.460158
     13          6           0      -28.240564    1.173107    4.173688
     14          1           0      -28.151145    0.993353    5.697646
     15          7           0      -33.431492   -2.385230   -0.139389
     16          6           0      -32.591824   -3.330961    0.478619
     17          6           0      -33.210915   -4.617676    0.442124
     18          6           0      -34.585571   -4.352399   -0.057547
     19          6           0      -34.656818   -2.911332   -0.451789
     20          6           0      -32.616630   -5.876176    1.083004
     21          6           0      -35.639392   -5.471143   -0.130708
     22          8           0      -35.506684   -6.641366    0.215835
     23          6           0      -37.052110   -5.054712   -0.340754
     24          7           0      -35.055417    0.141981   -1.096670
     25          6           0      -35.890927   -0.854576   -1.419837
     26          6           0      -37.256878   -0.214228   -1.662481
     27          6           0      -36.961763    1.334531   -1.933896
     28          6           0      -35.417086    1.364452   -1.542777
     29          6           0      -37.907861   -0.833062   -2.949972
     30          6           0      -37.791231    2.441786   -1.162852
     31          6           0      -38.728899    3.371672   -1.918303
     32          7           0      -32.544002    1.746232   -0.560132
     33          6           0      -33.328051    2.782703   -1.076341
     34          6           0      -32.680621    4.039754   -0.856391
     35          6           0      -31.476683    3.697613   -0.166435
     36          6           0      -31.458121    2.251404   -0.072661
     37          6           0      -33.153028    5.409899   -1.228231
     38          6           0      -30.274623    4.166105    0.389236
     39          8           0      -29.880120    5.312846    0.459605
     40          6           0      -29.521956    2.926489    1.010808
     41          6           0      -28.102566    3.001085    0.630769
     42          8           0      -27.215703    3.342803    1.404933
     43          8           0      -27.946603    2.660085   -0.704481
     44          6           0      -26.543775    2.757255   -1.166703
     45          1           0      -30.977927   -3.996342    1.478524
     46          1           0      -36.518309   -2.885288   -1.307242
     47          1           0      -35.225645    3.372826   -1.908722
     48          1           0      -28.075338    0.236797    1.709312
     49          1           0      -29.323491   -2.112037    2.844947
     50          1           0      -27.152392   -1.769163    1.048192
     51          1           0      -28.253138   -2.832138    0.124413
     52          1           0      -27.766102   -3.337654    1.714980
     53          1           0      -29.276358   -0.612260    4.047554
     54          1           0      -30.192206    0.864862    3.551493
     55          1           0      -28.542174    2.212177    4.044789
     56          1           0      -27.218908    1.006606    3.832986
     57          1           0      -31.691140   -5.837845    1.657113
     58          1           0      -32.563375   -6.556293    0.233241
     59          1           0      -33.462246   -6.298706    1.624744
     60          1           0      -37.444092   -4.968041   -1.353226
     61          1           0      -37.309533   -4.165010    0.234130
     62          1           0      -37.663198   -5.860590    0.067434
     63          1           0      -37.937205   -0.334837   -0.819138
     64          1           0      -36.964715    1.534869   -3.004752
     65          1           0      -38.921750   -1.126436   -2.677868
     66          1           0      -37.377995   -1.682439   -3.382978
     67          1           0      -37.960607   -0.132922   -3.784030
     68          1           0      -37.028313    3.027888   -0.650938
     69          1           0      -38.439039    1.885601   -0.483861
     70          1           0      -38.817932    4.255686   -1.286379
     71          1           0      -39.713753    2.907725   -1.976609
     72          1           0      -38.453106    3.740776   -2.905565
     73          1           0      -32.373781    6.094525   -0.892306
     74          1           0      -34.119642    5.558545   -0.747874
     75          1           0      -33.279859    5.583812   -2.296920
     76          1           0      -29.580175    3.106538    2.084788
     77          1           0      -26.344512    3.757648   -1.550756
     78          1           0      -26.408136    1.941686   -1.876986
     79          1           0      -25.837238    2.535948   -0.367253
     80         12           0       32.745247    0.494882   -0.564429
     81          6           0       31.120860   -2.412520    0.421181
     82          6           0       30.542296    2.340894    1.508686
     83          6           0       34.894294    3.053301   -0.548866
     84          6           0       35.238074   -1.538174   -2.007054
     85          7           0       31.198001   -0.058775    1.124236
     86          6           0       30.579663   -1.285542    1.092058
     87          6           0       29.382946   -1.320773    1.989946
     88          6           0       29.043845    0.234057    2.130997
     89          6           0       30.341072    0.931557    1.588338
     90          6           0       27.717560    0.738733    1.367488
     91          6           0       29.702624   -2.159706    3.332123
     92          6           0       28.547436   -2.751807    3.965502
     93          1           0       28.381126   -2.351533    5.446795
     94          7           0       32.668127    2.473629    0.180226
     95          6           0       31.665501    3.047067    1.011449
     96          6           0       32.021273    4.439214    1.228345
     97          6           0       33.276509    4.693457    0.624088
     98          6           0       33.635838    3.392686   -0.034389
     99          6           0       31.224090    5.326570    2.109940
    100          6           0       34.058421    6.069061    0.732080
    101          8           0       33.514892    6.968799    1.370858
    102          6           0       35.254242    6.391575   -0.157342
    103          7           0       34.784292    0.644211   -1.103522
    104          6           0       35.373110    1.866975   -1.102111
    105          6           0       36.959044    1.813211   -1.564013
    106          6           0       36.992915    0.360285   -2.241843
    107          6           0       35.619298   -0.247810   -1.815737
    108          6           0       37.412925    2.917338   -2.592372
    109          6           0       38.161253   -0.501302   -1.759057
    110          6           0       39.200908   -1.060852   -2.759484
    111          7           0       32.970744   -1.509181   -1.007963
    112          6           0       34.000311   -2.164312   -1.618854
    113          6           0       33.636541   -3.542014   -1.804472
    114          6           0       32.491878   -3.671799   -0.931096
    115          6           0       32.180142   -2.388029   -0.451839
    116          6           0       34.462892   -4.602075   -2.473549
    117          6           0       31.599639   -4.642141   -0.331788
    118          8           0       31.435457   -5.795708   -0.590086
    119          6           0       30.570134   -3.864395    0.577335
    120          6           0       29.106447   -3.917616    0.086800
    121          8           0       28.749533   -3.668947   -1.044721
    122          8           0       28.277694   -4.393870    1.123578
    123          6           0       26.914295   -4.669522    0.784278
    124          1           0       29.790030    2.859607    2.105279
    125          1           0       35.708868    3.757564   -0.368323
    126          1           0       36.027253   -2.125284   -2.480292
    127          1           0       28.485230   -1.660848    1.472620
    128          1           0       28.938191    0.459738    3.192744
    129          1           0       27.076333    1.143552    2.150359
    130          1           0       27.215994   -0.056866    0.817397
    131          1           0       28.037787    1.538709    0.699333
    132          1           0       30.124593   -1.409304    4.000450
    133          1           0       30.496142   -2.818802    2.978923
    134          1           0       28.680309   -3.829974    3.884482
    135          1           0       27.636612   -2.420085    3.467120
    136          1           0       30.251612    4.893441    2.343331
    137          1           0       30.983371    6.251976    1.586105
    138          1           0       31.733206    5.504869    3.057390
    139          1           0       36.129178    5.771572    0.040590
    140          1           0       35.490887    7.446524   -0.014995
    141          1           0       34.928293    6.273636   -1.190820
    142          1           0       37.492625    1.803306   -0.613990
    143          1           0       36.923901    0.359164   -3.329874
    144          1           0       38.121353    3.594183   -2.115649
    145          1           0       36.543292    3.489580   -2.917664
    146          1           0       37.879917    2.392049   -3.426186
    147          1           0       37.821365   -1.320594   -1.125951
    148          1           0       38.784371   -0.036653   -0.995077
    149          1           0       39.200539   -2.136571   -2.937446
    150          1           0       40.168279   -0.846863   -2.304419
    151          1           0       39.104947   -0.586034   -3.736667
    152          1           0       33.788778   -5.423964   -2.715997
    153          1           0       35.097141   -5.183994   -1.805561
    154          1           0       35.078092   -4.253071   -3.302482
    155          1           0       30.635597   -4.397784    1.526069
    156          1           0       26.441480   -4.517472    1.755093
    157          1           0       26.751030   -5.726270    0.573512
    158          1           0       26.586960   -4.048380   -0.048509
 ---------------------------------------------------------------------

 SCF Done:  E(RPBE1PBE) =  -4067.33347759     A.U. after   16 cycles

 Excitation energies and oscillator strengths:

 Excited State   1:      Singlet-A      1.7533 eV  707.15 nm  f=0.0000  <S**2>=0.000
     312 -> 313        0.70711
 This state for optimization and/or second-order correction.
 Total Energy, E(TD-HF/TD-DFT) =  -4067.26904546
 Copying the excited state density for this state as the 1-particle RhoCI density.

 Excited State   2:      Singlet-A      1.8323 eV  676.65 nm  f=0.3778  <S**2>=0.000
     310 -> 316       -0.16921
     312 -> 314        0.69534
     312 <- 314       -0.11106

 Excited State   3:      Singlet-A      1.8585 eV  667.13 nm  f=0.3621  <S**2>=0.000
     309 -> 315       -0.17025
     311 -> 313        0.69188
     311 <- 313       -0.10673

 Excited State   4:      Singlet-A      2.1844 eV  567.59 nm  f=0.1539  <S**2>=0.000
     309 -> 313        0.65882
     311 -> 315        0.23361

 Excited State   5:      Singlet-A      2.2475 eV  551.67 nm  f=0.1025  <S**2>=0.000
     310 -> 314        0.64692
     312 -> 316        0.27104

 The electronic state is 1-A.
 Alpha  occ. eigenvalues --  -46.93868 -46.93188 -19.25831 -19.25821 -19.20970
 Alpha  occ. eigenvalues --  -19.20149 -19.19737 -19.19167 -19.18799 -19.18630
 Alpha  occ. eigenvalues --  -14.42961 -14.41706 -14.41651 -14.41555 -14.39744
 Alpha  occ. eigenvalues --  -14.39639 -14.39635 -14.38832 -10.37147 -10.36207
 Alpha  occ. eigenvalues --  -10.33398 -10.32249 -10.31542 -10.31304 -10.30685
 Alpha  occ. eigenvalues --  -10.29552 -10.29515 -10.29395 -10.29251 -10.29184
 Alpha  occ. eigenvalues --  -10.28780 -10.28775 -10.28702 -10.28542 -10.28462
 Alpha  occ. eigenvalues --  -10.28415 -10.28405 -10.28213 -10.27816 -10.27660
 Alpha  occ. eigenvalues --  -10.27240 -10.27194 -10.27097 -10.27014 -10.26554
 Alpha  occ. eigenvalues --  -10.26517 -10.26496 -10.26296 -10.26286 -10.26253
 Alpha  occ. eigenvalues --  -10.26238 -10.26223 -10.26103 -10.26034 -10.25968
 Alpha  occ. eigenvalues --  -10.25864 -10.25779 -10.25683 -10.25682 -10.25634
 Alpha  occ. eigenvalues --  -10.25626 -10.25594 -10.25488 -10.25339 -10.25143
 Alpha  occ. eigenvalues --  -10.25125 -10.24748 -10.24388 -10.24298 -10.24229
 Alpha  occ. eigenvalues --  -10.24209 -10.24134 -10.24133 -10.24130 -10.24123
 Alpha  occ. eigenvalues --  -10.23909 -10.23837 -10.23698 -10.23672 -10.23396
 Alpha  occ. eigenvalues --  -10.23343 -10.23337 -10.22965 -10.22699 -10.22637
 Alpha  occ. eigenvalues --  -10.22616  -3.15669  -3.15187  -1.88536  -1.88018
 Alpha  occ. eigenvalues --   -1.87975  -1.87892  -1.87616  -1.87376  -1.10862
 Alpha  occ. eigenvalues --   -1.10351  -1.05716  -1.04862  -1.04764  -1.04638
 Alpha  occ. eigenvalues --   -1.03594  -1.02382  -0.99815  -0.99679  -0.98775
 Alpha  occ. eigenvalues --   -0.97398  -0.97060  -0.96941  -0.96266  -0.96176
 Alpha  occ. eigenvalues --   -0.87051  -0.86688  -0.83780  -0.83640  -0.83523
 Alpha  occ. eigenvalues --   -0.82606  -0.82496  -0.82424  -0.82024  -0.81719
 Alpha  occ. eigenvalues --   -0.81181  -0.80804  -0.80081  -0.79956  -0.78728
 Alpha  occ. eigenvalues --   -0.78309  -0.78222  -0.77673  -0.77158  -0.76908
 Alpha  occ. eigenvalues --   -0.76379  -0.76365  -0.75486  -0.75271  -0.75124
 Alpha  occ. eigenvalues --   -0.74628  -0.72262  -0.72222  -0.71578  -0.71486
 Alpha  occ. eigenvalues --   -0.71191  -0.71021  -0.70524  -0.70489  -0.69870
 Alpha  occ. eigenvalues --   -0.69272  -0.68030  -0.67150  -0.66741  -0.65781
 Alpha  occ. eigenvalues --   -0.63783  -0.63614  -0.63561  -0.62934  -0.62425
 Alpha  occ. eigenvalues --   -0.61859  -0.61541  -0.60836  -0.60314  -0.60080
 Alpha  occ. eigenvalues --   -0.59903  -0.59773  -0.59341  -0.59326  -0.58877
 Alpha  occ. eigenvalues --   -0.58700  -0.57609  -0.57424  -0.54822  -0.54395
 Alpha  occ. eigenvalues --   -0.54227  -0.54075  -0.54028  -0.53691  -0.53548
 Alpha  occ. eigenvalues --   -0.53066  -0.52628  -0.52459  -0.52040  -0.51509
 Alpha  occ. eigenvalues --   -0.51152  -0.50842  -0.50516  -0.50026  -0.49959
 Alpha  occ. eigenvalues --   -0.49567  -0.49356  -0.49262  -0.48611  -0.48515
 Alpha  occ. eigenvalues --   -0.48299  -0.47858  -0.47830  -0.47401  -0.47342
 Alpha  occ. eigenvalues --   -0.47341  -0.47137  -0.47038  -0.46952  -0.46711
 Alpha  occ. eigenvalues --   -0.46590  -0.46304  -0.46189  -0.46145  -0.45961
 Alpha  occ. eigenvalues --   -0.45692  -0.45656  -0.45471  -0.44980  -0.44818
 Alpha  occ. eigenvalues --   -0.44773  -0.44491  -0.44321  -0.44279  -0.44186
 Alpha  occ. eigenvalues --   -0.44180  -0.43898  -0.43834  -0.43652  -0.43547
 Alpha  occ. eigenvalues --   -0.43420  -0.43360  -0.43131  -0.42973  -0.42691
 Alpha  occ. eigenvalues --   -0.42682  -0.42530  -0.42351  -0.42059  -0.41939
 Alpha  occ. eigenvalues --   -0.41773  -0.41677  -0.41567  -0.41462  -0.41347
 Alpha  occ. eigenvalues --   -0.41141  -0.40872  -0.40815  -0.40767  -0.40619
 Alpha  occ. eigenvalues --   -0.40519  -0.40401  -0.40372  -0.40173  -0.39981
 Alpha  occ. eigenvalues --   -0.39964  -0.39743  -0.39559  -0.39455  -0.39341
 Alpha  occ. eigenvalues --   -0.39324  -0.39036  -0.38835  -0.38687  -0.38674
 Alpha  occ. eigenvalues --   -0.38501  -0.38450  -0.38227  -0.37920  -0.37790
 Alpha  occ. eigenvalues --   -0.37564  -0.37549  -0.37467  -0.37316  -0.37294
 Alpha  occ. eigenvalues --   -0.37050  -0.37046  -0.36436  -0.36401  -0.36380
 Alpha  occ. eigenvalues --   -0.36045  -0.35965  -0.35883  -0.35341  -0.35321
 Alpha  occ. eigenvalues --   -0.34964  -0.34780  -0.34675  -0.34417  -0.33612
 Alpha  occ. eigenvalues --   -0.33383  -0.33151  -0.32883  -0.32752  -0.32464
 Alpha  occ. eigenvalues --   -0.32218  -0.32080  -0.31792  -0.31640  -0.31254
 Alpha  occ. eigenvalues --   -0.30943  -0.30689  -0.29790  -0.29777  -0.29412
 Alpha  occ. eigenvalues --   -0.29368  -0.28881  -0.28776  -0.27446  -0.26894
 Alpha  occ. eigenvalues --   -0.26193  -0.26116  -0.25825  -0.25591  -0.25569
 Alpha  occ. eigenvalues --   -0.25101  -0.25037  -0.24967  -0.21588  -0.21204
 Alpha  occ. eigenvalues --   -0.19775  -0.18799
 Alpha virt. eigenvalues --   -0.12154  -0.11274  -0.05873  -0.05157  -0.04151
 Alpha virt. eigenvalues --   -0.03770  -0.02320  -0.02240  -0.01445  -0.00410
 Alpha virt. eigenvalues --   -0.00125   0.00359   0.00381   0.00610   0.01670

 Mulliken charges:
               1
     1  Mg  12.000000
     2  C    6.000000
     3  C    6.000000
     4  C    6.000000
     5  C    6.000000
     6  N    7.000000
     7  C    6.000000
     8  C    6.000000
     9  C    6.000000
    10  C    6.000000
    11  C    6.000000
    12  C    6.000000
    13  C    6.000000
    14  H    1.000000
    15  N    7.000000
    16  C    6.000000
    17  C    6.000000
    18  C    6.000000
    19  C    6.000000
    20  C    6.000000
    21  C    6.000000
    22  O    8.000000
    23  C    6.000000
    24  N    7.000000
    25  C    6.000000
    26  C    6.000000
    27  C    6.000000
    28  C    6.000000
    29  C    6.000000
    30  C    6.000000
    31  C    6.000000
    32  N    7.000000
    33  C    6.000000
    34  C    6.000000
    35  C    6.000000
    36  C    6.000000
    37  C    6.000000
    38  C    6.000000
    39  O    8.000000
    40  C    6.000000
    41  C    6.000000
    42  O    8.000000
    43  O    8.000000
    44  C    6.000000
    45  H    1.000000
    46  H    1.000000
    47  H    1.000000
    48  H    1.000000
    49  H    1.000000
    50  H    1.000000
    51  H    1.000000
    52  H    1.000000
    53  H    1.000000
    54  H    1.000000
    55  H    1.000000
    56  H    1.000000
    57  H    1.000000
    58  H    1.000000
    59  H    1.000000
    60  H    1.000000
    61  H    1.000000
    62  H    1.000000
    63  H    1.000000
    64  H    1.000000
    65  H    1.000000
    66  H    1.000000
    67  H    1.000000
    68  H    1.000000
    69  H    1.000000
    70  H    1.000000
    71  H    1.000000
    72  H    1.000000
    73  H    1.000000
    74  H    1.000000
    75  H    1.000000
    76  H    1.000000
    77  H    1.000000
    78  H    1.000000
    79  H    1.000000
    80  Mg  12.000000
    81  C    6.000000
    82  C    6.000000
    83  C    6.000000
    84  C    6.000000
    85  N    7.000000
    86  C    6.000000
    87  C    6.000000
    88  C    6.000000
    89  C    6.000000
    90  C    6.000000
    91  C    6.000000
    92  C    6.000000
    93  H    1.000000
    94  N    7.000000
    95  C    6.000000
    96  C    6.000000
    97  C    6.000000
    98  C    6.000000
    99  C    6.000000
   100  C    6.000000
   101  O    8.000000
   102  C    6.000000
   103  N    7.000000
   104  C    6.000000
   105  C    6.000000
   106  C    6.000000
   107  C    6.000000
   108  C    6.000000
   109  C    6.000000
   110  C    6.000000
   111  N    7.000000
   112  C    6.000000
   113  C    6.000000
   114  C    6.000000
   115  C    6.000000
   116  C    6.000000
   117  C    6.000000
   118  O    8.000000
   119  C    6.000000
   120  C    6.000000
   121  O    8.000000
   122  O    8.000000
   123  C    6.000000
   124  H    1.000000
   125  H    1.000000
   126  H    1.000000
   127  H    1.000000
   128  H    1.000000
   129  H    1.000000
   130  H    1.000000
   131  H    1.000000
   132  H    1.000000
   133  H    1.000000
   134  H    1.000000
   135  H    1.000000
   136  H    1.000000
   137  H    1.000000
   138  H    1.000000
   139  H    1.000000
   140  H    1.000000
   141  H    1.000000
   142  H    1.000000
   143  H    1.000000
   144  H    1.000000
   145  H    1.000000
   146  H    1.000000
   147  H    1.000000
   148  H    1.000000
   149  H    1.000000
   150  H    1.000000
   151  H    1.000000
   152  H    1.000000
   153  H    1.000000
   154  H    1.000000
   155  H    1.000000
   156  H    1.000000
   157  H    1.000000
   158  H    1.000000
 Sum of Mulliken charges = 624.00000

 Dipole moment (field-independent basis, Debye):
    X=             -0.0000    Y=              0.0000    Z=              0.0000  Tot=              0.0000
 Quadrupole moment (field-independent basis, Debye-Ang):
   XX=             -0.0000   YY=             -0.0000   ZZ=              0.0000
   XY=             -0.0000   XZ=              0.0000   YZ=             -0.0000

 Normal termination of Gaussian 16 at Fri Oct 15 07:26:45 2021.
