 Gaussian 16, Revision A.03,
 Gaussian 16:  ES64L-G16RevA.03 25-Dec-2016

 --------------------------------------------------------
 #p PBE1PBE/Def2SVP td=(nstates=5) density=(transition=1)
 --------------------------------------------------------

 --------------------------------
 TDDFT excited states in gaussian
 --------------------------------
 Symbolic Z-matrix:
 Charge =  0 Multiplicity = 1

                         Standard orientation:
 ---------------------------------------------------------------------
 Center     Atomic      Atomic             Coordinates (Angstroms)
 Number     Number       Type             X           Y           Z
 ---------------------------------------------------------------------
      1         12           0       24.114818   -0.941721    0.048598
      2          6           0       25.604090    2.318092   -0.223861
      3          6           0       22.659311    0.220064    3.065656
      4          6           0       22.678624   -4.080068    0.581923
      5          6           0       25.846483   -2.046347   -2.586063
      6          7           0       24.339038    1.067120    1.380767
      7          6           0       24.890011    2.232149    0.977726
      8          6           0       24.738146    3.314643    2.106144
      9          6           0       23.973008    2.483648    3.197316
     10          6           0       23.543050    1.175474    2.494639
     11          6           0       24.837704    2.251641    4.485355
     12          6           0       23.966275    4.555125    1.657046
     13          6           0       24.533148    5.872404    2.074219
     14          1           0       23.861446    7.158574    1.571747
     15          7           0       22.712375   -1.760490    1.443919
     16          6           0       22.266740   -1.115789    2.593007
     17          6           0       21.337444   -1.997288    3.271503
     18          6           0       21.235125   -3.178346    2.555261
     19          6           0       22.299264   -3.081510    1.499981
     20          6           0       20.718811   -1.720129    4.611498
     21          6           0       20.397922   -4.494397    2.828233
     22          8           0       20.358808   -5.495917    2.156265
     23          6           0       19.391859   -4.489285    3.958745
     24          7           0       24.329870   -2.799078   -0.728606
     25          6           0       23.678971   -3.962452   -0.410360
     26          6           0       24.256734   -5.181290   -1.166981
     27          6           0       25.080265   -4.500059   -2.341328
     28          6           0       25.057000   -2.997697   -1.864858
     29          6           0       25.071375   -6.143286   -0.244223
     30          6           0       24.464464   -4.693052   -3.760543
     31          6           0       23.138718   -3.977463   -4.009819
     32          7           0       25.455476   -0.136156   -1.155827
     33          6           0       26.081733   -0.695643   -2.304335
     34          6           0       26.968568    0.281055   -2.932669
     35          6           0       26.763663    1.457275   -2.189285
     36          6           0       25.845471    1.182967   -1.141333
     37          6           0       27.800128    0.055670   -4.108987
     38          6           0       27.194561    2.850072   -2.124911
     39          8           0       27.923159    3.472405   -2.879448
     40          6           0       26.527016    3.465026   -0.780006
     41          6           0       25.836099    4.693348   -1.377126
     42          8           0       24.821982    4.736274   -2.096743
     43          8           0       26.535336    5.769553   -1.061459
     44          6           0       25.924943    7.143189   -1.281610
     45          1           0       22.157999    0.612512    3.952514
     46          1           0       22.282814   -5.094753    0.671112
     47          1           0       26.322923   -2.451953   -3.480687
     48          1           0       25.760388    3.632195    2.309003
     49          1           0       23.042363    2.969132    3.494142
     50          1           0       24.391200    2.576034    5.425302
     51          1           0       25.873873    2.576621    4.389441
     52          1           0       24.978776    1.213852    4.788173
     53          1           0       23.131370    4.542724    2.357898
     54          1           0       23.620202    4.495932    0.624549
     55          1           0       25.597632    6.073589    1.943349
     56          1           0       24.379808    5.870819    3.153435
     57          1           0       20.909303   -0.696497    4.932949
     58          1           0       21.046051   -2.377240    5.418742
     59          1           0       19.631645   -1.789397    4.652029
     60          1           0       18.626086   -3.724459    3.829852
     61          1           0       20.040642   -4.347846    4.823196
     62          1           0       19.063132   -5.527690    4.001015
     63          1           0       23.370738   -5.752947   -1.445480
     64          1           0       26.163797   -4.620084   -2.329464
     65          1           0       24.576453   -7.103099   -0.096427
     66          1           0       25.411695   -5.766574    0.719698
     67          1           0       25.984931   -6.260377   -0.827433
     68          1           0       24.552447   -5.749978   -4.012460
     69          1           0       25.150600   -4.237055   -4.474052
     70          1           0       22.689556   -3.491566   -3.144408
     71          1           0       22.445955   -4.754699   -4.331481
     72          1           0       23.181942   -3.119107   -4.679249
     73          1           0       28.399789    0.911074   -4.420754
     74          1           0       27.101250   -0.223163   -4.897509
     75          1           0       28.433579   -0.807879   -3.901293
     76          1           0       27.271337    3.881239   -0.101168
     77          1           0       26.514632    7.827526   -0.671252
     78          1           0       24.906192    7.220372   -0.902970
     79          1           0       25.881680    7.436708   -2.331099
     80         12           0      -24.680850   -0.547547   -0.127602
     81          6           0      -23.543513    2.811187   -0.439768
     82          6           0      -25.207603    0.032080    3.220405
     83          6           0      -25.642598   -3.706922   -0.016848
     84          6           0      -23.613517   -1.157868   -3.505121
     85          7           0      -24.337700    1.252743    1.306294
     86          6           0      -23.964823    2.509550    0.866166
     87          6           0      -24.028374    3.445973    2.121212
     88          6           0      -24.538347    2.521580    3.351015
     89          6           0      -24.686995    1.199623    2.591001
     90          6           0      -23.637959    2.499994    4.603739
     91          6           0      -24.792148    4.824234    1.954370
     92          6           0      -23.979570    6.055778    2.230533
     93          1           0      -22.807833    6.088595    3.175920
     94          7           0      -25.487273   -1.694567    1.436532
     95          6           0      -25.603752   -1.267165    2.721660
     96          6           0      -26.335477   -2.296654    3.413963
     97          6           0      -26.380745   -3.410015    2.547360
     98          6           0      -25.799081   -3.010516    1.224709
     99          6           0      -26.735428   -2.099252    4.885878
    100          6           0      -26.798889   -4.807480    2.891488
    101          8           0      -26.685999   -5.747450    2.069319
    102          6           0      -27.305122   -5.100416    4.255071
    103          7           0      -24.548640   -2.203317   -1.603780
    104          6           0      -25.079850   -3.341437   -1.320703
    105          6           0      -25.113120   -4.451059   -2.501720
    106          6           0      -24.439399   -3.617105   -3.602071
    107          6           0      -24.186637   -2.295045   -2.919685
    108          6           0      -24.320662   -5.730418   -2.045222
    109          6           0      -25.234334   -3.438687   -4.943161
    110          6           0      -26.463496   -2.500087   -4.899393
    111          7           0      -23.686735    0.513447   -1.565318
    112          6           0      -23.313107    0.102750   -2.866604
    113          6           0      -22.755665    1.270267   -3.562943
    114          6           0      -22.835897    2.350986   -2.652191
    115          6           0      -23.452543    1.849672   -1.456303
    116          6           0      -22.233402    1.283143   -5.030827
    117          6           0      -22.566582    3.686291   -2.547483
    118          8           0      -22.036530    4.474559   -3.303703
    119          6           0      -23.052914    4.115731   -1.135130
    120          6           0      -21.959861    4.771163   -0.454857
    121          8           0      -21.102926    4.193573    0.223542
    122          8           0      -21.879660    6.106154   -0.868639
    123          6           0      -20.678012    6.826187   -0.379069
    124          1           0      -25.180246    0.004441    4.312059
    125          1           0      -25.810015   -4.781371    0.083908
    126          1           0      -23.276069   -1.287978   -4.535440
    127          1           0      -22.979506    3.738862    2.144079
    128          1           0      -25.476142    2.927180    3.728049
    129          1           0      -24.204546    2.787332    5.490393
    130          1           0      -22.728472    3.099309    4.565430
    131          1           0      -23.329970    1.457448    4.683405
    132          1           0      -25.680041    4.837470    2.586790
    133          1           0      -25.066718    4.872575    0.900598
    134          1           0      -24.612150    6.710112    2.831411
    135          1           0      -23.685894    6.481889    1.271871
    136          1           0      -26.688650   -1.052578    5.187397
    137          1           0      -26.080800   -2.689358    5.525949
    138          1           0      -27.761229   -2.462714    4.937806
    139          1           0      -28.167039   -4.453156    4.417218
    140          1           0      -26.567438   -4.845249    5.016835
    141          1           0      -27.511899   -6.163887    4.368001
    142          1           0      -26.136483   -4.705694   -2.778485
    143          1           0      -23.423827   -3.979778   -3.762404
    144          1           0      -23.545200   -5.409287   -1.349838
    145          1           0      -23.822360   -6.149686   -2.920010
    146          1           0      -24.879639   -6.535963   -1.568349
    147          1           0      -25.438719   -4.414179   -5.383325
    148          1           0      -24.538804   -3.041078   -5.681583
    149          1           0      -27.016121   -2.457927   -3.961411
    150          1           0      -27.103974   -2.742851   -5.748060
    151          1           0      -26.067026   -1.510679   -5.126866
    152          1           0      -22.642446    2.100925   -5.624225
    153          1           0      -22.393886    0.341056   -5.553844
    154          1           0      -21.200655    1.632647   -5.034735
    155          1           0      -23.839752    4.826980   -1.384192
    156          1           0      -19.778983    6.443392   -0.861422
    157          1           0      -20.491135    6.718549    0.688768
    158          1           0      -20.900201    7.889380   -0.472078
 ---------------------------------------------------------------------

 SCF Done:  E(RPBE1PBE) =  -4067.36050617     A.U. after   16 cycles

 Excitation energies and oscillator strengths:

 Excited State   1:      Singlet-A      1.8203 eV  681.12 nm  f=0.3567  <S**2>=0.000
     309 -> 315        0.17695
     312 -> 313        0.69235
     312 <- 313       -0.10910
 This state for optimization and/or second-order correction.
 Total Energy, E(TD-HF/TD-DFT) =  -4067.29361186
 Copying the excited state density for this state as the 1-particle RhoCI density.

 Excited State   2:      Singlet-A      1.8677 eV  663.84 nm  f=0.3649  <S**2>=0.000
     310 -> 316       -0.18707
     311 -> 314        0.68778

 Excited State   3:      Singlet-A      1.9837 eV  625.03 nm  f=0.0000  <S**2>=0.000
     312 -> 314        0.70711

 Excited State   4:      Singlet-A      2.0214 eV  613.35 nm  f=0.0000  <S**2>=0.000
     311 -> 313        0.70711

 Excited State   5:      Singlet-A      2.2069 eV  561.81 nm  f=0.1028  <S**2>=0.000
     310 -> 314        0.65388
     311 -> 316        0.25873

 The electronic state is 1-A.
 Alpha  occ. eigenvalues --  -46.93201 -46.91696 -19.25562 -19.25006 -19.19637
 Alpha  occ. eigenvalues --  -19.19613 -19.19599 -19.18695 -19.18255 -19.18133
 Alpha  occ. eigenvalues --  -14.42060 -14.41946 -14.41431 -14.41097 -14.39715
 Alpha  occ. eigenvalues --  -14.39531 -14.39400 -14.39296 -10.35682 -10.35498
 Alpha  occ. eigenvalues --  -10.32669 -10.32591 -10.31885 -10.30685 -10.29431
 Alpha  occ. eigenvalues --  -10.29410 -10.29219 -10.29169 -10.29071 -10.29018
 Alpha  occ. eigenvalues --  -10.28968 -10.28804 -10.28803 -10.28664 -10.28272
 Alpha  occ. eigenvalues --  -10.28227 -10.28168 -10.28083 -10.28071 -10.27817
 Alpha  occ. eigenvalues --  -10.27661 -10.26756 -10.26652 -10.26617 -10.26573
 Alpha  occ. eigenvalues --  -10.26535 -10.26397 -10.26285 -10.26220 -10.26198
 Alpha  occ. eigenvalues --  -10.26185 -10.26167 -10.26126 -10.25994 -10.25975
 Alpha  occ. eigenvalues --  -10.25971 -10.25932 -10.25828 -10.25506 -10.25475
 Alpha  occ. eigenvalues --  -10.25310 -10.25305 -10.25156 -10.25133 -10.25013
 Alpha  occ. eigenvalues --  -10.24934 -10.24902 -10.24885 -10.24559 -10.24475
 Alpha  occ. eigenvalues --  -10.24250 -10.24220 -10.24197 -10.23759 -10.23679
 Alpha  occ. eigenvalues --  -10.23674 -10.23640 -10.23556 -10.23453 -10.23412
 Alpha  occ. eigenvalues --  -10.23386 -10.23337 -10.23197 -10.22945 -10.22803
 Alpha  occ. eigenvalues --  -10.22014  -3.15124  -3.13963  -1.87978  -1.87533
 Alpha  occ. eigenvalues --   -1.87303  -1.86790  -1.86355  -1.86192  -1.10720
 Alpha  occ. eigenvalues --   -1.09166  -1.06128  -1.04808  -1.04317  -1.02866
 Alpha  occ. eigenvalues --   -1.01202  -1.00741  -1.00083  -0.98370  -0.98188
 Alpha  occ. eigenvalues --   -0.97721  -0.97596  -0.96846  -0.96601  -0.96359
 Alpha  occ. eigenvalues --   -0.86871  -0.85199  -0.84065  -0.83467  -0.83002
 Alpha  occ. eigenvalues --   -0.82384  -0.82269  -0.82047  -0.81691  -0.81401
 Alpha  occ. eigenvalues --   -0.81220  -0.81112  -0.80738  -0.79935  -0.78559
 Alpha  occ. eigenvalues --   -0.78371  -0.77843  -0.77698  -0.76844  -0.76618
 Alpha  occ. eigenvalues --   -0.76217  -0.75637  -0.75313  -0.75037  -0.74479
 Alpha  occ. eigenvalues --   -0.74398  -0.72442  -0.72405  -0.71888  -0.71594
 Alpha  occ. eigenvalues --   -0.71230  -0.70787  -0.70258  -0.70103  -0.69464
 Alpha  occ. eigenvalues --   -0.69322  -0.67078  -0.67037  -0.66067  -0.65995
 Alpha  occ. eigenvalues --   -0.64791  -0.64390  -0.63544  -0.63146  -0.62269
 Alpha  occ. eigenvalues --   -0.61947  -0.61226  -0.60637  -0.59870  -0.59796
 Alpha  occ. eigenvalues --   -0.59604  -0.59432  -0.59123  -0.59119  -0.58786
 Alpha  occ. eigenvalues --   -0.58633  -0.56380  -0.56096  -0.54599  -0.54125
 Alpha  occ. eigenvalues --   -0.54093  -0.53905  -0.53464  -0.53267  -0.52715
 Alpha  occ. eigenvalues --   -0.52458  -0.52372  -0.52132  -0.51946  -0.50836
 Alpha  occ. eigenvalues --   -0.50626  -0.50564  -0.50258  -0.49978  -0.49871
 Alpha  occ. eigenvalues --   -0.49616  -0.49440  -0.49135  -0.48487  -0.48171
 Alpha  occ. eigenvalues --   -0.47791  -0.47717  -0.47651  -0.47560  -0.47512
 Alpha  occ. eigenvalues --   -0.47313  -0.47243  -0.47206  -0.46942  -0.46622
 Alpha  occ. eigenvalues --   -0.46601  -0.46184  -0.46113  -0.45827  -0.45555
 Alpha  occ. eigenvalues --   -0.45510  -0.45444  -0.44833  -0.44699  -0.44465
 Alpha  occ. eigenvalues --   -0.44370  -0.44187  -0.44112  -0.43860  -0.43844
 Alpha  occ. eigenvalues --   -0.43827  -0.43768  -0.43544  -0.43527  -0.43351
 Alpha  occ. eigenvalues --   -0.43217  -0.43201  -0.43055  -0.42726  -0.42658
 Alpha  occ. eigenvalues --   -0.42496  -0.42222  -0.42190  -0.42135  -0.42016
 Alpha  occ. eigenvalues --   -0.41483  -0.41437  -0.41333  -0.41330  -0.41233
 Alpha  occ. eigenvalues --   -0.41045  -0.40899  -0.40896  -0.40608  -0.40551
 Alpha  occ. eigenvalues --   -0.40287  -0.40280  -0.39885  -0.39799  -0.39684
 Alpha  occ. eigenvalues --   -0.39478  -0.39206  -0.39118  -0.38984  -0.38802
 Alpha  occ. eigenvalues --   -0.38659  -0.38479  -0.38399  -0.38233  -0.38065
 Alpha  occ. eigenvalues --   -0.37993  -0.37921  -0.37857  -0.37753  -0.37648
 Alpha  occ. eigenvalues --   -0.37394  -0.37210  -0.37208  -0.36954  -0.36762
 Alpha  occ. eigenvalues --   -0.36714  -0.36688  -0.36513  -0.36215  -0.36197
 Alpha  occ. eigenvalues --   -0.36068  -0.35967  -0.35715  -0.35506  -0.35250
 Alpha  occ. eigenvalues --   -0.35125  -0.35030  -0.34667  -0.34527  -0.34064
 Alpha  occ. eigenvalues --   -0.34008  -0.33548  -0.33041  -0.32513  -0.31938
 Alpha  occ. eigenvalues --   -0.31708  -0.31707  -0.31500  -0.31077  -0.31065
 Alpha  occ. eigenvalues --   -0.30645  -0.30573  -0.29137  -0.29094  -0.28675
 Alpha  occ. eigenvalues --   -0.28656  -0.28461  -0.27614  -0.26901  -0.26861
 Alpha  occ. eigenvalues --   -0.26065  -0.25828  -0.25757  -0.25666  -0.25626
 Alpha  occ. eigenvalues --   -0.25507  -0.25507  -0.25187  -0.21026  -0.20715
 Alpha  occ. eigenvalues --   -0.18843  -0.18623
 Alpha virt. eigenvalues --   -0.11142  -0.11064  -0.05482  -0.05270  -0.04039
 Alpha virt. eigenvalues --   -0.03579  -0.02075  -0.02042  -0.00171   0.00363
 Alpha virt. eigenvalues --    0.00619   0.00876   0.01375   0.01474   0.01755

 Mulliken charges:
               1
     1  Mg  12.000227
     2  C    5.983151
     3  C    6.014554
     4  C    6.020954
     5  C    5.999192
     6  N    6.990924
     7  C    6.025968
     8  C    5.995397
     9  C    6.005732
    10  C    5.970161
    11  C    6.001926
    12  C    5.994959
    13  C    5.998374
    14  H    1.000144
    15  N    7.004396
    16  C    5.958403
    17  C    5.984498
    18  C    5.983094
    19  C    5.965827
    20  C    6.005312
    21  C    5.987417
    22  O    7.974635
    23  C    6.003094
    24  N    7.011193
    25  C    5.962818
    26  C    6.006198
    27  C    5.996070
    28  C    6.031110
    29  C    6.004485
    30  C    5.995143
    31  C    5.994486
    32  N    6.997734
    33  C    6.032548
    34  C    6.028496
    35  C    6.002395
    36  C    6.029638
    37  C    5.999530
    38  C    6.015680
    39  O    8.026810
    40  C    6.002007
    41  C    6.003367
    42  O    8.005303
    43  O    8.000109
    44  C    5.998135
    45  H    0.989943
    46  H    0.993741
    47  H    1.011723
    48  H    0.996393
    49  H    1.001294
    50  H    0.997462
    51  H    0.988285
    52  H    1.002325
    53  H    1.008540
    54  H    0.996503
    55  H    0.996746
    56  H    1.005253
    57  H    0.983960
    58  H    0.981440
    59  H    0.982630
    60  H    0.992758
    61  H    0.995263
    62  H    0.986909
    63  H    1.002763
    64  H    0.997860
    65  H    1.000542
    66  H    1.001533
    67  H    0.987850
    68  H    1.009519
    69  H    0.996071
    70  H    1.010262
    71  H    1.007834
    72  H    0.996195
    73  H    1.013479
    74  H    1.017018
    75  H    1.017013
    76  H    1.008440
    77  H    1.004304
    78  H    1.005045
    79  H    1.001513
    80  Mg  12.000003
    81  C    6.000053
    82  C    6.000083
    83  C    5.999943
    84  C    5.999917
    85  N    7.000022
    86  C    5.999934
    87  C    6.000017
    88  C    5.999977
    89  C    5.999987
    90  C    5.999991
    91  C    6.000001
    92  C    5.999996
    93  H    1.000033
    94  N    6.999998
    95  C    5.999982
    96  C    6.000037
    97  C    5.999959
    98  C    6.000077
    99  C    6.000002
   100  C    6.000050
   101  O    8.000033
   102  C    5.999987
   103  N    6.999992
   104  C    6.000061
   105  C    5.999968
   106  C    6.000005
   107  C    6.000032
   108  C    5.999995
   109  C    6.000008
   110  C    6.000009
   111  N    6.999992
   112  C    6.000026
   113  C    5.999955
   114  C    6.000034
   115  C    5.999940
   116  C    6.000003
   117  C    5.999970
   118  O    7.999949
   119  C    6.000004
   120  C    5.999989
   121  O    8.000018
   122  O    7.999989
   123  C    5.999996
   124  H    1.000018
   125  H    1.000021
   126  H    0.999986
   127  H    1.000025
   128  H    0.999991
   129  H    1.000001
   130  H    1.000044
   131  H    1.000025
   132  H    0.999968
   133  H    0.999993
   134  H    0.999976
   135  H    0.999997
   136  H    1.000022
   137  H    1.000056
   138  H    1.000002
   139  H    0.999991
   140  H    1.000038
   141  H    1.000025
   142  H    0.999978
   143  H    1.000018
   144  H    1.000029
   145  H    1.000021
   146  H    0.999990
   147  H    0.999972
   148  H    1.000000
   149  H    0.999980
   150  H    0.999961
   151  H    1.000008
   152  H    0.999939
   153  H    0.999961
   154  H    0.999985
   155  H    0.999962
   156  H    1.000019
   157  H    1.000011
   158  H    0.999968
 Sum of Mulliken charges = 624.00000

 Dipole moment (field-independent basis, Debye):
    X=              6.3032    Y=              3.7694    Z=             -7.0298  Tot=             10.1665
 Quadrupole moment (field-independent basis, Debye-Ang):
   XX=            302.9860   YY=             -4.4379   ZZ=             -2.4619
   XY=             84.7313   XZ=           -168.9113   YZ=              7.5736

 Normal termination of Gaussian 16 at Thu Oct 14 14:38:28 2021.
