 Gaussian 16, Revision A.03,
 Gaussian 16:  ES64L-G16RevA.03 25-Dec-2016

 --------------------------------------------------------
 #p PBE1PBE/Def2SVP td=(nstates=5) density=(transition=1)
 --------------------------------------------------------

 --------------------------------
 TDDFT excited states in gaussian
 --------------------------------
 Symbolic Z-matrix:
 Charge =  0 Multiplicity = 1

                         Standard orientation:
 ---------------------------------------------------------------------
 Center     Atomic      Atomic             Coordinates (Angstroms)
 Number     Number       Type             X           Y           Z
 ---------------------------------------------------------------------
      1         12           0       -4.019051   -0.501546    1.223678
      2          6           0       -5.368558    2.415331   -0.258616
      3          6           0       -1.742312    1.452898    2.768304
      4          6           0       -2.727760   -3.245911    2.456293
      5          6           0       -6.022439   -2.395372   -1.071471
      6          7           0       -3.507807    1.721357    1.188608
      7          6           0       -4.376459    2.686371    0.706980
      8          6           0       -3.931010    3.990452    1.275099
      9          6           0       -2.498182    3.741139    1.746971
     10          6           0       -2.542780    2.206658    1.955488
     11          6           0       -1.461892    4.118268    0.622879
     12          6           0       -4.846657    4.624257    2.455128
     13          6           0       -5.170104    6.149691    2.472116
     14          1           0       -3.968120    7.122671    2.298906
     15          7           0       -2.412109   -0.815633    2.454993
     16          6           0       -1.647401    0.099660    2.973200
     17          6           0       -0.605000   -0.567927    3.771960
     18          6           0       -0.977475   -1.941256    3.890183
     19          6           0       -2.073803   -2.068307    2.888399
     20          6           0        0.670722    0.058973    4.443477
     21          6           0       -0.434833   -3.070531    4.765477
     22          8           0       -0.788180   -4.261586    4.672240
     23          6           0        0.707555   -2.792065    5.622137
     24          7           0       -4.244279   -2.577173    0.593853
     25          6           0       -3.649865   -3.554109    1.388237
     26          6           0       -4.241556   -4.962114    0.993684
     27          6           0       -5.363708   -4.606627   -0.013282
     28          6           0       -5.243806   -3.087731   -0.156389
     29          6           0       -3.171640   -5.951859    0.531885
     30          6           0       -6.778928   -5.140324    0.323081
     31          6           0       -7.647337   -5.664978   -0.844120
     32          7           0       -5.399132   -0.130587   -0.356226
     33          6           0       -6.086046   -0.975555   -1.222179
     34          6           0       -7.009525   -0.185715   -1.996324
     35          6           0       -6.720048    1.145144   -1.691429
     36          6           0       -5.732895    1.161440   -0.667765
     37          6           0       -8.008171   -0.657704   -2.862469
     38          6           0       -7.091993    2.546999   -1.933209
     39          8           0       -7.938198    3.070296   -2.640654
     40          6           0       -6.227517    3.429786   -0.974694
     41          6           0       -5.473265    4.426204   -1.836957
     42          8           0       -4.439668    4.369350   -2.463893
     43          8           0       -6.217532    5.558008   -1.668885
     44          6           0       -5.615195    6.847528   -2.083388
     45          1           0       -1.055952    2.078698    3.343200
     46          1           0       -2.410851   -4.111985    3.040938
     47          1           0       -6.792434   -2.950846   -1.610071
     48          1           0       -3.893446    4.827938    0.578014
     49          1           0       -2.302281    4.156006    2.735412
     50          1           0       -0.513231    4.494053    1.004702
     51          1           0       -1.785708    4.954005    0.002082
     52          1           0       -1.265780    3.183042    0.099597
     53          1           0       -4.462435    4.299714    3.421597
     54          1           0       -5.820805    4.133884    2.462197
     55          1           0       -5.513796    6.297923    3.496480
     56          1           0       -5.922131    6.221957    1.686374
     57          1           0        0.657472    0.090336    5.532710
     58          1           0        0.764092    1.074207    4.056864
     59          1           0        1.595693   -0.497996    4.293862
     60          1           0        0.508026   -1.940602    6.273286
     61          1           0        1.599189   -2.594935    5.026830
     62          1           0        0.781257   -3.620441    6.326059
     63          1           0       -4.770790   -5.320610    1.876700
     64          1           0       -5.082371   -4.908148   -1.022074
     65          1           0       -3.035553   -5.851811   -0.545453
     66          1           0       -3.437553   -7.000443    0.661679
     67          1           0       -2.200998   -5.620556    0.899453
     68          1           0       -7.381660   -4.455547    0.919450
     69          1           0       -6.724591   -5.964813    1.035242
     70          1           0       -8.297107   -4.824498   -1.088468
     71          1           0       -8.262131   -6.448400   -0.399809
     72          1           0       -7.014256   -5.966361   -1.678221
     73          1           0       -8.393454   -0.014316   -3.653164
     74          1           0       -8.818712   -1.025347   -2.232427
     75          1           0       -7.552093   -1.489394   -3.398266
     76          1           0       -6.869227    3.936946   -0.254446
     77          1           0       -5.858557    7.535543   -1.274260
     78          1           0       -5.996598    7.283024   -3.006606
     79          1           0       -4.531563    6.749664   -2.143177
     80         12           0        3.773473   -0.797107   -1.204888
     81          6           0        5.756428    1.991031   -0.148684
     82          6           0        0.954321    1.129217   -0.836703
     83          6           0        1.796183   -3.483376   -1.736018
     84          6           0        6.590677   -2.827847   -0.587788
     85          7           0        3.432739    1.309485   -0.578034
     86          6           0        4.366409    2.306980   -0.255797
     87          6           0        3.640554    3.609772   -0.037726
     88          6           0        2.153523    3.127721    0.235107
     89          6           0        2.178129    1.703184   -0.392852
     90          6           0        1.931686    3.103185    1.789471
     91          6           0        3.852907    4.663428   -1.181428
     92          6           0        4.094192    5.974462   -0.622625
     93          1           0        4.674214    7.060409   -1.661382
     94          7           0        1.661251   -1.004449   -1.431052
     95          6           0        0.693680   -0.092504   -1.277885
     96          6           0       -0.563710   -0.672060   -1.638297
     97          6           0       -0.366152   -2.013948   -1.887656
     98          6           0        1.144104   -2.250826   -1.742902
     99          6           0       -1.908415    0.111272   -1.506914
    100          6           0       -1.385439   -3.077774   -2.344529
    101          8           0       -1.020579   -4.218381   -2.478149
    102          6           0       -2.798340   -2.688124   -2.710018
    103          7           0        4.117663   -2.886994   -0.890292
    104          6           0        3.142924   -3.777866   -1.325993
    105          6           0        3.702974   -5.157419   -1.450906
    106          6           0        5.257589   -4.952156   -1.103025
    107          6           0        5.363708   -3.458335   -0.905463
    108          6           0        2.976988   -6.162489   -0.622024
    109          6           0        6.346217   -5.516694   -2.171307
    110          6           0        7.291514   -6.557885   -1.717793
    111          7           0        5.795362   -0.537596   -0.561424
    112          6           0        6.781624   -1.478357   -0.367802
    113          6           0        8.061371   -0.738666    0.016828
    114          6           0        7.736420    0.632635    0.003591
    115          6           0        6.331978    0.698513   -0.302626
    116          6           0        9.390840   -1.422796    0.363254
    117          6           0        8.272350    1.917967    0.335511
    118          8           0        9.427818    2.249121    0.684848
    119          6           0        6.985990    2.837966    0.420118
    120          6           0        7.369114    4.151309   -0.325974
    121          8           0        6.985387    4.355657   -1.492267
    122          8           0        8.049763    4.973498    0.509782
    123          6           0        8.582218    6.133717   -0.284249
    124          1           0        0.084154    1.781368   -0.940131
    125          1           0        1.180294   -4.365707   -1.925663
    126          1           0        7.537866   -3.357953   -0.469407
    127          1           0        4.006182    3.994524    0.914046
    128          1           0        1.422408    3.799264   -0.213604
    129          1           0        2.430371    2.272509    2.288246
    130          1           0        0.861176    3.105574    1.990214
    131          1           0        2.317078    4.031303    2.212214
    132          1           0        2.885630    4.778716   -1.671074
    133          1           0        4.600183    4.336676   -1.904945
    134          1           0        4.911099    5.950124    0.098804
    135          1           0        3.152124    6.328389   -0.203158
    136          1           0       -2.333038    0.031185   -2.507566
    137          1           0       -1.802148    1.170668   -1.273972
    138          1           0       -2.517306   -0.328817   -0.717296
    139          1           0       -3.395689   -3.573843   -2.926585
    140          1           0       -2.537870   -2.099443   -3.589572
    141          1           0       -3.212951   -2.107770   -1.885819
    142          1           0        3.579675   -5.365781   -2.513842
    143          1           0        5.435722   -5.476039   -0.164252
    144          1           0        2.453816   -6.783113   -1.348395
    145          1           0        2.182071   -5.723665   -0.019188
    146          1           0        3.598930   -6.760063    0.044850
    147          1           0        6.951453   -4.630659   -2.362767
    148          1           0        5.809860   -5.772177   -3.084199
    149          1           0        8.319690   -6.198531   -1.751623
    150          1           0        7.148231   -7.228975   -2.563985
    151          1           0        6.974154   -7.059497   -0.802570
    152          1           0        9.389775   -1.532218    1.447170
    153          1           0       10.255860   -0.834396    0.057417
    154          1           0        9.453218   -2.367906   -0.176223
    155          1           0        6.864337    2.989624    1.491769
    156          1           0        9.430501    5.899133   -0.927071
    157          1           0        8.861682    7.003208    0.309830
    158          1           0        7.738330    6.492894   -0.873613
 ---------------------------------------------------------------------

 SCF Done:  E(RPBE1PBE) =  -4067.34163524     A.U. after   16 cycles

 Excitation energies and oscillator strengths:

 Excited State   1:      Singlet-A      1.3257 eV  935.26 nm  f=0.0004  <S**2>=0.000
     312 -> 313        0.70676
 This state for optimization and/or second-order correction.
 Total Energy, E(TD-HF/TD-DFT) =  -4067.29291800
 Copying the excited state density for this state as the 1-particle RhoCI density.

 Excited State   2:      Singlet-A      1.8271 eV  678.60 nm  f=0.3496  <S**2>=0.000
     310 -> 316        0.17804
     312 -> 314        0.68903

 Excited State   3:      Singlet-A      1.8713 eV  662.57 nm  f=0.3653  <S**2>=0.000
     309 -> 315        0.17464
     311 -> 313        0.68919

 Excited State   4:      Singlet-A      2.0180 eV  614.38 nm  f=0.0005  <S**2>=0.000
     311 -> 314        0.70587

 Excited State   5:      Singlet-A      2.1471 eV  577.44 nm  f=0.0005  <S**2>=0.000
     310 -> 313        0.70482

 The electronic state is 1-A.
 Alpha  occ. eigenvalues --  -46.93369 -46.92635 -19.26806 -19.25567 -19.20844
 Alpha  occ. eigenvalues --  -19.20012 -19.19692 -19.19422 -19.19177 -19.19062
 Alpha  occ. eigenvalues --  -14.41920 -14.41590 -14.41545 -14.41317 -14.39940
 Alpha  occ. eigenvalues --  -14.39302 -14.38778 -14.38687 -10.36812 -10.36729
 Alpha  occ. eigenvalues --  -10.32836 -10.32504 -10.32198 -10.32106 -10.29958
 Alpha  occ. eigenvalues --  -10.29163 -10.29126 -10.28880 -10.28773 -10.28760
 Alpha  occ. eigenvalues --  -10.28753 -10.28686 -10.28611 -10.28383 -10.28348
 Alpha  occ. eigenvalues --  -10.28276 -10.28076 -10.27900 -10.27822 -10.27506
 Alpha  occ. eigenvalues --  -10.27050 -10.26632 -10.26517 -10.26497 -10.26352
 Alpha  occ. eigenvalues --  -10.26157 -10.26093 -10.26061 -10.26026 -10.25983
 Alpha  occ. eigenvalues --  -10.25891 -10.25882 -10.25851 -10.25753 -10.25708
 Alpha  occ. eigenvalues --  -10.25546 -10.25511 -10.25462 -10.25388 -10.25284
 Alpha  occ. eigenvalues --  -10.25230 -10.25144 -10.24899 -10.24813 -10.24737
 Alpha  occ. eigenvalues --  -10.24648 -10.24626 -10.24363 -10.24291 -10.24276
 Alpha  occ. eigenvalues --  -10.23991 -10.23906 -10.23875 -10.23549 -10.23484
 Alpha  occ. eigenvalues --  -10.23477 -10.23458 -10.23438 -10.23203 -10.23141
 Alpha  occ. eigenvalues --  -10.23117 -10.22848 -10.22767 -10.22646 -10.22611
 Alpha  occ. eigenvalues --  -10.22396  -3.15373  -3.14557  -1.88229  -1.87741
 Alpha  occ. eigenvalues --   -1.87579  -1.87392  -1.86918  -1.86779  -1.11429
 Alpha  occ. eigenvalues --   -1.10812  -1.05945  -1.04852  -1.04268  -1.03158
 Alpha  occ. eigenvalues --   -1.02629  -1.01921  -1.00304  -0.99175  -0.98375
 Alpha  occ. eigenvalues --   -0.98261  -0.97406  -0.97317  -0.97191  -0.96094
 Alpha  occ. eigenvalues --   -0.87719  -0.85552  -0.83608  -0.83240  -0.83110
 Alpha  occ. eigenvalues --   -0.82852  -0.82751  -0.82411  -0.82338  -0.81821
 Alpha  occ. eigenvalues --   -0.81555  -0.81419  -0.81105  -0.79789  -0.79068
 Alpha  occ. eigenvalues --   -0.78618  -0.78212  -0.78055  -0.77508  -0.76842
 Alpha  occ. eigenvalues --   -0.76753  -0.76321  -0.75937  -0.75482  -0.74827
 Alpha  occ. eigenvalues --   -0.74695  -0.73050  -0.72100  -0.72053  -0.71950
 Alpha  occ. eigenvalues --   -0.71541  -0.70857  -0.70682  -0.69936  -0.69779
 Alpha  occ. eigenvalues --   -0.69108  -0.67509  -0.66787  -0.66479  -0.65798
 Alpha  occ. eigenvalues --   -0.63704  -0.63425  -0.62939  -0.62639  -0.62205
 Alpha  occ. eigenvalues --   -0.62196  -0.61697  -0.60590  -0.60473  -0.60206
 Alpha  occ. eigenvalues --   -0.60025  -0.59439  -0.59412  -0.59225  -0.58875
 Alpha  occ. eigenvalues --   -0.58650  -0.57030  -0.56594  -0.55396  -0.54793
 Alpha  occ. eigenvalues --   -0.54356  -0.54111  -0.53615  -0.53398  -0.52923
 Alpha  occ. eigenvalues --   -0.52807  -0.52692  -0.52563  -0.51872  -0.51447
 Alpha  occ. eigenvalues --   -0.51195  -0.50882  -0.50299  -0.50207  -0.49935
 Alpha  occ. eigenvalues --   -0.49566  -0.49459  -0.48872  -0.48824  -0.48676
 Alpha  occ. eigenvalues --   -0.48440  -0.48350  -0.48174  -0.47908  -0.47655
 Alpha  occ. eigenvalues --   -0.47635  -0.47486  -0.47436  -0.47207  -0.47196
 Alpha  occ. eigenvalues --   -0.47039  -0.46897  -0.46638  -0.46434  -0.46303
 Alpha  occ. eigenvalues --   -0.46245  -0.45675  -0.45452  -0.45347  -0.45122
 Alpha  occ. eigenvalues --   -0.44937  -0.44920  -0.44747  -0.44578  -0.44444
 Alpha  occ. eigenvalues --   -0.44335  -0.44136  -0.43903  -0.43773  -0.43682
 Alpha  occ. eigenvalues --   -0.43328  -0.43226  -0.43069  -0.42946  -0.42721
 Alpha  occ. eigenvalues --   -0.42545  -0.42475  -0.42214  -0.42191  -0.41973
 Alpha  occ. eigenvalues --   -0.41696  -0.41627  -0.41508  -0.41264  -0.41146
 Alpha  occ. eigenvalues --   -0.41016  -0.40824  -0.40815  -0.40739  -0.40440
 Alpha  occ. eigenvalues --   -0.40214  -0.40152  -0.39978  -0.39918  -0.39632
 Alpha  occ. eigenvalues --   -0.39370  -0.39284  -0.39201  -0.38962  -0.38900
 Alpha  occ. eigenvalues --   -0.38689  -0.38439  -0.38382  -0.38324  -0.38235
 Alpha  occ. eigenvalues --   -0.38176  -0.38018  -0.37818  -0.37726  -0.37382
 Alpha  occ. eigenvalues --   -0.37314  -0.37243  -0.37123  -0.37027  -0.36882
 Alpha  occ. eigenvalues --   -0.36771  -0.36757  -0.36610  -0.36324  -0.36160
 Alpha  occ. eigenvalues --   -0.36009  -0.35925  -0.35516  -0.35386  -0.35274
 Alpha  occ. eigenvalues --   -0.35040  -0.34901  -0.34559  -0.33979  -0.33615
 Alpha  occ. eigenvalues --   -0.33399  -0.33125  -0.32902  -0.32809  -0.32150
 Alpha  occ. eigenvalues --   -0.32142  -0.31929  -0.31906  -0.31855  -0.31510
 Alpha  occ. eigenvalues --   -0.31035  -0.30153  -0.29879  -0.29691  -0.29173
 Alpha  occ. eigenvalues --   -0.29119  -0.28856  -0.28256  -0.27363  -0.26873
 Alpha  occ. eigenvalues --   -0.26816  -0.26246  -0.25865  -0.25805  -0.25616
 Alpha  occ. eigenvalues --   -0.25507  -0.25340  -0.24939  -0.21469  -0.20878
 Alpha  occ. eigenvalues --   -0.19146  -0.17756
 Alpha virt. eigenvalues --   -0.11346  -0.10059  -0.06075  -0.05720  -0.04724
 Alpha virt. eigenvalues --   -0.04076  -0.02679  -0.01760  -0.01366  -0.00726
 Alpha virt. eigenvalues --    0.00522   0.00622   0.00732   0.00989   0.01134

 Mulliken charges:
               1
     1  Mg  12.000023
     2  C    5.999419
     3  C    5.998648
     4  C    6.000308
     5  C    6.000744
     6  N    6.999111
     7  C    5.999770
     8  C    6.000117
     9  C    5.999862
    10  C    6.000961
    11  C    6.000338
    12  C    6.000090
    13  C    6.000052
    14  H    0.999713
    15  N    7.000143
    16  C    6.000107
    17  C    6.000194
    18  C    5.999929
    19  C    5.999851
    20  C    5.999959
    21  C    5.999940
    22  O    7.999903
    23  C    6.000057
    24  N    7.000598
    25  C    5.999727
    26  C    6.000037
    27  C    6.000110
    28  C    5.999505
    29  C    6.000160
    30  C    6.000013
    31  C    5.999991
    32  N    6.999720
    33  C    5.999727
    34  C    5.999108
    35  C    6.000183
    36  C    5.999468
    37  C    6.000199
    38  C    5.999832
    39  O    7.999662
    40  C    6.000132
    41  C    5.999940
    42  O    7.999785
    43  O    7.999995
    44  C    6.000063
    45  H    0.999946
    46  H    0.999906
    47  H    1.000074
    48  H    0.999807
    49  H    0.999890
    50  H    0.999770
    51  H    0.999788
    52  H    1.000040
    53  H    0.999768
    54  H    0.999980
    55  H    0.999855
    56  H    1.000023
    57  H    1.000248
    58  H    0.999940
    59  H    0.999694
    60  H    0.999971
    61  H    0.999839
    62  H    0.999921
    63  H    0.999939
    64  H    0.999916
    65  H    0.999853
    66  H    0.999882
    67  H    0.999828
    68  H    1.000016
    69  H    0.999892
    70  H    1.000084
    71  H    0.999919
    72  H    0.999948
    73  H    0.999629
    74  H    0.999536
    75  H    0.999562
    76  H    0.999760
    77  H    0.999882
    78  H    0.999842
    79  H    0.999880
    80  Mg  12.000310
    81  C    5.999900
    82  C    6.000379
    83  C    5.999956
    84  C    5.999719
    85  N    6.999786
    86  C    6.000665
    87  C    5.999691
    88  C    5.999970
    89  C    6.000311
    90  C    6.001411
    91  C    6.000014
    92  C    5.999860
    93  H    1.000241
    94  N    7.000209
    95  C    5.998338
    96  C    6.001161
    97  C    6.000196
    98  C    6.000101
    99  C    5.999910
   100  C    5.999793
   101  O    7.999785
   102  C    6.000012
   103  N    6.999822
   104  C    6.000396
   105  C    5.999954
   106  C    5.999684
   107  C    6.000774
   108  C    5.999917
   109  C    5.999971
   110  C    5.999907
   111  N    7.000012
   112  C    6.000651
   113  C    6.000428
   114  C    6.000062
   115  C    6.000337
   116  C    5.999953
   117  C    6.000312
   118  O    8.000474
   119  C    5.999895
   120  C    6.000079
   121  O    8.000138
   122  O    8.000005
   123  C    5.999955
   124  H    1.000013
   125  H    1.000155
   126  H    1.000259
   127  H    1.000125
   128  H    1.000160
   129  H    0.999793
   130  H    0.998995
   131  H    0.999614
   132  H    1.000290
   133  H    1.000035
   134  H    0.999988
   135  H    1.000239
   136  H    0.999838
   137  H    1.000165
   138  H    0.999805
   139  H    0.999951
   140  H    0.999946
   141  H    1.000196
   142  H    1.000240
   143  H    1.000310
   144  H    1.000185
   145  H    1.000164
   146  H    1.000090
   147  H    0.999998
   148  H    1.000228
   149  H    1.000061
   150  H    1.000174
   151  H    1.000125
   152  H    1.000336
   153  H    1.000301
   154  H    1.000243
   155  H    1.000220
   156  H    1.000059
   157  H    1.000151
   158  H    1.000082
 Sum of Mulliken charges = 624.00000

 Dipole moment (field-independent basis, Debye):
    X=              0.3993    Y=             -0.0623    Z=             -0.0089  Tot=              0.4042
 Quadrupole moment (field-independent basis, Debye-Ang):
   XX=              0.4974   YY=              0.0958   ZZ=             -0.1360
   XY=              0.1470   XZ=             -0.2788   YZ=              0.0468

 Normal termination of Gaussian 16 at Thu Oct 14 18:42:07 2021.
