 Gaussian 16, Revision A.03,
 Gaussian 16:  ES64L-G16RevA.03 25-Dec-2016

 --------------------------------------------------------
 #p PBE1PBE/Def2SVP td=(nstates=5) density=(transition=1)
 --------------------------------------------------------

 --------------------------------
 TDDFT excited states in gaussian
 --------------------------------
 Symbolic Z-matrix:
 Charge =  0 Multiplicity = 1

                         Standard orientation:
 ---------------------------------------------------------------------
 Center     Atomic      Atomic             Coordinates (Angstroms)
 Number     Number       Type             X           Y           Z
 ---------------------------------------------------------------------
      1         12           0       24.930714    0.628816   -0.421416
      2          6           0       26.014619   -1.925779    1.674440
      3          6           0       23.376447   -1.707723   -2.388065
      4          6           0       24.173653    3.134810   -2.603407
      5          6           0       26.826600    2.833090    1.623119
      6          7           0       24.749182   -1.556141   -0.384516
      7          6           0       25.180297   -2.350763    0.644802
      8          6           0       24.688174   -3.766561    0.334442
      9          6           0       24.133970   -3.710353   -1.077993
     10          6           0       24.047479   -2.202498   -1.285031
     11          6           0       24.845600   -4.430057   -2.192036
     12          6           0       23.690531   -4.403065    1.415098
     13          6           0       23.011454   -5.749695    1.006329
     14          1           0       23.710308   -7.079813    1.391625
     15          7           0       23.792341    0.698129   -2.155235
     16          6           0       23.266865   -0.359765   -2.821779
     17          6           0       22.651053    0.167457   -4.011686
     18          6           0       22.893379    1.571511   -4.067552
     19          6           0       23.661618    1.866206   -2.942691
     20          6           0       21.923267   -0.740484   -4.954421
     21          6           0       22.522244    2.525375   -5.240183
     22          8           0       23.053381    3.613135   -5.375242
     23          6           0       21.620328    2.159339   -6.320201
     24          7           0       25.408207    2.565866   -0.455612
     25          6           0       24.954136    3.454823   -1.429423
     26          6           0       25.406287    4.901277   -1.163822
     27          6           0       25.976782    4.790861    0.291015
     28          6           0       26.029973    3.288586    0.515081
     29          6           0       26.194008    5.552956   -2.223877
     30          6           0       25.249745    5.606355    1.497875
     31          6           0       26.024987    6.643458    2.315962
     32          7           0       26.259647    0.505877    1.322390
     33          6           0       26.938720    1.486914    1.988918
     34          6           0       27.667906    0.952771    3.089441
     35          6           0       27.270779   -0.438671    3.064124
     36          6           0       26.478320   -0.656881    1.902419
     37          6           0       28.488900    1.762110    4.019497
     38          6           0       27.356756   -1.678767    3.800589
     39          8           0       27.851224   -1.998322    4.863837
     40          6           0       26.510615   -2.729170    2.867583
     41          6           0       27.289963   -3.963274    2.592983
     42          8           0       28.295451   -3.987606    1.917608
     43          8           0       26.748187   -5.052784    3.165075
     44          6           0       27.300011   -6.399354    2.749871
     45          1           0       22.834346   -2.441085   -2.989157
     46          1           0       23.923141    3.917598   -3.322153
     47          1           0       27.318571    3.664187    2.133080
     48          1           0       25.635554   -4.304065    0.372776
     49          1           0       23.144298   -4.166165   -1.094213
     50          1           0       25.274733   -3.570018   -2.705199
     51          1           0       24.174261   -5.045014   -2.791570
     52          1           0       25.702267   -5.003108   -1.836652
     53          1           0       22.940797   -3.616917    1.506866
     54          1           0       24.214771   -4.553362    2.358123
     55          1           0       22.897811   -5.831330   -0.073926
     56          1           0       22.006894   -5.757249    1.429276
     57          1           0       21.800675   -1.786854   -4.673076
     58          1           0       22.534960   -0.774892   -5.855339
     59          1           0       20.959167   -0.343058   -5.272312
     60          1           0       21.744358    1.207847   -6.836268
     61          1           0       21.493673    2.910081   -7.100121
     62          1           0       20.652947    2.179323   -5.818766
     63          1           0       24.414321    5.351338   -1.115930
     64          1           0       27.003952    5.095348    0.090884
     65          1           0       25.745731    6.418372   -2.712683
     66          1           0       26.394839    4.802423   -2.988830
     67          1           0       27.150206    5.952321   -1.886039
     68          1           0       24.883176    4.869110    2.211902
     69          1           0       24.347341    6.167595    1.252479
     70          1           0       26.328020    6.311625    3.309359
     71          1           0       25.580193    7.638004    2.334248
     72          1           0       26.995492    6.772212    1.836554
     73          1           0       29.097458    2.449870    3.432824
     74          1           0       29.086333    1.150153    4.694748
     75          1           0       27.819175    2.472052    4.505898
     76          1           0       25.658393   -3.030425    3.475873
     77          1           0       26.985941   -7.035502    3.577076
     78          1           0       28.383322   -6.319460    2.661842
     79          1           0       26.777521   -6.681128    1.835582
     80         12           0      -24.781715    0.717485    0.442023
     81          6           0      -25.329942   -2.008141   -1.817453
     82          6           0      -24.433648   -1.732717    2.955771
     83          6           0      -24.973864    3.043278    2.735042
     84          6           0      -25.507620    2.888392   -2.072473
     85          7           0      -24.826931   -1.594886    0.507725
     86          6           0      -24.960002   -2.402287   -0.571947
     87          6           0      -24.701112   -3.836308   -0.140211
     88          6           0      -24.377211   -3.829053    1.380380
     89          6           0      -24.515557   -2.317394    1.644819
     90          6           0      -25.361094   -4.784351    2.264361
     91          6           0      -23.506411   -4.512926   -0.939401
     92          6           0      -23.766240   -5.909253   -1.505709
     93          1           0      -24.705694   -6.933121   -0.750749
     94          7           0      -24.765121    0.654631    2.578727
     95          6           0      -24.591593   -0.394280    3.354638
     96          6           0      -24.626772    0.067403    4.713704
     97          6           0      -24.633594    1.485057    4.742484
     98          6           0      -24.830488    1.776148    3.346550
     99          6           0      -24.352660   -0.849702    5.904478
    100          6           0      -24.409187    2.527592    5.826527
    101          8           0      -24.531777    3.723026    5.631779
    102          6           0      -23.959561    2.005095    7.163230
    103          7           0      -25.534281    2.621310    0.364700
    104          6           0      -25.305065    3.470522    1.448857
    105          6           0      -25.393312    4.974784    1.073477
    106          6           0      -25.399965    4.840955   -0.496046
    107          6           0      -25.483160    3.340137   -0.774165
    108          6           0      -26.637458    5.622659    1.698231
    109          6           0      -24.061397    5.380595   -1.190526
    110          6           0      -24.111948    6.683004   -1.916597
    111          7           0      -25.190626    0.532539   -1.525695
    112          6           0      -25.500532    1.527383   -2.427685
    113          6           0      -25.890797    1.005453   -3.734795
    114          6           0      -25.834600   -0.422082   -3.549957
    115          6           0      -25.533725   -0.644441   -2.185438
    116          6           0      -26.055809    1.840310   -4.952876
    117          6           0      -25.917279   -1.712795   -4.216113
    118          8           0      -26.141520   -1.922249   -5.422210
    119          6           0      -25.613944   -2.846350   -3.080136
    120          6           0      -26.832656   -3.636822   -3.009125
    121          8           0      -27.926192   -3.168799   -2.778736
    122          8           0      -26.587798   -4.935916   -3.217373
    123          6           0      -27.679609   -5.958792   -3.255146
    124          1           0      -24.244620   -2.446936    3.759787
    125          1           0      -24.640969    3.891825    3.337461
    126          1           0      -25.650502    3.625040   -2.865473
    127          1           0      -25.629511   -4.386902   -0.292019
    128          1           0      -23.398318   -4.260050    1.591089
    129          1           0      -25.808608   -5.560618    1.643607
    130          1           0      -26.103384   -4.104760    2.683806
    131          1           0      -24.798130   -5.233531    3.082373
    132          1           0      -22.555508   -4.545483   -0.409351
    133          1           0      -23.281592   -3.912597   -1.820886
    134          1           0      -22.836134   -6.447029   -1.690764
    135          1           0      -24.158932   -5.693015   -2.499262
    136          1           0      -23.323529   -0.820726    6.262844
    137          1           0      -24.709850   -1.863630    5.721786
    138          1           0      -25.001938   -0.500376    6.706973
    139          1           0      -23.220701    1.204090    7.124660
    140          1           0      -24.759091    1.627189    7.798910
    141          1           0      -23.351408    2.766446    7.651763
    142          1           0      -24.497223    5.457625    1.462381
    143          1           0      -26.254850    5.401566   -0.874410
    144          1           0      -27.147813    5.002953    2.435396
    145          1           0      -27.395016    5.844664    0.947439
    146          1           0      -26.353033    6.565291    2.166976
    147          1           0      -23.629975    4.711001   -1.934561
    148          1           0      -23.226589    5.448950   -0.493986
    149          1           0      -23.464071    7.410779   -1.429698
    150          1           0      -25.161205    6.967040   -1.833958
    151          1           0      -23.777784    6.559147   -2.946647
    152          1           0      -25.730429    1.308056   -5.846062
    153          1           0      -25.551458    2.783862   -4.745268
    154          1           0      -27.123369    2.043811   -5.047077
    155          1           0      -24.785561   -3.493196   -3.365899
    156          1           0      -28.466446   -5.622255   -3.930479
    157          1           0      -28.130467   -6.127545   -2.276905
    158          1           0      -27.329725   -6.965005   -3.484178
 ---------------------------------------------------------------------

 SCF Done:  E(RPBE1PBE) =  -4067.37548900     A.U. after   16 cycles

 Excitation energies and oscillator strengths:

 Excited State   1:      Singlet-A      1.8475 eV  671.09 nm  f=0.3746  <S**2>=0.000
     310 -> 316       -0.16139
     312 -> 314        0.69510
     312 <- 314       -0.11630
 This state for optimization and/or second-order correction.
 Total Energy, E(TD-HF/TD-DFT) =  -4067.30759415
 Copying the excited state density for this state as the 1-particle RhoCI density.

 Excited State   2:      Singlet-A      1.8570 eV  667.66 nm  f=0.3959  <S**2>=0.000
     309 -> 315       -0.17289
     311 -> 313        0.69291
     311 <- 313       -0.11169

 Excited State   3:      Singlet-A      1.9376 eV  639.88 nm  f=0.0000  <S**2>=0.000
     312 -> 313        0.70711

 Excited State   4:      Singlet-A      2.0023 eV  619.20 nm  f=0.0000  <S**2>=0.000
     311 -> 314        0.70711

 Excited State   5:      Singlet-A      2.2074 eV  561.69 nm  f=0.1233  <S**2>=0.000
     310 -> 314        0.66025
     312 -> 316        0.23227

 The electronic state is 1-A.
 Alpha  occ. eigenvalues --  -46.92058 -46.91283 -19.25862 -19.25079 -19.19746
 Alpha  occ. eigenvalues --  -19.19294 -19.19293 -19.18942 -19.18704 -19.18492
 Alpha  occ. eigenvalues --  -14.42236 -14.41563 -14.41397 -14.41297 -14.39115
 Alpha  occ. eigenvalues --  -14.38746 -14.38741 -14.38119 -10.35449 -10.34969
 Alpha  occ. eigenvalues --  -10.32912 -10.32709 -10.32677 -10.31827 -10.29737
 Alpha  occ. eigenvalues --  -10.29376 -10.29346 -10.29106 -10.28946 -10.28866
 Alpha  occ. eigenvalues --  -10.28553 -10.28277 -10.28109 -10.27993 -10.27461
 Alpha  occ. eigenvalues --  -10.27346 -10.27344 -10.27339 -10.27150 -10.26947
 Alpha  occ. eigenvalues --  -10.26756 -10.26708 -10.26257 -10.26201 -10.26057
 Alpha  occ. eigenvalues --  -10.26007 -10.25958 -10.25925 -10.25841 -10.25821
 Alpha  occ. eigenvalues --  -10.25775 -10.25711 -10.25665 -10.25538 -10.25452
 Alpha  occ. eigenvalues --  -10.25351 -10.25345 -10.25149 -10.25030 -10.24932
 Alpha  occ. eigenvalues --  -10.24784 -10.24740 -10.24729 -10.24725 -10.24687
 Alpha  occ. eigenvalues --  -10.24640 -10.24529 -10.24524 -10.24372 -10.24310
 Alpha  occ. eigenvalues --  -10.24106 -10.23962 -10.23935 -10.23710 -10.23546
 Alpha  occ. eigenvalues --  -10.23508 -10.23432 -10.23353 -10.23353 -10.23313
 Alpha  occ. eigenvalues --  -10.23218 -10.23056 -10.23047 -10.22991 -10.22968
 Alpha  occ. eigenvalues --  -10.22474  -3.14262  -3.13520  -1.87067  -1.86642
 Alpha  occ. eigenvalues --   -1.86496  -1.86378  -1.85897  -1.85746  -1.11300
 Alpha  occ. eigenvalues --   -1.10629  -1.05711  -1.05588  -1.04292  -1.03200
 Alpha  occ. eigenvalues --   -1.02157  -1.01567  -0.99874  -0.99373  -0.98818
 Alpha  occ. eigenvalues --   -0.98181  -0.97964  -0.97768  -0.97017  -0.96597
 Alpha  occ. eigenvalues --   -0.86819  -0.86522  -0.83498  -0.83041  -0.82961
 Alpha  occ. eigenvalues --   -0.82665  -0.82615  -0.82373  -0.81899  -0.81471
 Alpha  occ. eigenvalues --   -0.81302  -0.81272  -0.81013  -0.80783  -0.78922
 Alpha  occ. eigenvalues --   -0.78543  -0.78442  -0.78012  -0.76945  -0.76812
 Alpha  occ. eigenvalues --   -0.76728  -0.76019  -0.75731  -0.75628  -0.75115
 Alpha  occ. eigenvalues --   -0.75057  -0.73146  -0.72600  -0.72135  -0.72002
 Alpha  occ. eigenvalues --   -0.71591  -0.71200  -0.70588  -0.70223  -0.69540
 Alpha  occ. eigenvalues --   -0.69250  -0.67255  -0.66976  -0.66288  -0.65910
 Alpha  occ. eigenvalues --   -0.63697  -0.63288  -0.63197  -0.62740  -0.62261
 Alpha  occ. eigenvalues --   -0.62084  -0.61366  -0.61349  -0.60112  -0.59983
 Alpha  occ. eigenvalues --   -0.59930  -0.59613  -0.59244  -0.59131  -0.59046
 Alpha  occ. eigenvalues --   -0.58774  -0.57031  -0.56021  -0.55087  -0.55068
 Alpha  occ. eigenvalues --   -0.54303  -0.53763  -0.53609  -0.53464  -0.53457
 Alpha  occ. eigenvalues --   -0.53125  -0.52619  -0.52591  -0.52019  -0.51711
 Alpha  occ. eigenvalues --   -0.50991  -0.50706  -0.50346  -0.50208  -0.49780
 Alpha  occ. eigenvalues --   -0.49780  -0.49373  -0.49101  -0.48885  -0.48420
 Alpha  occ. eigenvalues --   -0.48145  -0.47997  -0.47807  -0.47592  -0.47433
 Alpha  occ. eigenvalues --   -0.47383  -0.47152  -0.47049  -0.46922  -0.46907
 Alpha  occ. eigenvalues --   -0.46752  -0.46718  -0.45928  -0.45895  -0.45817
 Alpha  occ. eigenvalues --   -0.45628  -0.45452  -0.45166  -0.45088  -0.45035
 Alpha  occ. eigenvalues --   -0.44828  -0.44772  -0.44577  -0.44549  -0.44073
 Alpha  occ. eigenvalues --   -0.43958  -0.43808  -0.43727  -0.43713  -0.43618
 Alpha  occ. eigenvalues --   -0.43398  -0.43240  -0.43229  -0.43100  -0.42877
 Alpha  occ. eigenvalues --   -0.42824  -0.42449  -0.42430  -0.42159  -0.42050
 Alpha  occ. eigenvalues --   -0.41824  -0.41603  -0.41469  -0.41363  -0.41309
 Alpha  occ. eigenvalues --   -0.41236  -0.40996  -0.40944  -0.40871  -0.40806
 Alpha  occ. eigenvalues --   -0.40696  -0.40059  -0.39925  -0.39909  -0.39849
 Alpha  occ. eigenvalues --   -0.39593  -0.39295  -0.39257  -0.39101  -0.39067
 Alpha  occ. eigenvalues --   -0.38887  -0.38687  -0.38542  -0.38456  -0.38183
 Alpha  occ. eigenvalues --   -0.38091  -0.37790  -0.37690  -0.37677  -0.37565
 Alpha  occ. eigenvalues --   -0.37399  -0.37268  -0.36790  -0.36662  -0.36593
 Alpha  occ. eigenvalues --   -0.36438  -0.36347  -0.36322  -0.36220  -0.36158
 Alpha  occ. eigenvalues --   -0.35939  -0.35832  -0.35473  -0.35311  -0.35220
 Alpha  occ. eigenvalues --   -0.35105  -0.34688  -0.34479  -0.34227  -0.34220
 Alpha  occ. eigenvalues --   -0.33774  -0.33373  -0.32945  -0.32749  -0.32320
 Alpha  occ. eigenvalues --   -0.32027  -0.31938  -0.31508  -0.31362  -0.31292
 Alpha  occ. eigenvalues --   -0.31225  -0.31008  -0.29680  -0.29503  -0.29271
 Alpha  occ. eigenvalues --   -0.28765  -0.28354  -0.27901  -0.26913  -0.26632
 Alpha  occ. eigenvalues --   -0.26489  -0.26079  -0.25864  -0.25595  -0.25364
 Alpha  occ. eigenvalues --   -0.25214  -0.25080  -0.24695  -0.21137  -0.20794
 Alpha  occ. eigenvalues --   -0.18789  -0.18631
 Alpha virt. eigenvalues --   -0.11249  -0.11169  -0.05390  -0.04739  -0.04077
 Alpha virt. eigenvalues --   -0.03610  -0.02358  -0.01739  -0.01027   0.00539
 Alpha virt. eigenvalues --    0.00669   0.00790   0.01079   0.01328   0.01394

 Mulliken charges:
               1
     1  Mg  12.000045
     2  C    6.000408
     3  C    5.999703
     4  C    5.999616
     5  C    6.000186
     6  N    7.000098
     7  C    5.999295
     8  C    6.000143
     9  C    5.999886
    10  C    6.000505
    11  C    5.999975
    12  C    6.000082
    13  C    5.999961
    14  H    1.000022
    15  N    6.999959
    16  C    6.000661
    17  C    6.000588
    18  C    6.000097
    19  C    6.000736
    20  C    5.999852
    21  C    6.000273
    22  O    8.000439
    23  C    5.999845
    24  N    6.999929
    25  C    6.000838
    26  C    5.999796
    27  C    6.000270
    28  C    5.999295
    29  C    5.999953
    30  C    6.000063
    31  C    6.000012
    32  N    7.000002
    33  C    5.999421
    34  C    5.999368
    35  C    5.999958
    36  C    5.999395
    37  C    6.000059
    38  C    5.999652
    39  O    7.999385
    40  C    5.999952
    41  C    5.999924
    42  O    7.999911
    43  O    7.999971
    44  C    6.000024
    45  H    1.000183
    46  H    1.000208
    47  H    0.999774
    48  H    1.000017
    49  H    0.999983
    50  H    0.999917
    51  H    1.000019
    52  H    1.000244
    53  H    0.999871
    54  H    1.000102
    55  H    0.999889
    56  H    0.999938
    57  H    1.000406
    58  H    1.000461
    59  H    1.000411
    60  H    1.000115
    61  H    1.000303
    62  H    1.000147
    63  H    0.999989
    64  H    0.999967
    65  H    1.000045
    66  H    0.999945
    67  H    1.000251
    68  H    1.000045
    69  H    0.999766
    70  H    1.000070
    71  H    0.999886
    72  H    0.999975
    73  H    0.999639
    74  H    0.999722
    75  H    0.999564
    76  H    0.999834
    77  H    0.999914
    78  H    0.999971
    79  H    0.999875
    80  Mg  11.997940
    81  C    6.019100
    82  C    5.992605
    83  C    5.975271
    84  C    6.005553
    85  N    7.008139
    86  C    5.975906
    87  C    6.009380
    88  C    5.986883
    89  C    6.030603
    90  C    5.999321
    91  C    6.001032
    92  C    6.000737
    93  H    0.993281
    94  N    6.995861
    95  C    6.032921
    96  C    6.025852
    97  C    6.011196
    98  C    6.032208
    99  C    5.997049
   100  C    6.013831
   101  O    8.026317
   102  C    5.992726
   103  N    6.991308
   104  C    6.041517
   105  C    5.990055
   106  C    6.008091
   107  C    5.973995
   108  C    5.996921
   109  C    6.007917
   110  C    6.000236
   111  N    6.997373
   112  C    5.971119
   113  C    5.962079
   114  C    6.001214
   115  C    5.968358
   116  C    6.002585
   117  C    5.984710
   118  O    7.973174
   119  C    5.993703
   120  C    5.995012
   121  O    7.997575
   122  O    7.997986
   123  C    6.001955
   124  H    1.010480
   125  H    1.005422
   126  H    0.988682
   127  H    1.000417
   128  H    1.005307
   129  H    1.012607
   130  H    0.998466
   131  H    1.000273
   132  H    0.992065
   133  H    1.007612
   134  H    0.997972
   135  H    1.006004
   136  H    1.020498
   137  H    1.016419
   138  H    1.015991
   139  H    1.004784
   140  H    1.009263
   141  H    1.013772
   142  H    0.999601
   143  H    0.997181
   144  H    0.995364
   145  H    1.011200
   146  H    1.002453
   147  H    1.005046
   148  H    0.987233
   149  H    0.993250
   150  H    0.997498
   151  H    1.001856
   152  H    0.982899
   153  H    0.982658
   154  H    0.977501
   155  H    0.991279
   156  H    0.999425
   157  H    0.993596
   158  H    0.995339
 Sum of Mulliken charges = 624.00000

 Dipole moment (field-independent basis, Debye):
    X=              1.5007    Y=              0.0985    Z=             10.2312  Tot=             10.3411
 Quadrupole moment (field-independent basis, Debye-Ang):
   XX=            -87.1005   YY=             -2.0382   ZZ=             11.4635
   XY=             -2.2381   XZ=           -266.4735   YZ=              5.5975

 Normal termination of Gaussian 16 at Fri Oct 15 04:52:47 2021.
