 Gaussian 16, Revision A.03,
 Gaussian 16:  ES64L-G16RevA.03 25-Dec-2016

 --------------------------------------------------------
 #p PBE1PBE/Def2SVP td=(nstates=5) density=(transition=1)
 --------------------------------------------------------

 --------------------------------
 TDDFT excited states in gaussian
 --------------------------------
 Symbolic Z-matrix:
 Charge =  0 Multiplicity = 1

                         Standard orientation:
 ---------------------------------------------------------------------
 Center     Atomic      Atomic             Coordinates (Angstroms)
 Number     Number       Type             X           Y           Z
 ---------------------------------------------------------------------
      1         12           0       -0.790861    0.178080    0.371520
      2          6           0        2.741111    0.079272    0.228832
      3          6           0       -0.790797   -3.246633    0.350984
      4          6           0       -4.059577    0.275986   -0.151673
      5          6           0       -0.615039    3.641798   -0.100915
      6          7           0        0.800876   -1.402373    0.133418
      7          6           0        2.177743   -1.176161    0.209631
      8          6           0        2.919561   -2.514570    0.447561
      9          6           0        1.756835   -3.573001    0.462724
     10          6           0        0.463222   -2.719810    0.348196
     11          6           0        1.907486   -4.781228   -0.445019
     12          6           0        3.816318   -2.589970    1.693109
     13          6           0        5.282458   -3.004164    1.389860
     14          1           0        5.785202   -4.215534    2.143389
     15          7           0       -2.225092   -1.313339    0.220296
     16          6           0       -2.056985   -2.666720    0.197454
     17          6           0       -3.367038   -3.271833    0.234588
     18          6           0       -4.352832   -2.236942   -0.065175
     19          6           0       -3.519955   -1.044760   -0.024557
     20          6           0       -3.583005   -4.872409    0.279806
     21          6           0       -5.723104   -2.311879   -0.586679
     22          8           0       -6.472700   -1.402139   -0.800528
     23          6           0       -6.239539   -3.712298   -0.903129
     24          7           0       -2.116820    1.756473   -0.278129
     25          6           0       -3.443199    1.533458   -0.356750
     26          6           0       -4.209258    2.854614   -0.456848
     27          6           0       -3.142709    3.895108   -0.079258
     28          6           0       -1.872721    3.074363   -0.108810
     29          6           0       -4.786239    3.084441   -1.928549
     30          6           0       -3.439683    4.410461    1.419991
     31          6           0       -3.125288    3.398235    2.555237
     32          7           0        0.701177    1.672206    0.225100
     33          6           0        0.609596    3.000744    0.052462
     34          6           0        1.941738    3.542040    0.022064
     35          6           0        2.786954    2.454319    0.136528
     36          6           0        2.002225    1.299346    0.195082
     37          6           0        2.385982    4.984036   -0.133100
     38          6           0        4.216587    2.132693    0.134616
     39          8           0        5.263142    2.694226   -0.027767
     40          6           0        4.252255    0.587781    0.273791
     41          6           0        4.993749    0.098452   -0.914952
     42          8           0        4.655524    0.395266   -2.033191
     43          8           0        6.126832   -0.633112   -0.597367
     44          6           0        7.082679   -0.903487   -1.722978
     45          1           0       -0.773875   -4.319508    0.554333
     46          1           0       -5.145897    0.375247   -0.209042
     47          1           0       -0.464028    4.721170   -0.032600
     48          1           0        3.509756   -2.747516   -0.438971
     49          1           0        1.767895   -4.066862    1.434558
     50          1           0        2.671244   -4.611925   -1.202598
     51          1           0        0.978787   -5.086773   -0.927614
     52          1           0        2.299568   -5.578263    0.186227
     53          1           0        3.545150   -3.296971    2.477167
     54          1           0        3.837604   -1.631456    2.211169
     55          1           0        5.961574   -2.155175    1.467399
     56          1           0        5.325394   -3.310994    0.345594
     57          1           0       -4.316394   -5.086672    1.057115
     58          1           0       -2.712520   -5.469153    0.549668
     59          1           0       -3.876850   -5.387420   -0.634778
     60          1           0       -6.221327   -4.209806    0.066822
     61          1           0       -5.508666   -4.125614   -1.597460
     62          1           0       -7.269088   -3.748789   -1.260564
     63          1           0       -5.008964    2.951713    0.278185
     64          1           0       -2.953601    4.750766   -0.727858
     65          1           0       -5.685508    3.691823   -1.822731
     66          1           0       -5.084032    2.214282   -2.514542
     67          1           0       -4.009134    3.663149   -2.427612
     68          1           0       -4.463207    4.761184    1.550796
     69          1           0       -2.732554    5.198347    1.679787
     70          1           0       -3.483772    3.678560    3.545129
     71          1           0       -2.040892    3.308307    2.621221
     72          1           0       -3.539441    2.434161    2.258247
     73          1           0        2.068194    5.641856    0.675522
     74          1           0        1.896063    5.303517   -1.052519
     75          1           0        3.456089    5.077407   -0.318089
     76          1           0        4.856396    0.433696    1.167689
     77          1           0        7.288223   -1.953442   -1.514544
     78          1           0        8.004591   -0.327053   -1.648409
     79          1           0        6.767801   -0.765599   -2.757055
 ---------------------------------------------------------------------

 SCF Done:  E(RPBE1PBE) =  -2033.69624109     A.U. after   16 cycles

 Excitation energies and oscillator strengths:

 Excited State   1:      Singlet-A      1.8679 eV  663.75 nm  f=0.3861  <S**2>=0.000
     155 ->158         0.16805
     156 ->157         0.69466
     156 <-157        -0.11169
 This state for optimization and/or second-order correction.
 Total Energy, E(TD-HF/TD-DFT) =  -2033.62759563
 Copying the excited state density for this state as the 1-particle RhoCI density.

 Excited State   2:      Singlet-A      2.2024 eV  562.96 nm  f=0.1280  <S**2>=0.000
     155 ->157         0.66423
     156 ->158        -0.22423

 Excited State   3:      Singlet-A      2.8378 eV  436.91 nm  f=0.0007  <S**2>=0.000
     154 ->157         0.68255
     154 ->159         0.11376

 Excited State   4:      Singlet-A      3.0375 eV  408.18 nm  f=0.0012  <S**2>=0.000
     151 ->157         0.18949
     153 ->157         0.66089

 Excited State   5:      Singlet-A      3.1173 eV  397.72 nm  f=0.0003  <S**2>=0.000
     151 ->157         0.55375
     152 ->157         0.33446
     153 ->157        -0.23070

 The electronic state is 1-A.
 Alpha  occ. eigenvalues --  -46.92942 -19.25777 -19.19789 -19.19468 -19.18645
 Alpha  occ. eigenvalues --  -14.41702 -14.41394 -14.39446 -14.38877 -10.35786
 Alpha  occ. eigenvalues --  -10.32283 -10.31507 -10.29242 -10.29029 -10.28548
 Alpha  occ. eigenvalues --  -10.28520 -10.28472 -10.27977 -10.27718 -10.27432
 Alpha  occ. eigenvalues --  -10.27011 -10.26813 -10.26539 -10.25857 -10.25853
 Alpha  occ. eigenvalues --  -10.25833 -10.25749 -10.25559 -10.25393 -10.25342
 Alpha  occ. eigenvalues --  -10.24896 -10.24767 -10.24723 -10.24227 -10.24213
 Alpha  occ. eigenvalues --  -10.24120 -10.23950 -10.23575 -10.23499 -10.23446
 Alpha  occ. eigenvalues --  -10.23047 -10.22716 -10.22374  -3.14930  -1.87752
 Alpha  occ. eigenvalues --   -1.87317  -1.87145  -1.10406  -1.06409  -1.05854
 Alpha  occ. eigenvalues --   -1.02429  -0.99827  -0.98976  -0.98546  -0.96621
 Alpha  occ. eigenvalues --   -0.86702  -0.83194  -0.83083  -0.82589  -0.82092
 Alpha  occ. eigenvalues --   -0.80869  -0.80619  -0.78723  -0.77769  -0.76771
 Alpha  occ. eigenvalues --   -0.75496  -0.75195  -0.74435  -0.72682  -0.71710
 Alpha  occ. eigenvalues --   -0.71054  -0.70459  -0.69598  -0.67561  -0.66241
 Alpha  occ. eigenvalues --   -0.63702  -0.63643  -0.62521  -0.61641  -0.59919
 Alpha  occ. eigenvalues --   -0.59848  -0.59657  -0.59067  -0.56847  -0.55028
 Alpha  occ. eigenvalues --   -0.54280  -0.53864  -0.53366  -0.52624  -0.52167
 Alpha  occ. eigenvalues --   -0.50625  -0.49907  -0.49717  -0.49231  -0.48673
 Alpha  occ. eigenvalues --   -0.48025  -0.47570  -0.47098  -0.46946  -0.46708
 Alpha  occ. eigenvalues --   -0.46553  -0.46134  -0.45729  -0.45338  -0.44654
 Alpha  occ. eigenvalues --   -0.44398  -0.44076  -0.44041  -0.43928  -0.43662
 Alpha  occ. eigenvalues --   -0.43075  -0.42945  -0.42569  -0.42271  -0.42048
 Alpha  occ. eigenvalues --   -0.41672  -0.41109  -0.40907  -0.40787  -0.40607
 Alpha  occ. eigenvalues --   -0.40321  -0.40098  -0.39818  -0.39326  -0.38924
 Alpha  occ. eigenvalues --   -0.38511  -0.38168  -0.38110  -0.37817  -0.37723
 Alpha  occ. eigenvalues --   -0.37348  -0.37151  -0.36989  -0.36877  -0.36326
 Alpha  occ. eigenvalues --   -0.36307  -0.35746  -0.35249  -0.34684  -0.34004
 Alpha  occ. eigenvalues --   -0.33309  -0.33061  -0.32831  -0.32111  -0.31368
 Alpha  occ. eigenvalues --   -0.31203  -0.29607  -0.29127  -0.28754  -0.27250
 Alpha  occ. eigenvalues --   -0.26160  -0.26006  -0.25761  -0.25125  -0.21140
 Alpha  occ. eigenvalues --   -0.19202
 Alpha virt. eigenvalues --   -0.11598  -0.05010  -0.03698  -0.01942  -0.01137
 Alpha virt. eigenvalues --    0.00804   0.01146   0.02315   0.03697   0.04685
 Alpha virt. eigenvalues --    0.04863   0.05685   0.06204   0.06674   0.07330

 Mulliken charges:
               1
     1  Mg  12.000698
     2  C    5.977323
     3  C    6.006253
     4  C    6.018890
     5  C    5.998117
     6  N    6.991137
     7  C    6.032286
     8  C    5.987515
     9  C    6.010225
    10  C    5.973835
    11  C    6.002783
    12  C    6.000207
    13  C    5.997101
    14  H    1.007333
    15  N    7.002395
    16  C    5.966319
    17  C    5.976806
    18  C    5.980318
    19  C    5.975074
    20  C    6.000858
    21  C    5.989669
    22  O    7.970064
    23  C    6.002186
    24  N    7.005590
    25  C    5.965508
    26  C    6.009296
    27  C    5.993346
    28  C    6.027767
    29  C    6.005176
    30  C    5.994870
    31  C    5.998554
    32  N    6.995532
    33  C    6.033768
    34  C    6.031877
    35  C    5.998043
    36  C    6.038537
    37  C    6.000955
    38  C    6.014528
    39  O    8.025524
    40  C    6.001167
    41  C    6.007169
    42  O    8.001574
    43  O    8.002023
    44  C    5.997713
    45  H    0.989242
    46  H    0.994866
    47  H    1.011042
    48  H    1.001573
    49  H    0.997562
    50  H    0.989648
    51  H    1.006222
    52  H    0.994349
    53  H    1.007576
    54  H    0.994269
    55  H    0.995666
    56  H    1.001868
    57  H    0.984216
    58  H    0.982652
    59  H    0.981262
    60  H    0.994076
    61  H    0.995232
    62  H    0.985081
    63  H    0.999671
    64  H    0.999229
    65  H    0.996344
    66  H    1.006374
    67  H    0.988162
    68  H    1.010421
    69  H    0.997242
    70  H    1.004271
    71  H    0.989409
    72  H    1.017304
    73  H    1.019623
    74  H    1.016886
    75  H    1.013452
    76  H    1.007565
    77  H    1.005940
    78  H    1.002404
    79  H    1.003391
 Sum of Mulliken charges = 312.00000

 Dipole moment (field-independent basis, Debye):
    X=              7.3773    Y=              7.3835    Z=              0.2483  Tot=             10.4404
 Quadrupole moment (field-independent basis, Debye-Ang):
   XX=             -9.5600   YY=              1.3445   ZZ=              0.2661
   XY=             -7.1305   XZ=             -2.1915   YZ=              0.7820

 Normal termination of Gaussian 16 at Wed Oct 13 19:32:47 2021.
