 Gaussian 16, Revision A.03,
 Gaussian 16:  ES64L-G16RevA.03 25-Dec-2016

 ---------------------------------------------------------
 #p PBE1PBE/Def2SVP td=(nstates=5, root=1) density=current
 ---------------------------------------------------------

 --------------------------------
 TDDFT excited states in gaussian
 --------------------------------
 Symbolic Z-matrix:
 Charge =  0 Multiplicity = 1

                         Standard orientation:
 ---------------------------------------------------------------------
 Center     Atomic      Atomic             Coordinates (Angstroms)
 Number     Number       Type             X           Y           Z
 ---------------------------------------------------------------------
      1         12           0       -0.714159    0.251769    0.021574
      2          6           0        2.803975    0.285946    0.257656
      3          6           0       -0.583187   -3.173416   -0.228166
      4          6           0       -4.056551    0.138705   -0.288512
      5          6           0       -0.750421    3.735701   -0.301056
      6          7           0        0.937024   -1.175130    0.158814
      7          6           0        2.256807   -1.043144    0.256490
      8          6           0        3.078639   -2.348052    0.305241
      9          6           0        1.899260   -3.335541   -0.153172
     10          6           0        0.653244   -2.484812   -0.116321
     11          6           0        2.118007   -3.952677   -1.513182
     12          6           0        3.670465   -2.713139    1.776982
     13          6           0        4.936791   -3.572502    1.718989
     14          1           0        6.185394   -2.905498    2.351417
     15          7           0       -2.187168   -1.322027   -0.064103
     16          6           0       -1.880226   -2.697686   -0.208806
     17          6           0       -3.117785   -3.421073   -0.022020
     18          6           0       -4.148500   -2.485588   -0.012598
     19          6           0       -3.503512   -1.138175   -0.103500
     20          6           0       -3.231727   -4.932495   -0.085757
     21          6           0       -5.644730   -2.642745    0.133544
     22          8           0       -6.340756   -1.671591    0.194655
     23          6           0       -6.292639   -3.983188    0.281751
     24          7           0       -2.181047    1.683238   -0.451945
     25          6           0       -3.517314    1.407362   -0.453246
     26          6           0       -4.244240    2.769988   -0.625251
     27          6           0       -3.301624    3.823751   -0.072091
     28          6           0       -1.959413    3.087151   -0.292686
     29          6           0       -4.479881    3.033148   -2.111878
     30          6           0       -3.564942    4.216056    1.334596
     31          6           0       -3.795171    3.139176    2.365814
     32          7           0        0.689945    1.758793    0.011607
     33          6           0        0.559810    3.126978   -0.135415
     34          6           0        1.893664    3.741575   -0.050454
     35          6           0        2.775954    2.661743    0.127323
     36          6           0        2.020916    1.521145    0.157882
     37          6           0        2.205777    5.169444   -0.183571
     38          6           0        4.130110    2.283947    0.431341
     39          8           0        5.165554    2.989015    0.614928
     40          6           0        4.160982    0.687466    0.555229
     41          6           0        5.102389    0.196790   -0.514030
     42          8           0        5.051731    0.574374   -1.646975
     43          8           0        6.028792   -0.800263   -0.104652
     44          6           0        6.729243   -1.511163   -1.217222
     45          1           0       -0.559488   -4.256503   -0.361031
     46          1           0       -5.129824    0.143644   -0.491593
     47          1           0       -0.702271    4.823850   -0.219817
     48          1           0        3.944960   -2.268311   -0.352625
     49          1           0        1.897109   -4.110467    0.614364
     50          1           0        2.534654   -4.943265   -1.331570
     51          1           0        2.708485   -3.319657   -2.175882
     52          1           0        1.108687   -4.155144   -1.871338
     53          1           0        2.925426   -3.268363    2.347688
     54          1           0        3.852246   -1.805741    2.353257
     55          1           0        5.020875   -3.759517    0.648251
     56          1           0        4.782282   -4.561310    2.150407
     57          1           0       -2.214781   -5.283685    0.084984
     58          1           0       -3.473952   -5.110280   -1.133139
     59          1           0       -3.901421   -5.332566    0.675799
     60          1           0       -5.967309   -4.225504    1.293600
     61          1           0       -5.919692   -4.746294   -0.400854
     62          1           0       -7.376242   -3.891776    0.199743
     63          1           0       -5.232050    2.830857   -0.169808
     64          1           0       -3.317276    4.781876   -0.590503
     65          1           0       -3.831858    3.726362   -2.648280
     66          1           0       -5.505213    3.387024   -2.218929
     67          1           0       -4.436658    2.075603   -2.632107
     68          1           0       -4.385777    4.929533    1.411019
     69          1           0       -2.664959    4.757479    1.625536
     70          1           0       -2.927518    3.174534    3.025249
     71          1           0       -3.929197    2.085220    2.120468
     72          1           0       -4.649084    3.433976    2.975547
     73          1           0        2.045166    5.455255   -1.223044
     74          1           0        3.238744    5.240096    0.156956
     75          1           0        1.522752    5.784269    0.404116
     76          1           0        4.463638    0.501044    1.585806
     77          1           0        7.527575   -0.888182   -1.620414
     78          1           0        6.061975   -1.798425   -2.031109
     79          1           0        7.275646   -2.411815   -0.938739
 ---------------------------------------------------------------------

 SCF Done:  E(RPBE1PBE) =  -2033.68237259     A.U. after   16 cycles

 Excitation energies and oscillator strengths:

 Excited State   1:      Singlet-A      1.8249 eV  679.41 nm  f=0.3581  <S**2>=0.000
     155 ->158        -0.17198
     156 ->157         0.69447
     156 <-157        -0.10918
 This state for optimization and/or second-order correction.
 Total Energy, E(TD-HF/TD-DFT) =  -2033.61530959
 Copying the excited state density for this state as the 1-particle RhoCI density.

 Excited State   2:      Singlet-A      2.1781 eV  569.24 nm  f=0.1122  <S**2>=0.000
     155 ->157         0.65716
     156 ->158         0.25110

 Excited State   3:      Singlet-A      2.8948 eV  428.31 nm  f=0.0001  <S**2>=0.000
     152 ->157         0.10254
     153 ->157         0.58586
     153 ->159        -0.14923
     154 ->157         0.32226

 Excited State   4:      Singlet-A      3.0109 eV  411.78 nm  f=0.0017  <S**2>=0.000
     152 ->157        -0.43936
     153 ->157        -0.19117
     154 ->157         0.50028

 Excited State   5:      Singlet-A      3.0602 eV  405.15 nm  f=0.0018  <S**2>=0.000
     151 ->157         0.51598
     151 ->159         0.10535
     152 ->157        -0.28043
     153 ->157         0.19490
     154 ->157        -0.29014

 The electronic state is 1-A.
 Alpha  occ. eigenvalues --  -46.92038 -19.25186 -19.20262 -19.19050 -19.18738
 Alpha  occ. eigenvalues --  -14.42725 -14.41076 -14.39250 -14.38898 -10.36470
 Alpha  occ. eigenvalues --  -10.32124 -10.32070 -10.29352 -10.29040 -10.28951
 Alpha  occ. eigenvalues --  -10.28830 -10.28519 -10.28275 -10.27957 -10.27504
 Alpha  occ. eigenvalues --  -10.26731 -10.26687 -10.26389 -10.26330 -10.26129
 Alpha  occ. eigenvalues --  -10.25969 -10.25835 -10.25584 -10.25410 -10.25256
 Alpha  occ. eigenvalues --  -10.24920 -10.24909 -10.24884 -10.24589 -10.24532
 Alpha  occ. eigenvalues --  -10.23791 -10.23677 -10.23360 -10.23082 -10.22822
 Alpha  occ. eigenvalues --  -10.22584 -10.22418 -10.21914  -3.14116  -1.86980
 Alpha  occ. eigenvalues --   -1.86467  -1.86355  -1.10376  -1.06641  -1.02248
 Alpha  occ. eigenvalues --   -1.01576  -0.99840  -0.97982  -0.97847  -0.96424
 Alpha  occ. eigenvalues --   -0.87425  -0.84270  -0.83728  -0.83001  -0.82002
 Alpha  occ. eigenvalues --   -0.81305  -0.80807  -0.78901  -0.77910  -0.76834
 Alpha  occ. eigenvalues --   -0.76572  -0.75508  -0.74235  -0.72993  -0.71682
 Alpha  occ. eigenvalues --   -0.71512  -0.70587  -0.69345  -0.67016  -0.65762
 Alpha  occ. eigenvalues --   -0.64062  -0.63303  -0.62313  -0.61409  -0.60211
 Alpha  occ. eigenvalues --   -0.59451  -0.58842  -0.57904  -0.56400  -0.54778
 Alpha  occ. eigenvalues --   -0.54466  -0.53766  -0.53625  -0.53079  -0.52295
 Alpha  occ. eigenvalues --   -0.50924  -0.50337  -0.49251  -0.49077  -0.48659
 Alpha  occ. eigenvalues --   -0.48506  -0.48118  -0.47943  -0.47706  -0.47131
 Alpha  occ. eigenvalues --   -0.46529  -0.46050  -0.45957  -0.45484  -0.45364
 Alpha  occ. eigenvalues --   -0.44745  -0.44614  -0.44310  -0.43971  -0.43851
 Alpha  occ. eigenvalues --   -0.43729  -0.43031  -0.42841  -0.42401  -0.42195
 Alpha  occ. eigenvalues --   -0.41935  -0.41451  -0.41069  -0.40767  -0.40434
 Alpha  occ. eigenvalues --   -0.40153  -0.40015  -0.39618  -0.39132  -0.38876
 Alpha  occ. eigenvalues --   -0.38579  -0.38402  -0.38029  -0.37845  -0.37653
 Alpha  occ. eigenvalues --   -0.37331  -0.37293  -0.36696  -0.36411  -0.35891
 Alpha  occ. eigenvalues --   -0.35836  -0.35276  -0.35209  -0.34715  -0.34457
 Alpha  occ. eigenvalues --   -0.33297  -0.32709  -0.32350  -0.32115  -0.31458
 Alpha  occ. eigenvalues --   -0.31225  -0.29820  -0.29542  -0.28818  -0.27134
 Alpha  occ. eigenvalues --   -0.25991  -0.25591  -0.25304  -0.25264  -0.21036
 Alpha  occ. eigenvalues --   -0.18967
 Alpha virt. eigenvalues --   -0.11443  -0.05256  -0.03823  -0.02240   0.00031
 Alpha virt. eigenvalues --    0.00728   0.00929   0.01342   0.02598   0.03553
 Alpha virt. eigenvalues --    0.04471   0.05248   0.05881   0.05977   0.06601

 Mulliken charges:
               1
     1  Mg   0.954241
     2  C   -0.054605
     3  C   -0.101455
     4  C   -0.061594
     5  C   -0.058994
     6  N   -0.373805
     7  C    0.055396
     8  C   -0.116087
     9  C   -0.170770
    10  C    0.138383
    11  C    0.048093
    12  C   -0.000986
    13  C   -0.121893
    14  H    0.069191
    15  N   -0.473565
    16  C    0.156843
    17  C   -0.193187
    18  C   -0.064116
    19  C    0.157670
    20  C    0.055589
    21  C    0.020490
    22  O   -0.221642
    23  C   -0.018434
    24  N   -0.440117
    25  C    0.093988
    26  C   -0.123610
    27  C   -0.074841
    28  C    0.131263
    29  C    0.030958
    30  C   -0.005558
    31  C   -0.085658
    32  N   -0.480178
    33  C    0.103221
    34  C   -0.209683
    35  C    0.004179
    36  C    0.153645
    37  C    0.068756
    38  C    0.114671
    39  O   -0.262353
    40  C   -0.086315
    41  C    0.283536
    42  O   -0.215333
    43  O   -0.403728
    44  C    0.120571
    45  H    0.012029
    46  H    0.025259
    47  H    0.005080
    48  H    0.068198
    49  H    0.049893
    50  H    0.037375
    51  H    0.061223
    52  H    0.034440
    53  H    0.037396
    54  H    0.054162
    55  H    0.038085
    56  H    0.050640
    57  H    0.034545
    58  H    0.077195
    59  H    0.061481
    60  H    0.064046
    61  H    0.055505
    62  H    0.059324
    63  H    0.034699
    64  H    0.029285
    65  H    0.048504
    66  H    0.039100
    67  H    0.041015
    68  H    0.040777
    69  H    0.027504
    70  H    0.036581
    71  H    0.070342
    72  H    0.036220
    73  H    0.062301
    74  H    0.073219
    75  H    0.043164
    76  H    0.080276
    77  H    0.060554
    78  H    0.053605
    79  H    0.054795
 Sum of Mulliken charges =  -0.00000

 Dipole moment (field-independent basis, Debye):
    X=             -2.8077    Y=             -4.8164    Z=              0.4829  Tot=              5.5959
 Quadrupole moment (field-independent basis, Debye-Ang):
   XX=           -283.4200   YY=           -220.7720   ZZ=           -257.2563
   XY=            -30.2097   XZ=             -1.0450   YZ=              1.7587

 Normal termination of Gaussian 16 at Wed Oct 13 12:39:31 2021.
