 Gaussian 16, Revision A.03,
 Gaussian 16:  ES64L-G16RevA.03 25-Dec-2016

 --------------------------------------------------------
 #p PBE1PBE/Def2SVP td=(nstates=5) density=(transition=1)
 --------------------------------------------------------

 --------------------------------
 TDDFT excited states in gaussian
 --------------------------------
 Symbolic Z-matrix:
 Charge =  0 Multiplicity = 1

                         Standard orientation:
 ---------------------------------------------------------------------
 Center     Atomic      Atomic             Coordinates (Angstroms)
 Number     Number       Type             X           Y           Z
 ---------------------------------------------------------------------
      1         12           0       20.483184    0.244144    0.435768
      2          6           0       18.070873   -1.732799   -1.320554
      3          6           0       21.906962    0.925827   -2.589332
      4          6           0       22.879645    1.616159    1.994988
      5          6           0       19.576201   -1.481686    3.324462
      6          7           0       19.962076   -0.381050   -1.622928
      7          6           0       18.978357   -1.091104   -2.166335
      8          6           0       18.957410   -1.027506   -3.722898
      9          6           0       20.488319   -0.664334   -3.980621
     10          6           0       20.796804    0.033387   -2.667629
     11          6           0       21.390919   -1.886955   -4.111055
     12          6           0       18.004589    0.093235   -4.259370
     13          6           0       17.675276    0.011284   -5.752753
     14          1           0       16.344878    0.396705   -6.198669
     15          7           0       21.852998    1.523120   -0.189275
     16          6           0       22.298523    1.676126   -1.459465
     17          6           0       23.313770    2.750080   -1.408696
     18          6           0       23.558542    3.077510    0.023425
     19          6           0       22.782829    2.054079    0.676292
     20          6           0       23.903283    3.383541   -2.631379
     21          6           0       24.372161    4.137139    0.696731
     22          8           0       24.633809    4.101659    1.947673
     23          6           0       24.936543    5.184400   -0.173763
     24          7           0       21.298024   -0.054508    2.334314
     25          6           0       22.294650    0.714553    2.786273
     26          6           0       22.520450    0.508540    4.254780
     27          6           0       21.303373   -0.388983    4.767546
     28          6           0       20.594554   -0.622852    3.410656
     29          6           0       23.846522   -0.161360    4.640498
     30          6           0       20.469345    0.166117    5.949358
     31          6           0       19.710711    1.397779    5.508245
     32          7           0       18.960752   -1.202766    0.983214
     33          6           0       18.781359   -1.804316    2.237260
     34          6           0       17.695917   -2.791554    2.091506
     35          6           0       17.328114   -2.706943    0.750086
     36          6           0       18.150510   -1.747619    0.093082
     37          6           0       17.217558   -3.660825    3.111297
     38          6           0       16.448225   -3.221501   -0.286680
     39          8           0       15.480219   -3.983200   -0.303168
     40          6           0       16.975363   -2.699555   -1.695767
     41          6           0       15.791841   -2.161718   -2.452942
     42          8           0       15.194538   -1.137722   -2.063036
     43          8           0       15.697125   -2.790299   -3.634660
     44          6           0       14.560250   -2.282915   -4.448437
     45          1           0       22.573317    1.016075   -3.449429
     46          1           0       23.621721    2.144474    2.597188
     47          1           0       19.182028   -1.997039    4.202238
     48          1           0       18.710659   -1.969502   -4.212982
     49          1           0       20.607714    0.027223   -4.814418
     50          1           0       20.853579   -2.805709   -3.876372
     51          1           0       22.201413   -1.727622   -3.399573
     52          1           0       21.858518   -1.919976   -5.095452
     53          1           0       18.526442    1.049904   -4.236688
     54          1           0       17.076967    0.117845   -3.686450
     55          1           0       17.951972   -0.957639   -6.169331
     56          1           0       18.307935    0.724185   -6.281633
     57          1           0       23.655651    2.822901   -3.531882
     58          1           0       24.986075    3.294839   -2.545343
     59          1           0       23.626632    4.433943   -2.723318
     60          1           0       25.578513    4.721689   -0.923645
     61          1           0       25.412173    5.904242    0.491409
     62          1           0       24.124401    5.665087   -0.719944
     63          1           0       22.513726    1.458053    4.788453
     64          1           0       21.634665   -1.368601    5.112898
     65          1           0       24.452283    0.430047    5.327518
     66          1           0       24.393948   -0.377850    3.723575
     67          1           0       23.746999   -1.156346    5.073529
     68          1           0       21.123708    0.467973    6.766450
     69          1           0       19.753418   -0.553646    6.346396
     70          1           0       20.449026    2.191145    5.619116
     71          1           0       18.852585    1.569326    6.158939
     72          1           0       19.445322    1.344895    4.452187
     73          1           0       16.130148   -3.647319    3.038311
     74          1           0       17.552485   -3.337361    4.096588
     75          1           0       17.672481   -4.602316    2.803896
     76          1           0       17.428140   -3.554323   -2.197252
     77          1           0       13.935930   -3.140960   -4.697871
     78          1           0       14.996715   -1.718162   -5.272425
     79          1           0       13.840761   -1.648966   -3.929029
     80         12           0      -20.254676   -0.610404   -0.442842
     81          6           0      -19.514144    2.937292    0.132558
     82          6           0      -16.821074   -1.037461   -0.355212
     83          6           0      -20.834725   -3.694925    0.122082
     84          6           0      -23.698827    0.320228   -0.014447
     85          7           0      -18.351062    0.879783    0.015823
     86          6           0      -18.295644    2.243916    0.201104
     87          6           0      -16.812980    2.667516    0.509390
     88          6           0      -15.967769    1.457481    0.075064
     89          6           0      -17.095985    0.370909   -0.099191
     90          6           0      -15.123207    1.563419   -1.262238
     91          6           0      -16.583931    3.128462    1.989576
     92          6           0      -15.654183    4.305605    2.191354
     93          1           0      -14.205665    3.981156    2.674147
     94          7           0      -19.037799   -2.162885   -0.280615
     95          6           0      -17.672812   -2.191959   -0.372763
     96          6           0      -17.187450   -3.592416   -0.235147
     97          6           0      -18.369889   -4.359876   -0.070508
     98          6           0      -19.472599   -3.402693   -0.028413
     99          6           0      -15.726316   -4.068941   -0.193609
    100          6           0      -18.501475   -5.846744    0.271605
    101          8           0      -17.466814   -6.506973    0.312606
    102          6           0      -19.719161   -6.515912    0.509607
    103          7           0      -22.039569   -1.511011    0.265661
    104          6           0      -22.004408   -2.886293    0.147886
    105          6           0      -23.477481   -3.427946    0.309060
    106          6           0      -24.320875   -2.129750    0.575151
    107          6           0      -23.306448   -1.040663    0.151203
    108          6           0      -24.014459   -4.281405   -0.872586
    109          6           0      -24.928463   -1.894873    2.016677
    110          6           0      -26.221352   -2.642074    2.387335
    111          7           0      -21.464442    1.209079   -0.074232
    112          6           0      -22.830001    1.411722   -0.061546
    113          6           0      -23.165554    2.814879   -0.042397
    114          6           0      -21.874490    3.461233    0.018940
    115          6           0      -20.825236    2.477740    0.056908
    116          6           0      -24.565494    3.344985    0.003782
    117          6           0      -21.262570    4.708107    0.142090
    118          8           0      -21.732095    5.815751    0.365320
    119          6           0      -19.742890    4.446589    0.351598
    120          6           0      -19.067587    5.243138   -0.740304
    121          8           0      -18.119580    6.005905   -0.537677
    122          8           0      -19.494727    4.934211   -2.094236
    123          6           0      -18.573274    5.455653   -3.102476
    124          1           0      -15.741772   -1.192697   -0.404981
    125          1           0      -21.197575   -4.724720    0.139666
    126          1           0      -24.782673    0.448452    0.018991
    127          1           0      -16.514225    3.426313   -0.215257
    128          1           0      -15.339700    1.089595    0.886408
    129          1           0      -14.091241    1.663700   -0.926613
    130          1           0      -15.367697    2.472105   -1.811579
    131          1           0      -15.264141    0.750248   -1.974196
    132          1           0      -16.082708    2.395226    2.621950
    133          1           0      -17.528811    3.428602    2.443098
    134          1           0      -16.173258    5.010781    2.840524
    135          1           0      -15.535009    4.797601    1.225511
    136          1           0      -15.625711   -4.998936   -0.753786
    137          1           0      -15.512460   -4.157695    0.871451
    138          1           0      -15.068161   -3.355762   -0.688039
    139          1           0      -20.283057   -6.530455   -0.423628
    140          1           0      -20.297169   -6.131327    1.349963
    141          1           0      -19.354059   -7.481340    0.861638
    142          1           0      -23.616689   -4.066462    1.180780
    143          1           0      -25.130686   -2.027883   -0.146890
    144          1           0      -24.918597   -3.770377   -1.203758
    145          1           0      -24.262727   -5.271893   -0.492550
    146          1           0      -23.188160   -4.275944   -1.584485
    147          1           0      -25.118875   -0.821304    2.035643
    148          1           0      -24.234110   -2.222668    2.790601
    149          1           0      -26.446927   -3.132785    1.440105
    150          1           0      -27.047231   -1.947433    2.547149
    151          1           0      -26.160819   -3.368733    3.197160
    152          1           0      -25.011963    2.896664    0.890377
    153          1           0      -25.192577    2.989049   -0.813442
    154          1           0      -24.608208    4.413800    0.213675
    155          1           0      -19.477227    4.887686    1.312112
    156          1           0      -18.830943    4.724318   -3.869478
    157          1           0      -17.553945    5.538587   -2.725457
    158          1           0      -18.988860    6.408391   -3.430857
 ---------------------------------------------------------------------

 SCF Done:  E(RPBE1PBE) =  -4067.33151325     A.U. after   16 cycles

 Excitation energies and oscillator strengths:

 Excited State   1:      Singlet-A      1.8414 eV  673.31 nm  f=0.3754  <S**2>=0.000
     310 -> 316       -0.16188
     312 -> 314        0.69308
     312 <- 314       -0.11104
 This state for optimization and/or second-order correction.
 Total Energy, E(TD-HF/TD-DFT) =  -4067.26384304
 Copying the excited state density for this state as the 1-particle RhoCI density.

 Excited State   2:      Singlet-A      1.8704 eV  662.89 nm  f=0.3422  <S**2>=0.000
     309 -> 315       -0.19145
     311 -> 313        0.68630

 Excited State   3:      Singlet-A      1.9357 eV  640.51 nm  f=0.0000  <S**2>=0.000
     312 -> 313        0.70711

 Excited State   4:      Singlet-A      2.0543 eV  603.55 nm  f=0.0000  <S**2>=0.000
     311 -> 314        0.70710

 Excited State   5:      Singlet-A      2.1930 eV  565.38 nm  f=0.0924  <S**2>=0.000
     310 -> 314        0.65167
     312 -> 316        0.24161

 The electronic state is 1-A.
 Alpha  occ. eigenvalues --  -46.94112 -46.91179 -19.26915 -19.24354 -19.20308
 Alpha  occ. eigenvalues --  -19.19295 -19.18999 -19.18904 -19.18405 -19.18157
 Alpha  occ. eigenvalues --  -14.42054 -14.41934 -14.41612 -14.40948 -14.40299
 Alpha  occ. eigenvalues --  -14.39040 -14.38885 -14.38244 -10.36435 -10.36097
 Alpha  occ. eigenvalues --  -10.32481 -10.31945 -10.31562 -10.30679 -10.29902
 Alpha  occ. eigenvalues --  -10.29532 -10.29439 -10.29135 -10.29049 -10.28898
 Alpha  occ. eigenvalues --  -10.28843 -10.28761 -10.28624 -10.28208 -10.28125
 Alpha  occ. eigenvalues --  -10.27991 -10.27978 -10.27534 -10.27247 -10.27220
 Alpha  occ. eigenvalues --  -10.27124 -10.27104 -10.27025 -10.26649 -10.26635
 Alpha  occ. eigenvalues --  -10.26620 -10.26557 -10.26173 -10.26097 -10.26051
 Alpha  occ. eigenvalues --  -10.26009 -10.25977 -10.25942 -10.25942 -10.25890
 Alpha  occ. eigenvalues --  -10.25787 -10.25442 -10.25364 -10.25338 -10.25262
 Alpha  occ. eigenvalues --  -10.25243 -10.25200 -10.25045 -10.25023 -10.24841
 Alpha  occ. eigenvalues --  -10.24766 -10.24629 -10.24504 -10.24403 -10.24380
 Alpha  occ. eigenvalues --  -10.24272 -10.24078 -10.23925 -10.23782 -10.23729
 Alpha  occ. eigenvalues --  -10.23678 -10.23602 -10.23602 -10.23485 -10.23282
 Alpha  occ. eigenvalues --  -10.23264 -10.23057 -10.22902 -10.22583 -10.22390
 Alpha  occ. eigenvalues --  -10.22079  -3.16105  -3.13497  -1.88886  -1.88530
 Alpha  occ. eigenvalues --   -1.88291  -1.86319  -1.85885  -1.85731  -1.11412
 Alpha  occ. eigenvalues --   -1.08645  -1.05079  -1.03773  -1.03357  -1.01826
 Alpha  occ. eigenvalues --   -1.01440  -1.01158  -0.99541  -0.99161  -0.98357
 Alpha  occ. eigenvalues --   -0.97981  -0.97888  -0.97871  -0.97077  -0.95816
 Alpha  occ. eigenvalues --   -0.87290  -0.86319  -0.83821  -0.83442  -0.83228
 Alpha  occ. eigenvalues --   -0.83173  -0.82750  -0.82580  -0.82192  -0.81963
 Alpha  occ. eigenvalues --   -0.81427  -0.81246  -0.81096  -0.80325  -0.79222
 Alpha  occ. eigenvalues --   -0.79210  -0.78213  -0.78098  -0.77902  -0.77145
 Alpha  occ. eigenvalues --   -0.76862  -0.76810  -0.75883  -0.75507  -0.74931
 Alpha  occ. eigenvalues --   -0.74212  -0.73092  -0.72490  -0.71646  -0.71534
 Alpha  occ. eigenvalues --   -0.71291  -0.71220  -0.70231  -0.70113  -0.69588
 Alpha  occ. eigenvalues --   -0.69214  -0.67317  -0.67230  -0.66359  -0.66077
 Alpha  occ. eigenvalues --   -0.64207  -0.63480  -0.63221  -0.63021  -0.62131
 Alpha  occ. eigenvalues --   -0.62108  -0.61543  -0.61356  -0.59988  -0.59812
 Alpha  occ. eigenvalues --   -0.59696  -0.59450  -0.59408  -0.59085  -0.58756
 Alpha  occ. eigenvalues --   -0.58583  -0.56864  -0.56380  -0.54933  -0.54859
 Alpha  occ. eigenvalues --   -0.54404  -0.54295  -0.53751  -0.53611  -0.53490
 Alpha  occ. eigenvalues --   -0.53107  -0.52094  -0.51828  -0.51791  -0.51523
 Alpha  occ. eigenvalues --   -0.51194  -0.50861  -0.50363  -0.50250  -0.50042
 Alpha  occ. eigenvalues --   -0.49824  -0.49332  -0.49068  -0.48710  -0.48449
 Alpha  occ. eigenvalues --   -0.48402  -0.48277  -0.48093  -0.47942  -0.47828
 Alpha  occ. eigenvalues --   -0.47742  -0.47543  -0.47446  -0.47094  -0.47091
 Alpha  occ. eigenvalues --   -0.46966  -0.46574  -0.46405  -0.46384  -0.46174
 Alpha  occ. eigenvalues --   -0.45888  -0.45848  -0.45570  -0.45220  -0.45071
 Alpha  occ. eigenvalues --   -0.44622  -0.44490  -0.44472  -0.44471  -0.44118
 Alpha  occ. eigenvalues --   -0.44034  -0.43852  -0.43848  -0.43697  -0.43599
 Alpha  occ. eigenvalues --   -0.43281  -0.43209  -0.43104  -0.43013  -0.42999
 Alpha  occ. eigenvalues --   -0.42825  -0.42610  -0.42381  -0.42325  -0.41938
 Alpha  occ. eigenvalues --   -0.41844  -0.41553  -0.41439  -0.41234  -0.41112
 Alpha  occ. eigenvalues --   -0.41060  -0.40886  -0.40863  -0.40580  -0.40544
 Alpha  occ. eigenvalues --   -0.40136  -0.39929  -0.39726  -0.39471  -0.39292
 Alpha  occ. eigenvalues --   -0.39249  -0.39211  -0.39124  -0.38915  -0.38889
 Alpha  occ. eigenvalues --   -0.38827  -0.38733  -0.38706  -0.38457  -0.38271
 Alpha  occ. eigenvalues --   -0.38228  -0.38025  -0.37848  -0.37481  -0.37434
 Alpha  occ. eigenvalues --   -0.37388  -0.37336  -0.37121  -0.36847  -0.36820
 Alpha  occ. eigenvalues --   -0.36714  -0.36553  -0.36358  -0.36342  -0.36143
 Alpha  occ. eigenvalues --   -0.35952  -0.35766  -0.35582  -0.35470  -0.35162
 Alpha  occ. eigenvalues --   -0.35035  -0.35000  -0.34821  -0.34323  -0.34235
 Alpha  occ. eigenvalues --   -0.33780  -0.33406  -0.32859  -0.32714  -0.32535
 Alpha  occ. eigenvalues --   -0.32370  -0.32245  -0.32138  -0.31696  -0.31322
 Alpha  occ. eigenvalues --   -0.31246  -0.30235  -0.29646  -0.29498  -0.29203
 Alpha  occ. eigenvalues --   -0.28907  -0.28404  -0.28388  -0.27085  -0.26709
 Alpha  occ. eigenvalues --   -0.26631  -0.26051  -0.25991  -0.25144  -0.25104
 Alpha  occ. eigenvalues --   -0.24942  -0.24818  -0.24413  -0.21359  -0.20966
 Alpha  occ. eigenvalues --   -0.19086  -0.18748
 Alpha virt. eigenvalues --   -0.11308  -0.11213  -0.06087  -0.05333  -0.04351
 Alpha virt. eigenvalues --   -0.04143  -0.02395  -0.02165  -0.02128   0.00118
 Alpha virt. eigenvalues --    0.00162   0.00364   0.00433   0.00461   0.01408

 Mulliken charges:
               1
     1  Mg  12.000639
     2  C    5.985270
     3  C    6.011863
     4  C    6.012056
     5  C    5.985751
     6  N    6.992041
     7  C    6.031895
     8  C    5.991646
     9  C    6.008685
    10  C    5.972866
    11  C    6.000769
    12  C    5.996395
    13  C    5.998971
    14  H    0.999643
    15  N    7.003209
    16  C    5.963458
    17  C    5.971080
    18  C    5.984982
    19  C    5.979314
    20  C    6.005184
    21  C    5.985814
    22  O    7.969173
    23  C    6.004890
    24  N    7.000870
    25  C    5.973567
    26  C    6.011217
    27  C    5.988168
    28  C    6.031258
    29  C    5.999513
    30  C    5.996315
    31  C    5.998995
    32  N    6.996729
    33  C    6.043905
    34  C    6.022337
    35  C    6.006306
    36  C    6.028521
    37  C    5.996685
    38  C    6.014993
    39  O    8.030180
    40  C    6.001465
    41  C    6.003392
    42  O    8.004238
    43  O    8.001880
    44  C    5.998753
    45  H    0.992237
    46  H    0.994117
    47  H    1.008832
    48  H    0.999238
    49  H    1.000428
    50  H    0.984564
    51  H    1.004461
    52  H    0.996741
    53  H    1.013184
    54  H    0.994390
    55  H    1.000762
    56  H    1.006585
    57  H    0.980660
    58  H    0.980239
    59  H    0.979457
    60  H    0.994823
    61  H    0.985587
    62  H    0.992881
    63  H    1.000972
    64  H    1.003997
    65  H    1.000043
    66  H    1.005293
    67  H    0.990578
    68  H    1.008970
    69  H    0.997155
    70  H    1.011235
    71  H    1.001367
    72  H    0.997318
    73  H    1.015565
    74  H    1.016544
    75  H    1.018244
    76  H    1.007722
    77  H    1.002870
    78  H    1.005902
    79  H    1.002161
    80  Mg  12.000078
    81  C    5.999621
    82  C    5.999956
    83  C    6.000644
    84  C    5.999783
    85  N    6.999791
    86  C    6.000614
    87  C    5.999873
    88  C    6.000094
    89  C    5.999411
    90  C    6.000168
    91  C    5.999986
    92  C    6.000006
    93  H    1.000037
    94  N    7.000169
    95  C    5.999303
    96  C    5.999410
    97  C    5.999939
    98  C    5.999150
    99  C    6.000011
   100  C    5.999712
   101  O    7.999537
   102  C    6.000100
   103  N    7.000055
   104  C    5.999171
   105  C    6.000228
   106  C    5.999866
   107  C    6.000733
   108  C    5.999999
   109  C    5.999924
   110  C    6.000023
   111  N    6.999964
   112  C    6.000587
   113  C    6.000861
   114  C    5.999877
   115  C    6.000828
   116  C    5.999946
   117  C    6.000391
   118  O    8.000689
   119  C    5.999923
   120  C    6.000104
   121  O    8.000194
   122  O    7.999930
   123  C    5.999960
   124  H    0.999634
   125  H    0.999871
   126  H    1.000259
   127  H    0.999983
   128  H    0.999923
   129  H    0.999773
   130  H    0.999744
   131  H    1.000049
   132  H    1.000130
   133  H    0.999885
   134  H    0.999990
   135  H    1.000006
   136  H    0.999644
   137  H    0.999570
   138  H    0.999616
   139  H    0.999854
   140  H    0.999797
   141  H    0.999736
   142  H    0.999931
   143  H    0.999990
   144  H    0.999830
   145  H    1.000005
   146  H    1.000057
   147  H    0.999870
   148  H    1.000181
   149  H    1.000111
   150  H    1.000026
   151  H    1.000123
   152  H    1.000458
   153  H    1.000484
   154  H    1.000344
   155  H    1.000172
   156  H    1.000098
   157  H    1.000107
   158  H    1.000103
 Sum of Mulliken charges = 624.00000

 Dipole moment (field-independent basis, Debye):
    X=             -7.7000    Y=             -6.4062    Z=              2.6825  Tot=             10.3694
 Quadrupole moment (field-independent basis, Debye-Ang):
   XX=           -302.8077   YY=             -3.4314   ZZ=              4.7691
   XY=           -140.5026   XZ=             54.8728   YZ=             -2.0432

 Normal termination of Gaussian 16 at Thu Oct 14 16:42:02 2021.
