 Gaussian 16, Revision A.03,
 Gaussian 16:  ES64L-G16RevA.03 25-Dec-2016

 --------------------------------------------------------
 #p PBE1PBE/Def2SVP td=(nstates=5) density=(transition=1)
 --------------------------------------------------------

 --------------------------------
 TDDFT excited states in gaussian
 --------------------------------
 Symbolic Z-matrix:
 Charge =  0 Multiplicity = 1

                         Standard orientation:
 ---------------------------------------------------------------------
 Center     Atomic      Atomic             Coordinates (Angstroms)
 Number     Number       Type             X           Y           Z
 ---------------------------------------------------------------------
      1         12           0      -16.352125    0.477244    0.367081
      2          6           0      -15.014176   -2.037200   -1.628133
      3          6           0      -17.307143   -1.900773    2.642129
      4          6           0      -17.922454    2.944555    2.116559
      5          6           0      -15.492092    2.727005   -2.246776
      6          7           0      -16.213070   -1.708373    0.477049
      7          6           0      -15.511332   -2.484186   -0.407519
      8          6           0      -15.533971   -3.908437    0.152826
      9          6           0      -16.505734   -3.877582    1.319016
     10          6           0      -16.658921   -2.373700    1.516111
     11          6           0      -17.818344   -4.607598    1.220963
     12          6           0      -14.100962   -4.537309    0.498152
     13          6           0      -14.120487   -5.895406    1.270708
     14          1           0      -14.107364   -7.213856    0.453652
     15          7           0      -17.324534    0.511619    2.200129
     16          6           0      -17.646484   -0.560284    2.966234
     17          6           0      -18.397716   -0.055729    4.086119
     18          6           0      -18.575743    1.349324    3.920771
     19          6           0      -17.962163    1.666886    2.710390
     20          6           0      -18.865704   -0.983440    5.164599
     21          6           0      -19.433374    2.282753    4.824010
     22          8           0      -19.817022    3.372804    4.439077
     23          6           0      -19.942677    1.893405    6.128959
     24          7           0      -16.629064    2.417497   -0.007162
     25          6           0      -17.271934    3.288253    0.872174
     26          6           0      -17.269560    4.742167    0.368842
     27          6           0      -16.267993    4.657868   -0.832809
     28          6           0      -16.083902    3.159538   -1.008829
     29          6           0      -18.583610    5.384764    0.197821
     30          6           0      -14.867460    5.484895   -0.764536
     31          6           0      -14.532712    6.540316   -1.822780
     32          7           0      -15.462206    0.390985   -1.638571
     33          6           0      -15.213516    1.387323   -2.540402
     34          6           0      -14.595137    0.875481   -3.716751
     35          6           0      -14.413872   -0.519444   -3.376474
     36          6           0      -15.048765   -0.761274   -2.126037
     37          6           0      -14.182251    1.705194   -4.872245
     38          6           0      -13.798760   -1.747841   -3.824014
     39          8           0      -13.101980   -2.047628   -4.773611
     40          6           0      -14.199995   -2.818836   -2.648522
     41          6           0      -14.804868   -4.050298   -3.217232
     42          8           0      -15.880573   -4.076156   -3.773936
     43          8           0      -14.033021   -5.135774   -3.033284
     44          6           0      -14.650630   -6.483646   -3.336530
     45          1           0      -17.566596   -2.647369    3.395975
     46          1           0      -18.438794    3.714597    2.693219
     47          1           0      -15.289253    3.569567   -2.911429
     48          1           0      -15.951596   -4.437406   -0.703731
     49          1           0      -16.039580   -4.341815    2.187731
     50          1           0      -18.482292   -3.751635    1.104096
     51          1           0      -18.015275   -5.236860    2.089040
     52          1           0      -17.914096   -5.168214    0.290853
     53          1           0      -13.666632   -3.756176    1.122441
     54          1           0      -13.525385   -4.669379   -0.417262
     55          1           0      -15.011917   -5.993827    1.888927
     56          1           0      -13.266200   -5.905125    1.947600
     57          1           0      -18.550838   -2.026554    5.121644
     58          1           0      -19.949473   -1.025964    5.061439
     59          1           0      -18.683826   -0.598770    6.168312
     60          1           0      -20.446289    0.935511    6.254889
     61          1           0      -20.571967    2.631541    6.626031
     62          1           0      -19.037734    1.912681    6.735893
     63          1           0      -16.754124    5.184599    1.221733
     64          1           0      -16.940489    4.967937   -1.632464
     65          1           0      -18.803952    6.239149    0.838372
     66          1           0      -19.344115    4.624788    0.379077
     67          1           0      -18.751254    5.796999   -0.797116
     68          1           0      -14.058653    4.755176   -0.797392
     69          1           0      -14.653184    6.034933    0.152571
     70          1           0      -13.804908    6.225631   -2.571149
     71          1           0      -14.311404    7.531281   -1.427422
     72          1           0      -15.421168    6.670106   -2.440914
     73          1           0      -14.995465    2.389320   -5.113484
     74          1           0      -13.872523    1.108212   -5.729602
     75          1           0      -13.439856    2.416591   -4.509063
     76          1           0      -13.253977   -3.118226   -2.198557
     77          1           0      -13.768784   -7.110183   -3.468407
     78          1           0      -15.249902   -6.396026   -4.242560
     79          1           0      -15.198037   -6.783150   -2.442684
     80         12           0       15.798840    0.618329   -0.051038
     81          6           0       18.114351   -1.590705    1.090922
     82          6           0       13.490370   -1.841676   -0.773822
     83          6           0       13.710286    3.008034   -1.335803
     84          6           0       18.283625    3.231256    0.247860
     85          7           0       15.903934   -1.472652   -0.049438
     86          6           0       16.878143   -2.197034    0.716115
     87          6           0       16.431243   -3.582152    0.964047
     88          6           0       15.165901   -3.680426   -0.001073
     89          6           0       14.790375   -2.252175   -0.327673
     90          6           0       15.458100   -4.516071   -1.345881
     91          6           0       16.253829   -3.952174    2.468768
     92          6           0       16.820247   -5.275659    2.871295
     93          1           0       16.625068   -6.457173    1.841337
     94          7           0       13.833147    0.594139   -0.868372
     95          6           0       13.111733   -0.544757   -1.070471
     96          6           0       11.854000   -0.163271   -1.615276
     97          6           0       11.820944    1.281842   -1.723802
     98          6           0       13.158491    1.745212   -1.223687
     99          6           0       10.809214   -1.202101   -2.078165
    100          6           0       10.768029    2.251641   -2.161072
    101          8           0       10.867067    3.473441   -2.320623
    102          6           0        9.340890    1.627499   -2.398031
    103          7           0       15.997795    2.848434   -0.598218
    104          6           0       14.978423    3.566241   -0.999646
    105          6           0       15.258641    5.066032   -0.930797
    106          6           0       16.727451    5.115943   -0.421382
    107          6           0       17.048195    3.631726   -0.256361
    108          6           0       15.065534    5.825861   -2.340139
    109          6           0       16.763525    5.906909    0.960028
    110          6           0       16.093814    5.326860    2.230282
    111          7           0       17.850063    0.781344    0.392932
    112          6           0       18.664606    1.890821    0.518608
    113          6           0       19.930981    1.411871    1.109108
    114          6           0       19.819827    0.081509    1.381732
    115          6           0       18.499516   -0.257163    0.910848
    116          6           0       21.165906    2.238134    1.218803
    117          6           0       20.469151   -1.113675    1.919710
    118          8           0       21.582709   -1.281211    2.388060
    119          6           0       19.359937   -2.239135    1.729075
    120          6           0       19.913351   -3.241269    0.795737
    121          8           0       20.351441   -3.057613   -0.353314
    122          8           0       19.842066   -4.427643    1.497369
    123          6           0       20.168162   -5.621477    0.706378
    124          1           0       12.713321   -2.583922   -0.967274
    125          1           0       12.952129    3.730456   -1.647363
    126          1           0       19.019914    4.018668    0.418339
    127          1           0       17.248250   -4.199248    0.588015
    128          1           0       14.354748   -4.145127    0.558624
    129          1           0       16.374660   -5.104528   -1.304202
    130          1           0       15.677424   -3.776823   -2.116149
    131          1           0       14.522489   -5.045675   -1.520613
    132          1           0       15.193223   -3.968728    2.719810
    133          1           0       16.793968   -3.152177    2.974885
    134          1           0       16.351508   -5.686055    3.764835
    135          1           0       17.864694   -5.384771    3.163727
    136          1           0       10.240881   -1.689534   -1.286098
    137          1           0       11.412890   -1.885765   -2.674826
    138          1           0        9.989666   -0.758453   -2.643107
    139          1           0        9.357121    1.050867   -3.322906
    140          1           0        8.603381    2.420169   -2.273448
    141          1           0        9.011464    0.972200   -1.591444
    142          1           0       14.603609    5.505022   -0.178630
    143          1           0       17.410739    5.617766   -1.106565
    144          1           0       14.137934    6.391877   -2.247552
    145          1           0       14.956296    5.099799   -3.146396
    146          1           0       15.801312    6.561498   -2.662541
    147          1           0       16.419265    6.939737    0.909152
    148          1           0       17.832047    5.889805    1.177122
    149          1           0       16.946228    5.159577    2.888841
    150          1           0       15.516147    4.425919    2.027460
    151          1           0       15.391963    6.008679    2.710463
    152          1           0       21.633316    1.845263    2.121207
    153          1           0       20.957278    3.305400    1.295391
    154          1           0       21.854220    1.892367    0.448698
    155          1           0       19.354926   -2.649962    2.738331
    156          1           0       20.164621   -6.404023    1.465687
    157          1           0       21.194378   -5.481357    0.366738
    158          1           0       19.563202   -5.778719   -0.186832
 ---------------------------------------------------------------------

 SCF Done:  E(RPBE1PBE) =  -4067.37637674     A.U. after   16 cycles

 Excitation energies and oscillator strengths:

 Excited State   1:      Singlet-A      1.8382 eV  674.49 nm  f=0.3839  <S**2>=0.000
     309 -> 315       -0.17924
     312 -> 314        0.69028
     312 <- 314       -0.10338
 This state for optimization and/or second-order correction.
 Total Energy, E(TD-HF/TD-DFT) =  -4067.30882486
 Copying the excited state density for this state as the 1-particle RhoCI density.

 Excited State   2:      Singlet-A      1.8570 eV  667.64 nm  f=0.3739  <S**2>=0.000
     310 -> 316        0.17258
     311 -> 313        0.69149
     311 <- 313       -0.11148

 Excited State   3:      Singlet-A      1.9054 eV  650.68 nm  f=0.0000  <S**2>=0.000
     312 -> 313        0.70710

 Excited State   4:      Singlet-A      1.9909 eV  622.76 nm  f=0.0000  <S**2>=0.000
     311 -> 314        0.70710

 Excited State   5:      Singlet-A      2.2291 eV  556.22 nm  f=0.0878  <S**2>=0.000
     310 -> 313        0.64386
     311 -> 316       -0.27276

 The electronic state is 1-A.
 Alpha  occ. eigenvalues --  -46.92647 -46.91297 -19.26364 -19.25098 -19.20562
 Alpha  occ. eigenvalues --  -19.19947 -19.19551 -19.19305 -19.18958 -19.18509
 Alpha  occ. eigenvalues --  -14.42249 -14.41978 -14.41583 -14.41577 -14.39231
 Alpha  occ. eigenvalues --  -14.39089 -14.38759 -14.38133 -10.36611 -10.34986
 Alpha  occ. eigenvalues --  -10.32721 -10.32720 -10.32667 -10.31843 -10.29644
 Alpha  occ. eigenvalues --  -10.29594 -10.29388 -10.29366 -10.29093 -10.28959
 Alpha  occ. eigenvalues --  -10.28881 -10.28516 -10.28123 -10.28117 -10.27927
 Alpha  occ. eigenvalues --  -10.27614 -10.27474 -10.27353 -10.27344 -10.27171
 Alpha  occ. eigenvalues --  -10.26769 -10.26735 -10.26656 -10.26596 -10.26313
 Alpha  occ. eigenvalues --  -10.26161 -10.26018 -10.25972 -10.25886 -10.25835
 Alpha  occ. eigenvalues --  -10.25788 -10.25755 -10.25582 -10.25430 -10.25400
 Alpha  occ. eigenvalues --  -10.25380 -10.25368 -10.25359 -10.25188 -10.25168
 Alpha  occ. eigenvalues --  -10.25089 -10.25041 -10.24975 -10.24949 -10.24796
 Alpha  occ. eigenvalues --  -10.24749 -10.24745 -10.24730 -10.24700 -10.24543
 Alpha  occ. eigenvalues --  -10.24537 -10.24385 -10.24232 -10.24084 -10.23731
 Alpha  occ. eigenvalues --  -10.23722 -10.23443 -10.23343 -10.23234 -10.23133
 Alpha  occ. eigenvalues --  -10.23070 -10.23054 -10.23003 -10.22977 -10.22955
 Alpha  occ. eigenvalues --  -10.22668  -3.14636  -3.13534  -1.87480  -1.87000
 Alpha  occ. eigenvalues --   -1.86859  -1.86392  -1.85911  -1.85760  -1.10781
 Alpha  occ. eigenvalues --   -1.10648  -1.05723  -1.05101  -1.04307  -1.04157
 Alpha  occ. eigenvalues --   -1.02335  -1.01585  -0.99889  -0.99776  -0.98831
 Alpha  occ. eigenvalues --   -0.98602  -0.97977  -0.97444  -0.97031  -0.96326
 Alpha  occ. eigenvalues --   -0.86834  -0.86833  -0.83514  -0.83411  -0.83108
 Alpha  occ. eigenvalues --   -0.83052  -0.82678  -0.82309  -0.81913  -0.81723
 Alpha  occ. eigenvalues --   -0.81286  -0.81262  -0.81027  -0.80405  -0.78956
 Alpha  occ. eigenvalues --   -0.78935  -0.78025  -0.77689  -0.76825  -0.76743
 Alpha  occ. eigenvalues --   -0.76695  -0.75889  -0.75746  -0.75491  -0.75130
 Alpha  occ. eigenvalues --   -0.74135  -0.73159  -0.72350  -0.72147  -0.71685
 Alpha  occ. eigenvalues --   -0.71607  -0.71481  -0.70239  -0.70162  -0.69553
 Alpha  occ. eigenvalues --   -0.69318  -0.67268  -0.66948  -0.66661  -0.66302
 Alpha  occ. eigenvalues --   -0.64195  -0.63713  -0.63660  -0.63299  -0.62854
 Alpha  occ. eigenvalues --   -0.62754  -0.61841  -0.61379  -0.60126  -0.59941
 Alpha  occ. eigenvalues --   -0.59823  -0.59485  -0.59233  -0.59147  -0.58952
 Alpha  occ. eigenvalues --   -0.58788  -0.57135  -0.56038  -0.55100  -0.54837
 Alpha  occ. eigenvalues --   -0.54318  -0.54007  -0.53623  -0.53508  -0.53479
 Alpha  occ. eigenvalues --   -0.53391  -0.52604  -0.52515  -0.52122  -0.51728
 Alpha  occ. eigenvalues --   -0.51005  -0.50566  -0.50359  -0.50104  -0.49797
 Alpha  occ. eigenvalues --   -0.49539  -0.49457  -0.49386  -0.49116  -0.49042
 Alpha  occ. eigenvalues --   -0.48435  -0.48134  -0.47938  -0.47821  -0.47683
 Alpha  occ. eigenvalues --   -0.47397  -0.47164  -0.46991  -0.46932  -0.46928
 Alpha  occ. eigenvalues --   -0.46767  -0.46484  -0.46320  -0.46223  -0.45911
 Alpha  occ. eigenvalues --   -0.45660  -0.45642  -0.45466  -0.45409  -0.45100
 Alpha  occ. eigenvalues --   -0.44841  -0.44589  -0.44544  -0.44293  -0.44088
 Alpha  occ. eigenvalues --   -0.43975  -0.43974  -0.43728  -0.43634  -0.43484
 Alpha  occ. eigenvalues --   -0.43271  -0.43256  -0.43212  -0.43125  -0.42889
 Alpha  occ. eigenvalues --   -0.42766  -0.42441  -0.42351  -0.42170  -0.42095
 Alpha  occ. eigenvalues --   -0.42011  -0.41838  -0.41616  -0.41614  -0.41376
 Alpha  occ. eigenvalues --   -0.41344  -0.41251  -0.41011  -0.40888  -0.40819
 Alpha  occ. eigenvalues --   -0.40613  -0.40322  -0.39954  -0.39938  -0.39865
 Alpha  occ. eigenvalues --   -0.39608  -0.39510  -0.39312  -0.39272  -0.39080
 Alpha  occ. eigenvalues --   -0.38899  -0.38758  -0.38557  -0.38261  -0.38103
 Alpha  occ. eigenvalues --   -0.38023  -0.37745  -0.37705  -0.37689  -0.37661
 Alpha  occ. eigenvalues --   -0.37580  -0.37104  -0.37074  -0.36892  -0.36866
 Alpha  occ. eigenvalues --   -0.36802  -0.36674  -0.36513  -0.36436  -0.36365
 Alpha  occ. eigenvalues --   -0.36174  -0.35845  -0.35675  -0.35377  -0.35327
 Alpha  occ. eigenvalues --   -0.35114  -0.34742  -0.34495  -0.34487  -0.34239
 Alpha  occ. eigenvalues --   -0.33786  -0.32868  -0.32769  -0.32532  -0.32332
 Alpha  occ. eigenvalues --   -0.32158  -0.31952  -0.31745  -0.31488  -0.31388
 Alpha  occ. eigenvalues --   -0.31376  -0.31026  -0.29641  -0.29517  -0.29389
 Alpha  occ. eigenvalues --   -0.29285  -0.29026  -0.27918  -0.26883  -0.26646
 Alpha  occ. eigenvalues --   -0.26344  -0.26091  -0.25957  -0.25658  -0.25442
 Alpha  occ. eigenvalues --   -0.25377  -0.25229  -0.24709  -0.21306  -0.21151
 Alpha  occ. eigenvalues --   -0.18803  -0.18670
 Alpha virt. eigenvalues --   -0.11262  -0.11071  -0.05800  -0.05403  -0.04457
 Alpha virt. eigenvalues --   -0.03624  -0.02280  -0.01752  -0.00877   0.00061
 Alpha virt. eigenvalues --    0.00522   0.00773   0.00794   0.01035   0.01313

 Mulliken charges:
               1
     1  Mg  12.000136
     2  C    6.001158
     3  C    5.999037
     4  C    5.999076
     5  C    6.000610
     6  N    7.000356
     7  C    5.997748
     8  C    6.000511
     9  C    5.999563
    10  C    6.001782
    11  C    5.999903
    12  C    6.000280
    13  C    5.999872
    14  H    1.000118
    15  N    6.999786
    16  C    6.002240
    17  C    6.001956
    18  C    6.000512
    19  C    6.002139
    20  C    5.999598
    21  C    6.000875
    22  O    8.001459
    23  C    5.999482
    24  N    6.999746
    25  C    6.002683
    26  C    5.999404
    27  C    6.000907
    28  C    5.997652
    29  C    5.999804
    30  C    6.000231
    31  C    6.000001
    32  N    7.000150
    33  C    5.998009
    34  C    5.997896
    35  C    5.999833
    36  C    5.998019
    37  C    6.000092
    38  C    5.998778
    39  O    7.997800
    40  C    5.999798
    41  C    5.999787
    42  O    7.999768
    43  O    7.999844
    44  C    6.000069
    45  H    1.000637
    46  H    1.000685
    47  H    0.999221
    48  H    1.000084
    49  H    0.999959
    50  H    0.999761
    51  H    1.000105
    52  H    1.000843
    53  H    0.999501
    54  H    1.000267
    55  H    0.999688
    56  H    0.999752
    57  H    1.001353
    58  H    1.001540
    59  H    1.001371
    60  H    1.000401
    61  H    1.001027
    62  H    1.000488
    63  H    0.999944
    64  H    0.999936
    65  H    1.000194
    66  H    0.999864
    67  H    1.000860
    68  H    1.000042
    69  H    0.999239
    70  H    1.000132
    71  H    0.999649
    72  H    0.999990
    73  H    0.998889
    74  H    0.999049
    75  H    0.998453
    76  H    0.999335
    77  H    0.999670
    78  H    0.999949
    79  H    0.999653
    80  Mg  12.002974
    81  C    6.019709
    82  C    5.980759
    83  C    5.996844
    84  C    6.016404
    85  N    7.002112
    86  C    5.965143
    87  C    6.011879
    88  C    5.989852
    89  C    6.034329
    90  C    5.999041
    91  C    6.002394
    92  C    6.003870
    93  H    0.991663
    94  N    6.992399
    95  C    6.035755
    96  C    6.021312
    97  C    6.016657
    98  C    6.024092
    99  C    6.000042
   100  C    6.011867
   101  O    8.030250
   102  C    5.995774
   103  N    7.003316
   104  C    6.025045
   105  C    5.991025
   106  C    6.010568
   107  C    5.967799
   108  C    5.998948
   109  C    6.002163
   110  C    6.004268
   111  N    7.002349
   112  C    5.957551
   113  C    5.973699
   114  C    5.996956
   115  C    5.969462
   116  C    6.001302
   117  C    5.982447
   118  O    7.973621
   119  C    5.997894
   120  C    5.996819
   121  O    7.995901
   122  O    7.998115
   123  C    6.001441
   124  H    1.007391
   125  H    1.006853
   126  H    0.991897
   127  H    0.998755
   128  H    1.000838
   129  H    1.013540
   130  H    1.000306
   131  H    0.999032
   132  H    0.988110
   133  H    1.004990
   134  H    0.996485
   135  H    1.003227
   136  H    1.019357
   137  H    1.014230
   138  H    1.012464
   139  H    1.008688
   140  H    1.013682
   141  H    1.007704
   142  H    1.000179
   143  H    0.997680
   144  H    0.997895
   145  H    0.996995
   146  H    1.008922
   147  H    0.990770
   148  H    1.004371
   149  H    1.005346
   150  H    0.991629
   151  H    0.993503
   152  H    0.985617
   153  H    0.982486
   154  H    0.980773
   155  H    0.992706
   156  H    0.995732
   157  H    0.998665
   158  H    0.993374
 Sum of Mulliken charges = 624.00000

 Dipole moment (field-independent basis, Debye):
    X=            -10.0250    Y=              0.2453    Z=             -3.0938  Tot=             10.4944
 Quadrupole moment (field-independent basis, Debye-Ang):
   XX=           -291.8054   YY=             -2.5545   ZZ=              1.8079
   XY=             -4.0971   XZ=            -66.3708   YZ=             -1.4940

 Normal termination of Gaussian 16 at Fri Oct 15 03:49:02 2021.
