 Gaussian 16, Revision A.03,
 Gaussian 16:  ES64L-G16RevA.03 25-Dec-2016

 --------------------------------------------------------
 #p PBE1PBE/Def2SVP td=(nstates=5) density=(transition=1)
 --------------------------------------------------------

 --------------------------------
 TDDFT excited states in gaussian
 --------------------------------
 Symbolic Z-matrix:
 Charge =  0 Multiplicity = 1

                         Standard orientation:
 ---------------------------------------------------------------------
 Center     Atomic      Atomic             Coordinates (Angstroms)
 Number     Number       Type             X           Y           Z
 ---------------------------------------------------------------------
      1         12           0       13.934675   -0.062321    0.221190
      2          6           0       11.426140   -0.960577   -2.048538
      3          6           0       14.219853    2.861515   -1.603784
      4          6           0       16.085046    1.036235    2.525768
      5          6           0       12.899627   -2.634895    2.349786
      6          7           0       12.696212    0.930924   -1.613911
      7          6           0       11.820595    0.295312   -2.415887
      8          6           0       11.339736    1.137667   -3.572969
      9          6           0       12.499736    2.203261   -3.514315
     10          6           0       13.180440    2.066439   -2.156280
     11          6           0       13.547483    1.906938   -4.620304
     12          6           0        9.881025    1.571207   -3.380144
     13          6           0        9.383312    1.990201   -1.981142
     14          1           0        8.608387    3.300886   -1.914230
     15          7           0       15.000856    1.670884    0.430984
     16          6           0       15.058251    2.680669   -0.492682
     17          6           0       16.267750    3.477914   -0.250534
     18          6           0       16.770774    3.079244    1.052112
     19          6           0       15.946205    1.872935    1.367285
     20          6           0       16.628623    4.759749   -1.094555
     21          6           0       17.879477    3.761074    1.857689
     22          8           0       18.528896    4.646484    1.374924
     23          6           0       18.194481    3.291794    3.248740
     24          7           0       14.244968   -0.636605    2.294705
     25          6           0       15.301017   -0.096171    3.051697
     26          6           0       15.485361   -0.811478    4.456561
     27          6           0       14.464264   -2.038945    4.317704
     28          6           0       13.843858   -1.789562    2.867244
     29          6           0       16.950946   -1.243613    4.963640
     30          6           0       13.362905   -2.213601    5.460283
     31          6           0       13.042333   -3.770572    5.703350
     32          7           0       12.497803   -1.579642    0.196929
     33          6           0       12.262651   -2.600651    1.095171
     34          6           0       11.256046   -3.499668    0.544002
     35          6           0       10.904098   -2.979662   -0.728272
     36          6           0       11.641281   -1.748105   -0.862317
     37          6           0       10.820802   -4.821349    1.120721
     38          6           0       10.031124   -3.067257   -1.944029
     39          8           0        9.123892   -3.826345   -2.202522
     40          6           0       10.409068   -1.796527   -2.817702
     41          6           0       10.951024   -2.317613   -4.120321
     42          8           0       10.235231   -2.773870   -5.046750
     43          8           0       12.315707   -2.076624   -4.186131
     44          6           0       12.919057   -2.309517   -5.455675
     45          1           0       14.376295    3.742804   -2.229469
     46          1           0       16.889938    1.178913    3.250132
     47          1           0       12.730697   -3.542131    2.933821
     48          1           0       11.468662    0.625410   -4.526236
     49          1           0       12.233703    3.253579   -3.625340
     50          1           0       14.510225    2.204835   -4.204282
     51          1           0       13.265269    2.390572   -5.554413
     52          1           0       13.775164    0.870917   -4.873112
     53          1           0        9.282321    0.690481   -3.610420
     54          1           0        9.667679    2.365484   -4.095584
     55          1           0       10.244678    2.130527   -1.328571
     56          1           0        8.699162    1.221721   -1.622462
     57          1           0       16.050390    5.651446   -0.850908
     58          1           0       16.513699    4.540474   -2.156122
     59          1           0       17.673806    5.066395   -1.076135
     60          1           0       18.891473    3.959225    3.756583
     61          1           0       18.609456    2.284110    3.278226
     62          1           0       17.238293    3.436970    3.752161
     63          1           0       15.081486   -0.033848    5.103759
     64          1           0       14.999075   -2.985997    4.251833
     65          1           0       17.354952   -0.402359    5.525614
     66          1           0       17.603146   -1.500480    4.129380
     67          1           0       16.850997   -2.134206    5.584426
     68          1           0       12.398313   -1.822093    5.137395
     69          1           0       13.659300   -1.698017    6.374086
     70          1           0       11.996634   -3.992055    5.489514
     71          1           0       13.242762   -4.022648    6.744277
     72          1           0       13.523141   -4.514963    5.069616
     73          1           0       10.420521   -4.644835    2.118505
     74          1           0       11.681790   -5.484934    1.203888
     75          1           0       10.025166   -5.286431    0.538919
     76          1           0        9.444381   -1.348777   -3.055409
     77          1           0       13.962652   -1.997848   -5.418972
     78          1           0       12.331283   -1.866565   -6.259861
     79          1           0       13.021890   -3.373064   -5.670901
     80         12           0      -13.508215    0.991994    0.024711
     81          6           0      -13.536029   -2.531996   -0.328458
     82          6           0      -10.023796    0.733844   -0.079133
     83          6           0      -13.300168    4.261858    0.235051
     84          6           0      -16.869791    0.903620    0.908973
     85          7           0      -12.010244   -0.716803   -0.214289
     86          6           0      -12.245357   -2.030264   -0.487549
     87          6           0      -10.999536   -2.916531   -0.657434
     88          6           0       -9.884752   -1.773464   -0.435124
     89          6           0      -10.709452   -0.539235   -0.218938
     90          6           0       -8.945146   -2.014374    0.811980
     91          6           0      -10.912675   -3.586072   -2.067681
     92          6           0      -11.049946   -5.081778   -2.324211
     93          1           0      -10.239837   -5.774950   -3.411746
     94          7           0      -11.901115    2.354176   -0.002466
     95          6           0      -10.531599    2.053506    0.021854
     96          6           0       -9.818507    3.302406    0.171233
     97          6           0      -10.730950    4.352332    0.102476
     98          6           0      -12.042245    3.676915    0.050915
     99          6           0       -8.328646    3.278852    0.129691
    100          6           0      -10.540565    5.866290    0.188329
    101          8           0      -11.456923    6.692815    0.145776
    102          6           0       -9.150843    6.369348    0.180125
    103          7           0      -14.842532    2.407755    0.602231
    104          6           0      -14.614394    3.742808    0.414250
    105          6           0      -15.955974    4.551149    0.426631
    106          6           0      -16.996406    3.481939    0.733794
    107          6           0      -16.185288    2.159885    0.829639
    108          6           0      -15.934977    5.783340    1.389157
    109          6           0      -18.065305    3.469262   -0.369581
    110          6           0      -19.492549    3.370600    0.030251
    111          7           0      -14.933421   -0.476475    0.359164
    112          6           0      -16.262584   -0.374402    0.683528
    113          6           0      -16.889744   -1.661359    0.729399
    114          6           0      -15.880942   -2.622677    0.229564
    115          6           0      -14.702776   -1.803653    0.017658
    116          6           0      -18.341439   -1.941111    1.154443
    117          6           0      -15.563623   -4.031145   -0.116483
    118          8           0      -16.307899   -5.022310   -0.205983
    119          6           0      -14.025631   -4.000271   -0.494854
    120          6           0      -13.492856   -4.971052    0.512170
    121          8           0      -13.136122   -4.756313    1.664298
    122          8           0      -13.315335   -6.146462   -0.026126
    123          6           0      -12.949606   -7.300480    0.830660
    124          1           0       -8.971914    0.521592   -0.279863
    125          1           0      -13.372221    5.343853    0.361130
    126          1           0      -17.941097    0.904038    1.118803
    127          1           0      -10.985094   -3.626943    0.170078
    128          1           0       -9.225846   -1.525469   -1.267832
    129          1           0       -9.274365   -2.747496    1.547846
    130          1           0       -8.819431   -1.084120    1.364879
    131          1           0       -7.965392   -2.323181    0.447077
    132          1           0       -9.929521   -3.333047   -2.464859
    133          1           0      -11.673015   -3.171804   -2.728551
    134          1           0      -12.070114   -5.120070   -2.706449
    135          1           0      -10.888004   -5.490137   -1.326603
    136          1           0       -7.936267    3.843223   -0.715132
    137          1           0       -7.954003    2.258311    0.046750
    138          1           0       -7.866009    3.716084    1.013986
    139          1           0       -8.602152    5.907231   -0.640636
    140          1           0       -8.576107    6.020049    1.038015
    141          1           0       -9.062025    7.444804    0.029830
    142          1           0      -15.999240    4.913614   -0.600297
    143          1           0      -17.546622    3.718181    1.644441
    144          1           0      -14.951869    6.015243    1.798554
    145          1           0      -16.587180    5.676223    2.255117
    146          1           0      -16.398746    6.639669    0.899767
    147          1           0      -17.789536    2.589593   -0.949761
    148          1           0      -18.071284    4.352363   -1.008008
    149          1           0      -19.868257    2.503975   -0.513214
    150          1           0      -20.002367    4.316047   -0.154736
    151          1           0      -19.660040    3.100818    1.073195
    152          1           0      -18.365431   -2.133372    2.226451
    153          1           0      -18.707307   -2.790413    0.577644
    154          1           0      -18.991293   -1.080978    0.991843
    155          1           0      -13.945307   -4.403007   -1.504370
    156          1           0      -12.003493   -7.179787    1.357163
    157          1           0      -12.923381   -8.255076    0.305520
    158          1           0      -13.649529   -7.566014    1.622345
 ---------------------------------------------------------------------

 SCF Done:  E(RPBE1PBE) =  -4067.36505030     A.U. after   16 cycles

 Excitation energies and oscillator strengths:

 Excited State   1:      Singlet-A      1.8639 eV  665.20 nm  f=0.3764  <S**2>=0.000
     310 -> 316       -0.18318
     312 -> 314        0.68967
 This state for optimization and/or second-order correction.
 Total Energy, E(TD-HF/TD-DFT) =  -4067.29655424
 Copying the excited state density for this state as the 1-particle RhoCI density.

 Excited State   2:      Singlet-A      1.8969 eV  653.62 nm  f=0.3389  <S**2>=0.000
     309 -> 315        0.18771
     311 -> 313        0.68730

 Excited State   3:      Singlet-A      1.9035 eV  651.33 nm  f=0.0000  <S**2>=0.000
     312 -> 313        0.70710

 Excited State   4:      Singlet-A      2.0713 eV  598.59 nm  f=0.0000  <S**2>=0.000
     311 -> 314        0.70710

 Excited State   5:      Singlet-A      2.2119 eV  560.54 nm  f=0.1061  <S**2>=0.000
     310 -> 314        0.65041
     312 -> 316        0.26764

 The electronic state is 1-A.
 Alpha  occ. eigenvalues --  -46.93867 -46.91894 -19.26777 -19.25885 -19.20368
 Alpha  occ. eigenvalues --  -19.19969 -19.19447 -19.19306 -19.19179 -19.18423
 Alpha  occ. eigenvalues --  -14.41937 -14.41882 -14.41493 -14.41277 -14.40135
 Alpha  occ. eigenvalues --  -14.39303 -14.39290 -14.38792 -10.37109 -10.35641
 Alpha  occ. eigenvalues --  -10.33167 -10.32789 -10.32747 -10.32391 -10.30562
 Alpha  occ. eigenvalues --  -10.29378 -10.29264 -10.29137 -10.29087 -10.28880
 Alpha  occ. eigenvalues --  -10.28817 -10.28781 -10.28520 -10.28437 -10.28414
 Alpha  occ. eigenvalues --  -10.28344 -10.28140 -10.27977 -10.27777 -10.27583
 Alpha  occ. eigenvalues --  -10.27271 -10.27125 -10.26940 -10.26927 -10.26814
 Alpha  occ. eigenvalues --  -10.26772 -10.26545 -10.26393 -10.26327 -10.26321
 Alpha  occ. eigenvalues --  -10.26312 -10.26229 -10.26125 -10.26096 -10.25856
 Alpha  occ. eigenvalues --  -10.25821 -10.25810 -10.25780 -10.25676 -10.25655
 Alpha  occ. eigenvalues --  -10.25573 -10.25536 -10.25359 -10.25279 -10.25273
 Alpha  occ. eigenvalues --  -10.25271 -10.24869 -10.24837 -10.24583 -10.24577
 Alpha  occ. eigenvalues --  -10.24038 -10.24015 -10.23963 -10.23897 -10.23867
 Alpha  occ. eigenvalues --  -10.23843 -10.23788 -10.23674 -10.23603 -10.23522
 Alpha  occ. eigenvalues --  -10.23465 -10.23387 -10.23306 -10.23253 -10.22884
 Alpha  occ. eigenvalues --  -10.22311  -3.15814  -3.14069  -1.88614  -1.88206
 Alpha  occ. eigenvalues --   -1.88025  -1.86911  -1.86445  -1.86296  -1.12574
 Alpha  occ. eigenvalues --   -1.11311  -1.06211  -1.05614  -1.04463  -1.03290
 Alpha  occ. eigenvalues --   -1.01948  -1.01280  -0.99967  -0.99419  -0.98514
 Alpha  occ. eigenvalues --   -0.98381  -0.97763  -0.97374  -0.96709  -0.96229
 Alpha  occ. eigenvalues --   -0.86971  -0.86246  -0.83781  -0.83363  -0.83143
 Alpha  occ. eigenvalues --   -0.82873  -0.82672  -0.82076  -0.81796  -0.81777
 Alpha  occ. eigenvalues --   -0.81022  -0.80570  -0.79886  -0.79454  -0.79185
 Alpha  occ. eigenvalues --   -0.78618  -0.77828  -0.77740  -0.77104  -0.76950
 Alpha  occ. eigenvalues --   -0.76608  -0.76143  -0.75225  -0.75129  -0.74816
 Alpha  occ. eigenvalues --   -0.74778  -0.72803  -0.71919  -0.71805  -0.71681
 Alpha  occ. eigenvalues --   -0.71124  -0.71006  -0.70790  -0.70534  -0.69734
 Alpha  occ. eigenvalues --   -0.69424  -0.67387  -0.66729  -0.66548  -0.66161
 Alpha  occ. eigenvalues --   -0.64324  -0.63857  -0.63423  -0.62839  -0.62596
 Alpha  occ. eigenvalues --   -0.62172  -0.61619  -0.61195  -0.60416  -0.60129
 Alpha  occ. eigenvalues --   -0.59660  -0.59507  -0.59404  -0.59328  -0.59250
 Alpha  occ. eigenvalues --   -0.58712  -0.58380  -0.57023  -0.55199  -0.54641
 Alpha  occ. eigenvalues --   -0.53958  -0.53932  -0.53560  -0.53545  -0.53047
 Alpha  occ. eigenvalues --   -0.52899  -0.52384  -0.52361  -0.52215  -0.51991
 Alpha  occ. eigenvalues --   -0.51068  -0.50847  -0.50701  -0.50145  -0.50142
 Alpha  occ. eigenvalues --   -0.49716  -0.49553  -0.48917  -0.48839  -0.48743
 Alpha  occ. eigenvalues --   -0.48431  -0.48358  -0.47873  -0.47844  -0.47575
 Alpha  occ. eigenvalues --   -0.47382  -0.47351  -0.47168  -0.46827  -0.46672
 Alpha  occ. eigenvalues --   -0.46628  -0.46248  -0.46096  -0.46035  -0.45825
 Alpha  occ. eigenvalues --   -0.45420  -0.45270  -0.45236  -0.44922  -0.44703
 Alpha  occ. eigenvalues --   -0.44619  -0.44553  -0.44404  -0.44321  -0.44197
 Alpha  occ. eigenvalues --   -0.44150  -0.43853  -0.43680  -0.43491  -0.43433
 Alpha  occ. eigenvalues --   -0.43418  -0.43138  -0.43072  -0.42792  -0.42556
 Alpha  occ. eigenvalues --   -0.42311  -0.42304  -0.42140  -0.42043  -0.41974
 Alpha  occ. eigenvalues --   -0.41664  -0.41418  -0.41193  -0.41156  -0.40920
 Alpha  occ. eigenvalues --   -0.40870  -0.40749  -0.40586  -0.40565  -0.40348
 Alpha  occ. eigenvalues --   -0.40277  -0.40195  -0.40136  -0.40028  -0.39945
 Alpha  occ. eigenvalues --   -0.39748  -0.39700  -0.39463  -0.39107  -0.39083
 Alpha  occ. eigenvalues --   -0.38881  -0.38812  -0.38755  -0.38736  -0.38519
 Alpha  occ. eigenvalues --   -0.38241  -0.38059  -0.38006  -0.37871  -0.37824
 Alpha  occ. eigenvalues --   -0.37719  -0.37635  -0.37316  -0.37272  -0.37118
 Alpha  occ. eigenvalues --   -0.36931  -0.36698  -0.36634  -0.36352  -0.36255
 Alpha  occ. eigenvalues --   -0.36220  -0.36034  -0.35661  -0.35361  -0.35299
 Alpha  occ. eigenvalues --   -0.34943  -0.34912  -0.34764  -0.34344  -0.34259
 Alpha  occ. eigenvalues --   -0.33979  -0.33352  -0.33222  -0.32844  -0.32331
 Alpha  occ. eigenvalues --   -0.32305  -0.32182  -0.31809  -0.31672  -0.31456
 Alpha  occ. eigenvalues --   -0.31277  -0.30795  -0.29874  -0.29623  -0.29533
 Alpha  occ. eigenvalues --   -0.28795  -0.28781  -0.28015  -0.27197  -0.27002
 Alpha  occ. eigenvalues --   -0.26266  -0.26256  -0.26153  -0.25884  -0.25831
 Alpha  occ. eigenvalues --   -0.25639  -0.25528  -0.24627  -0.21058  -0.20753
 Alpha  occ. eigenvalues --   -0.19110  -0.18716
 Alpha virt. eigenvalues --   -0.11238  -0.10998  -0.05614  -0.05326  -0.04326
 Alpha virt. eigenvalues --   -0.04210  -0.02477  -0.02216  -0.02055  -0.00211
 Alpha virt. eigenvalues --   -0.00104   0.01065   0.01150   0.01684   0.01871

 Mulliken charges:
               1
     1  Mg  12.000015
     2  C    6.000198
     3  C    5.999856
     4  C    5.999784
     5  C    6.000051
     6  N    6.999984
     7  C    5.999498
     8  C    6.000168
     9  C    5.999957
    10  C    6.000210
    11  C    5.999936
    12  C    6.000069
    13  C    6.000337
    14  H    0.999191
    15  N    6.999887
    16  C    6.000399
    17  C    6.000299
    18  C    6.000215
    19  C    6.000450
    20  C    5.999938
    21  C    6.000163
    22  O    8.000345
    23  C    5.999950
    24  N    6.999973
    25  C    6.000487
    26  C    5.999835
    27  C    6.000100
    28  C    5.999693
    29  C    6.000006
    30  C    6.000022
    31  C    5.999985
    32  N    7.000033
    33  C    5.999659
    34  C    5.999533
    35  C    6.000015
    36  C    5.999541
    37  C    6.000049
    38  C    5.999707
    39  O    7.999583
    40  C    5.999936
    41  C    6.000044
    42  O    7.999889
    43  O    8.000007
    44  C    5.999967
    45  H    1.000041
    46  H    1.000235
    47  H    1.000048
    48  H    1.000031
    49  H    0.999833
    50  H    1.000020
    51  H    1.000052
    52  H    1.000264
    53  H    0.999982
    54  H    0.999748
    55  H    1.000082
    56  H    0.999902
    57  H    1.000140
    58  H    1.000242
    59  H    1.000295
    60  H    1.000275
    61  H    1.000224
    62  H    1.000006
    63  H    0.999976
    64  H    1.000148
    65  H    1.000015
    66  H    1.000111
    67  H    1.000237
    68  H    0.999834
    69  H    0.999923
    70  H    0.999977
    71  H    1.000074
    72  H    1.000150
    73  H    0.999724
    74  H    0.999977
    75  H    0.999843
    76  H    0.999595
    77  H    1.000001
    78  H    0.999890
    79  H    1.000140
    80  Mg  11.995317
    81  C    6.019634
    82  C    5.999183
    83  C    5.974008
    84  C    6.006191
    85  N    7.011349
    86  C    5.967497
    87  C    6.015271
    88  C    5.989097
    89  C    6.030475
    90  C    5.995787
    91  C    6.002720
    92  C    6.002076
    93  H    0.994228
    94  N    6.992958
    95  C    6.032726
    96  C    6.018209
    97  C    6.018994
    98  C    6.026198
    99  C    5.994272
   100  C    6.013004
   101  O    8.028976
   102  C    5.995389
   103  N    6.989909
   104  C    6.041082
   105  C    5.994109
   106  C    6.007322
   107  C    5.972696
   108  C    5.997224
   109  C    6.002092
   110  C    6.000142
   111  N    7.000300
   112  C    5.971502
   113  C    5.969107
   114  C    5.999255
   115  C    5.969546
   116  C    6.000049
   117  C    5.981810
   118  O    7.973169
   119  C    5.998656
   120  C    5.999112
   121  O    7.992200
   122  O    7.999170
   123  C    6.002593
   124  H    1.012582
   125  H    1.002964
   126  H    0.990260
   127  H    0.999100
   128  H    0.999188
   129  H    1.012724
   130  H    0.995523
   131  H    1.006535
   132  H    0.991368
   133  H    1.001180
   134  H    1.004632
   135  H    1.000002
   136  H    1.017464
   137  H    1.014988
   138  H    1.018014
   139  H    1.005341
   140  H    1.007095
   141  H    1.013674
   142  H    0.999722
   143  H    0.997502
   144  H    0.993907
   145  H    1.007400
   146  H    1.003142
   147  H    1.003801
   148  H    0.989432
   149  H    1.003175
   150  H    0.993986
   151  H    1.000950
   152  H    0.980523
   153  H    0.985736
   154  H    0.982444
   155  H    0.992000
   156  H    0.993954
   157  H    0.995937
   158  H    0.999155
 Sum of Mulliken charges = 624.00000

 Dipole moment (field-independent basis, Debye):
    X=              7.7455    Y=              6.8096    Z=             -0.3742  Tot=             10.3200
 Quadrupole moment (field-independent basis, Debye-Ang):
   XX=           -199.5667   YY=             10.0682   ZZ=             -1.0892
   XY=            -81.1238   XZ=              9.3580   YZ=              0.8402

 Normal termination of Gaussian 16 at Fri Oct 15 00:19:25 2021.
