 Gaussian 16, Revision A.03,
 Gaussian 16:  ES64L-G16RevA.03 25-Dec-2016

 --------------------------------------------------------
 #p PBE1PBE/Def2SVP td=(nstates=5) density=(transition=1)
 --------------------------------------------------------

 --------------------------------
 TDDFT excited states in gaussian
 --------------------------------
 Symbolic Z-matrix:
 Charge =  0 Multiplicity = 1

                         Standard orientation:
 ---------------------------------------------------------------------
 Center     Atomic      Atomic             Coordinates (Angstroms)
 Number     Number       Type             X           Y           Z
 ---------------------------------------------------------------------
      1         12           0      -29.132829   -0.010553   -0.536242
      2          6           0      -25.633104    0.029383   -0.219179
      3          6           0      -29.059726   -3.421230   -0.107189
      4          6           0      -32.407051    0.140269   -0.086495
      5          6           0      -29.087045    3.537289   -0.705253
      6          7           0      -27.568175   -1.457329    0.045475
      7          6           0      -26.169646   -1.230184    0.120492
      8          6           0      -25.385328   -2.476816    0.092593
      9          6           0      -26.521228   -3.586926    0.027867
     10          6           0      -27.810662   -2.785107   -0.052921
     11          6           0      -26.270250   -4.629628   -1.088288
     12          6           0      -24.577299   -2.736258    1.327382
     13          6           0      -25.210002   -2.327890    2.666069
     14          1           0      -24.981748   -3.177168    3.976724
     15          7           0      -30.592630   -1.445669   -0.180095
     16          6           0      -30.352714   -2.770778   -0.166401
     17          6           0      -31.616007   -3.461323   -0.094298
     18          6           0      -32.618511   -2.462542   -0.161172
     19          6           0      -31.909039   -1.173186   -0.177303
     20          6           0      -31.803000   -4.947085    0.056737
     21          6           0      -34.125753   -2.713479   -0.196637
     22          8           0      -34.574581   -3.842374   -0.156460
     23          6           0      -35.221410   -1.689396   -0.166326
     24          7           0      -30.515786    1.598374   -0.156991
     25          6           0      -31.866228    1.397834   -0.050004
     26          6           0      -32.657929    2.738344   -0.200784
     27          6           0      -31.523351    3.800660   -0.083086
     28          6           0      -30.304126    2.944569   -0.347289
     29          6           0      -33.432508    2.908102   -1.530040
     30          6           0      -31.278573    4.409734    1.377571
     31          6           0      -31.129640    5.884985    1.472957
     32          7           0      -27.750226    1.464891   -0.582236
     33          6           0      -27.885350    2.773250   -0.837492
     34          6           0      -26.561392    3.355514   -1.276790
     35          6           0      -25.673114    2.250311   -1.082024
     36          6           0      -26.419326    1.175080   -0.521919
     37          6           0      -26.206518    4.755600   -1.756466
     38          6           0      -24.280565    1.906112   -1.075356
     39          8           0      -23.294517    2.576890   -1.336719
     40          6           0      -24.211812    0.420305   -0.536529
     41          6           0      -23.505585    0.469547    0.802477
     42          8           0      -23.901773    0.945651    1.814578
     43          8           0      -22.333715   -0.247863    0.689477
     44          6           0      -21.688298   -0.528676    1.975908
     45          1           0      -29.015412   -4.510363   -0.169659
     46          1           0      -33.496217    0.200705   -0.117267
     47          1           0      -29.157779    4.610079   -0.896428
     48          1           0      -24.720758   -2.428641   -0.770029
     49          1           0      -26.715702   -4.127211    0.954295
     50          1           0      -26.427542   -5.553681   -0.531689
     51          1           0      -25.246102   -4.485422   -1.432609
     52          1           0      -27.010661   -4.586263   -1.887292
     53          1           0      -23.537734   -2.416477    1.250897
     54          1           0      -24.358160   -3.787350    1.516506
     55          1           0      -26.277580   -2.252536    2.456665
     56          1           0      -24.847631   -1.306494    2.783747
     57          1           0      -32.544478   -5.172433    0.823959
     58          1           0      -30.840230   -5.424168    0.239547
     59          1           0      -32.184151   -5.263727   -0.914415
     60          1           0      -35.299159   -1.113229    0.755115
     61          1           0      -36.102771   -2.330417   -0.141416
     62          1           0      -35.326886   -1.145150   -1.105429
     63          1           0      -33.380904    2.788430    0.613302
     64          1           0      -31.599382    4.599637   -0.821074
     65          1           0      -32.958415    3.701455   -2.107625
     66          1           0      -34.510095    2.938935   -1.369759
     67          1           0      -33.305756    2.001596   -2.120802
     68          1           0      -30.428940    3.930989    1.863882
     69          1           0      -32.165898    4.107801    1.934243
     70          1           0      -31.840676    6.341692    2.161084
     71          1           0      -31.197156    6.392765    0.510546
     72          1           0      -30.157374    6.167748    1.875590
     73          1           0      -25.448873    5.132281   -1.069287
     74          1           0      -27.137766    5.309670   -1.880580
     75          1           0      -25.687344    4.613600   -2.704216
     76          1           0      -23.709907   -0.250067   -1.233876
     77          1           0      -22.397404   -0.612896    2.799308
     78          1           0      -21.035131    0.331535    2.122903
     79          1           0      -21.017542   -1.367449    1.791754
     80         12           0       28.477176    0.714897   -0.510670
     81          6           0       27.514848   -2.676593   -0.527788
     82          6           0       25.605293    1.389355    1.193606
     83          6           0       29.750193    3.813216    0.168520
     84          6           0       31.601626   -0.389795   -1.821198
     85          7           0       26.796196   -0.557506    0.382141
     86          6           0       26.500149   -1.868849    0.143004
     87          6           0       25.250571   -2.333847    0.910608
     88          6           0       24.567984   -0.888258    1.074531
     89          6           0       25.729823    0.051457    0.867989
     90          6           0       23.407121   -0.576053    0.092463
     91          6           0       25.551490   -2.995610    2.330078
     92          6           0       24.532524   -3.955126    2.925178
     93          1           0       23.694112   -3.595692    4.170327
     94          7           0       27.802580    2.476021    0.522266
     95          6           0       26.533321    2.549382    1.018068
     96          6           0       26.216565    3.854931    1.397177
     97          6           0       27.399342    4.628219    1.091820
     98          6           0       28.420886    3.663442    0.595230
     99          6           0       24.877410    4.300035    1.972465
    100          6           0       27.472906    6.122472    1.310601
    101          8           0       26.472080    6.733012    1.767000
    102          6           0       28.703462    7.003650    0.895895
    103          7           0       30.374403    1.515899   -0.808147
    104          6           0       30.649460    2.867892   -0.467162
    105          6           0       31.940042    3.304472   -1.102846
    106          6           0       32.677256    1.985065   -1.418983
    107          6           0       31.498454    0.968704   -1.435837
    108          6           0       31.913503    4.135630   -2.405482
    109          6           0       33.739776    1.582284   -0.266202
    110          6           0       35.131991    2.193434   -0.315993
    111          7           0       29.292768   -1.143090   -1.229874
    112          6           0       30.552871   -1.427490   -1.734330
    113          6           0       30.707480   -2.776539   -1.992270
    114          6           0       29.488741   -3.341072   -1.578523
    115          6           0       28.674556   -2.300720   -1.099938
    116          6           0       31.930538   -3.408963   -2.577644
    117          6           0       28.761287   -4.498078   -1.554581
    118          8           0       29.010113   -5.590081   -2.026187
    119          6           0       27.564097   -4.159005   -0.641790
    120          6           0       27.837300   -4.889645    0.638954
    121          8           0       28.817194   -4.736148    1.299499
    122          8           0       26.824098   -5.816250    0.891279
    123          6           0       27.120665   -6.650462    2.003533
    124          1           0       24.616362    1.684672    1.551010
    125          1           0       30.135252    4.835498    0.174258
    126          1           0       32.527995   -0.627012   -2.348050
    127          1           0       24.565944   -2.905737    0.285138
    128          1           0       24.132871   -0.867400    2.073316
    129          1           0       22.525343   -0.790132    0.697051
    130          1           0       23.403112   -1.243731   -0.769017
    131          1           0       23.395819    0.475552   -0.194535
    132          1           0       25.645585   -2.225257    3.095514
    133          1           0       26.542319   -3.444201    2.255257
    134          1           0       25.115415   -4.850894    3.144366
    135          1           0       23.840387   -4.222923    2.127008
    136          1           0       24.475904    5.279767    1.711421
    137          1           0       25.115152    4.165366    3.027406
    138          1           0       24.081373    3.654291    1.601676
    139          1           0       28.837168    6.953388   -0.184366
    140          1           0       29.512197    6.553837    1.471511
    141          1           0       28.699509    8.033490    1.252740
    142          1           0       32.500921    3.824324   -0.326819
    143          1           0       33.198593    2.021096   -2.375614
    144          1           0       32.301092    3.626813   -3.287907
    145          1           0       32.132617    5.185665   -2.210682
    146          1           0       30.852236    4.206481   -2.643257
    147          1           0       33.775654    0.503717   -0.418194
    148          1           0       33.336604    1.795706    0.723930
    149          1           0       35.357573    2.646080    0.649200
    150          1           0       35.159372    2.961296   -1.089627
    151          1           0       35.894689    1.431909   -0.480748
    152          1           0       32.168061   -4.253074   -1.930868
    153          1           0       32.801201   -2.752948   -2.542740
    154          1           0       31.770796   -3.786985   -3.587585
    155          1           0       26.661438   -4.544539   -1.114531
    156          1           0       27.616279   -7.557352    1.658176
    157          1           0       26.234197   -7.070480    2.480303
    158          1           0       27.760236   -6.157844    2.733921
 ---------------------------------------------------------------------

 SCF Done:  E(RPBE1PBE) =  -4067.34439694     A.U. after   16 cycles

 Excitation energies and oscillator strengths:

 Excited State   1:      Singlet-A      1.7648 eV  702.55 nm  f=0.0000  <S**2>=0.000
     312 -> 313        0.70711
 This state for optimization and/or second-order correction.
 Total Energy, E(TD-HF/TD-DFT) =  -4067.27954267
 Copying the excited state density for this state as the 1-particle RhoCI density.

 Excited State   2:      Singlet-A      1.8294 eV  677.74 nm  f=0.3606  <S**2>=0.000
     310 -> 316        0.16657
     312 -> 314        0.69541
     312 <- 314       -0.11482

 Excited State   3:      Singlet-A      1.8621 eV  665.84 nm  f=0.3877  <S**2>=0.000
     309 -> 315       -0.18181
     311 -> 313        0.68866
     311 <- 313       -0.10551

 Excited State   4:      Singlet-A      2.1541 eV  575.57 nm  f=0.1182  <S**2>=0.000
     309 -> 313        0.65689
     311 -> 315        0.24322

 Excited State   5:      Singlet-A      2.2201 eV  558.47 nm  f=0.0000  <S**2>=0.000
     311 -> 314        0.70711

 The electronic state is 1-A.
 Alpha  occ. eigenvalues --  -46.93692 -46.91964 -19.26011 -19.25260 -19.21079
 Alpha  occ. eigenvalues --  -19.20592 -19.19360 -19.18425 -19.18356 -19.18158
 Alpha  occ. eigenvalues --  -14.42500 -14.42336 -14.41885 -14.41412 -14.39441
 Alpha  occ. eigenvalues --  -14.39251 -14.39121 -14.38833 -10.36678 -10.36240
 Alpha  occ. eigenvalues --  -10.32227 -10.32138 -10.31727 -10.30458 -10.30109
 Alpha  occ. eigenvalues --  -10.30097 -10.29451 -10.28999 -10.28666 -10.28616
 Alpha  occ. eigenvalues --  -10.28535 -10.28491 -10.28439 -10.28356 -10.28353
 Alpha  occ. eigenvalues --  -10.28197 -10.28068 -10.27919 -10.27686 -10.27587
 Alpha  occ. eigenvalues --  -10.27075 -10.27047 -10.26583 -10.26490 -10.26330
 Alpha  occ. eigenvalues --  -10.26214 -10.26147 -10.26119 -10.25965 -10.25936
 Alpha  occ. eigenvalues --  -10.25935 -10.25835 -10.25829 -10.25798 -10.25696
 Alpha  occ. eigenvalues --  -10.25661 -10.25643 -10.25605 -10.25496 -10.25459
 Alpha  occ. eigenvalues --  -10.25353 -10.25251 -10.25212 -10.25063 -10.25011
 Alpha  occ. eigenvalues --  -10.24925 -10.24721 -10.24446 -10.24171 -10.24123
 Alpha  occ. eigenvalues --  -10.24082 -10.24056 -10.24054 -10.24043 -10.23989
 Alpha  occ. eigenvalues --  -10.23969 -10.23662 -10.23598 -10.23552 -10.23281
 Alpha  occ. eigenvalues --  -10.23102 -10.22915 -10.22898 -10.22798 -10.22780
 Alpha  occ. eigenvalues --  -10.21872  -3.15572  -3.14186  -1.88409  -1.87938
 Alpha  occ. eigenvalues --   -1.87789  -1.86987  -1.86565  -1.86427  -1.12357
 Alpha  occ. eigenvalues --   -1.11995  -1.05119  -1.04822  -1.04704  -1.04289
 Alpha  occ. eigenvalues --   -1.03781  -1.02056  -1.00331  -0.99343  -0.99213
 Alpha  occ. eigenvalues --   -0.98683  -0.98596  -0.97912  -0.97261  -0.96522
 Alpha  occ. eigenvalues --   -0.88717  -0.87538  -0.84145  -0.83739  -0.83221
 Alpha  occ. eigenvalues --   -0.83023  -0.82983  -0.82699  -0.81926  -0.81843
 Alpha  occ. eigenvalues --   -0.81420  -0.80636  -0.80215  -0.80109  -0.79007
 Alpha  occ. eigenvalues --   -0.78649  -0.78461  -0.77916  -0.77167  -0.76996
 Alpha  occ. eigenvalues --   -0.76152  -0.75892  -0.75155  -0.75008  -0.74806
 Alpha  occ. eigenvalues --   -0.74582  -0.72392  -0.72292  -0.71797  -0.71699
 Alpha  occ. eigenvalues --   -0.71214  -0.71131  -0.70355  -0.70273  -0.70044
 Alpha  occ. eigenvalues --   -0.69506  -0.68067  -0.67169  -0.66691  -0.66090
 Alpha  occ. eigenvalues --   -0.63938  -0.63911  -0.63289  -0.63029  -0.62912
 Alpha  occ. eigenvalues --   -0.62789  -0.61640  -0.61524  -0.60679  -0.60293
 Alpha  occ. eigenvalues --   -0.59792  -0.59621  -0.59282  -0.59061  -0.58901
 Alpha  occ. eigenvalues --   -0.58767  -0.57351  -0.56656  -0.55020  -0.54719
 Alpha  occ. eigenvalues --   -0.54516  -0.54138  -0.54075  -0.53773  -0.53550
 Alpha  occ. eigenvalues --   -0.53521  -0.53405  -0.52709  -0.52690  -0.52009
 Alpha  occ. eigenvalues --   -0.51123  -0.51111  -0.50533  -0.50185  -0.49966
 Alpha  occ. eigenvalues --   -0.49854  -0.49667  -0.49658  -0.49196  -0.48685
 Alpha  occ. eigenvalues --   -0.48443  -0.48155  -0.47806  -0.47612  -0.47566
 Alpha  occ. eigenvalues --   -0.47334  -0.47220  -0.46888  -0.46769  -0.46681
 Alpha  occ. eigenvalues --   -0.46620  -0.46422  -0.46258  -0.46049  -0.45943
 Alpha  occ. eigenvalues --   -0.45780  -0.45772  -0.45534  -0.45472  -0.45147
 Alpha  occ. eigenvalues --   -0.44713  -0.44618  -0.44474  -0.44337  -0.44226
 Alpha  occ. eigenvalues --   -0.43996  -0.43982  -0.43937  -0.43634  -0.43543
 Alpha  occ. eigenvalues --   -0.43523  -0.43423  -0.43197  -0.43093  -0.43071
 Alpha  occ. eigenvalues --   -0.42645  -0.42226  -0.42017  -0.41887  -0.41884
 Alpha  occ. eigenvalues --   -0.41805  -0.41697  -0.41602  -0.41455  -0.41277
 Alpha  occ. eigenvalues --   -0.41125  -0.41100  -0.41082  -0.40787  -0.40694
 Alpha  occ. eigenvalues --   -0.40599  -0.40540  -0.40247  -0.40057  -0.39973
 Alpha  occ. eigenvalues --   -0.39840  -0.39497  -0.39477  -0.39404  -0.39164
 Alpha  occ. eigenvalues --   -0.38842  -0.38699  -0.38654  -0.38623  -0.38415
 Alpha  occ. eigenvalues --   -0.38158  -0.38033  -0.37999  -0.37777  -0.37656
 Alpha  occ. eigenvalues --   -0.37411  -0.37375  -0.37291  -0.37169  -0.37081
 Alpha  occ. eigenvalues --   -0.37038  -0.37003  -0.36718  -0.36397  -0.36199
 Alpha  occ. eigenvalues --   -0.36066  -0.36002  -0.35835  -0.35654  -0.35380
 Alpha  occ. eigenvalues --   -0.35270  -0.35213  -0.34790  -0.34355  -0.34034
 Alpha  occ. eigenvalues --   -0.33483  -0.33422  -0.32836  -0.32821  -0.32626
 Alpha  occ. eigenvalues --   -0.32251  -0.32089  -0.32077  -0.31905  -0.31602
 Alpha  occ. eigenvalues --   -0.31454  -0.30743  -0.30384  -0.30249  -0.29907
 Alpha  occ. eigenvalues --   -0.29409  -0.29010  -0.28667  -0.27079  -0.26999
 Alpha  occ. eigenvalues --   -0.26087  -0.25694  -0.25504  -0.25335  -0.25249
 Alpha  occ. eigenvalues --   -0.25231  -0.25131  -0.24618  -0.21304  -0.21225
 Alpha  occ. eigenvalues --   -0.19625  -0.18702
 Alpha virt. eigenvalues --   -0.11986  -0.11236  -0.05978  -0.05317  -0.04269
 Alpha virt. eigenvalues --   -0.04001  -0.01905  -0.01856  -0.01391  -0.01323
 Alpha virt. eigenvalues --    0.00110   0.00757   0.00883   0.01015   0.01254

 Mulliken charges:
               1
     1  Mg  12.000000
     2  C    6.000000
     3  C    6.000000
     4  C    6.000000
     5  C    6.000000
     6  N    7.000000
     7  C    6.000000
     8  C    6.000000
     9  C    6.000000
    10  C    6.000000
    11  C    6.000000
    12  C    6.000000
    13  C    6.000000
    14  H    1.000000
    15  N    7.000000
    16  C    6.000000
    17  C    6.000000
    18  C    6.000000
    19  C    6.000000
    20  C    6.000000
    21  C    6.000000
    22  O    8.000000
    23  C    6.000000
    24  N    7.000000
    25  C    6.000000
    26  C    6.000000
    27  C    6.000000
    28  C    6.000000
    29  C    6.000000
    30  C    6.000000
    31  C    6.000000
    32  N    7.000000
    33  C    6.000000
    34  C    6.000000
    35  C    6.000000
    36  C    6.000000
    37  C    6.000000
    38  C    6.000000
    39  O    8.000000
    40  C    6.000000
    41  C    6.000000
    42  O    8.000000
    43  O    8.000000
    44  C    6.000000
    45  H    1.000000
    46  H    1.000000
    47  H    1.000000
    48  H    1.000000
    49  H    1.000000
    50  H    1.000000
    51  H    1.000000
    52  H    1.000000
    53  H    1.000000
    54  H    1.000000
    55  H    1.000000
    56  H    1.000000
    57  H    1.000000
    58  H    1.000000
    59  H    1.000000
    60  H    1.000000
    61  H    1.000000
    62  H    1.000000
    63  H    1.000000
    64  H    1.000000
    65  H    1.000000
    66  H    1.000000
    67  H    1.000000
    68  H    1.000000
    69  H    1.000000
    70  H    1.000000
    71  H    1.000000
    72  H    1.000000
    73  H    1.000000
    74  H    1.000000
    75  H    1.000000
    76  H    1.000000
    77  H    1.000000
    78  H    1.000000
    79  H    1.000000
    80  Mg  12.000000
    81  C    6.000000
    82  C    6.000000
    83  C    6.000000
    84  C    6.000000
    85  N    7.000000
    86  C    6.000000
    87  C    6.000000
    88  C    6.000000
    89  C    6.000000
    90  C    6.000000
    91  C    6.000000
    92  C    6.000000
    93  H    1.000000
    94  N    7.000000
    95  C    6.000000
    96  C    6.000000
    97  C    6.000000
    98  C    6.000000
    99  C    6.000000
   100  C    6.000000
   101  O    8.000000
   102  C    6.000000
   103  N    7.000000
   104  C    6.000000
   105  C    6.000000
   106  C    6.000000
   107  C    6.000000
   108  C    6.000000
   109  C    6.000000
   110  C    6.000000
   111  N    7.000000
   112  C    6.000000
   113  C    6.000000
   114  C    6.000000
   115  C    6.000000
   116  C    6.000000
   117  C    6.000000
   118  O    8.000000
   119  C    6.000000
   120  C    6.000000
   121  O    8.000000
   122  O    8.000000
   123  C    6.000000
   124  H    1.000000
   125  H    1.000000
   126  H    1.000000
   127  H    1.000000
   128  H    1.000000
   129  H    1.000000
   130  H    1.000000
   131  H    1.000000
   132  H    1.000000
   133  H    1.000000
   134  H    1.000000
   135  H    1.000000
   136  H    1.000000
   137  H    1.000000
   138  H    1.000000
   139  H    1.000000
   140  H    1.000000
   141  H    1.000000
   142  H    1.000000
   143  H    1.000000
   144  H    1.000000
   145  H    1.000000
   146  H    1.000000
   147  H    1.000000
   148  H    1.000000
   149  H    1.000000
   150  H    1.000000
   151  H    1.000000
   152  H    1.000000
   153  H    1.000000
   154  H    1.000000
   155  H    1.000000
   156  H    1.000000
   157  H    1.000000
   158  H    1.000000
 Sum of Mulliken charges = 624.00000

 Dipole moment (field-independent basis, Debye):
    X=             -0.0000    Y=              0.0000    Z=              0.0000  Tot=              0.0000
 Quadrupole moment (field-independent basis, Debye-Ang):
   XX=             -0.0000   YY=              0.0000   ZZ=             -0.0000
   XY=              0.0000   XZ=              0.0000   YZ=              0.0000

 Normal termination of Gaussian 16 at Wed Oct 13 23:42:41 2021.
