 Gaussian 16, Revision A.03,
 Gaussian 16:  ES64L-G16RevA.03 25-Dec-2016

 --------------------------------------------------------
 #p PBE1PBE/Def2SVP td=(nstates=5) density=(transition=1)
 --------------------------------------------------------

 --------------------------------
 TDDFT excited states in gaussian
 --------------------------------
 Symbolic Z-matrix:
 Charge =  0 Multiplicity = 1

                         Standard orientation:
 ---------------------------------------------------------------------
 Center     Atomic      Atomic             Coordinates (Angstroms)
 Number     Number       Type             X           Y           Z
 ---------------------------------------------------------------------
      1         12           0        4.900344    0.539256    0.278546
      2          6           0        2.859227   -2.074523    1.137362
      3          6           0        7.396166   -1.598540   -0.353961
      4          6           0        6.851827    3.226882   -0.297241
      5          6           0        2.330244    2.814571    1.477212
      6          7           0        5.157010   -1.629720    0.654769
      7          6           0        4.178454   -2.511793    0.891280
      8          6           0        4.742387   -4.022403    0.815586
      9          6           0        6.208405   -3.738191    0.316591
     10          6           0        6.315486   -2.202691    0.224030
     11          6           0        7.295462   -4.432248    1.160120
     12          6           0        3.929945   -4.949023   -0.132901
     13          6           0        4.569867   -6.307053   -0.570128
     14          1           0        4.047844   -7.620307    0.127114
     15          7           0        6.889556    0.780625   -0.211082
     16          6           0        7.718009   -0.193133   -0.526409
     17          6           0        8.986999    0.390526   -0.934074
     18          6           0        8.923352    1.812738   -0.831436
     19          6           0        7.509687    1.997541   -0.436264
     20          6           0       10.254093   -0.386285   -1.251388
     21          6           0       10.002207    2.874311   -1.019077
     22          8           0        9.841840    4.019746   -0.607628
     23          6           0       11.265326    2.496414   -1.710352
     24          7           0        4.633448    2.718716    0.599585
     25          6           0        5.566618    3.590090    0.235279
     26          6           0        5.066424    5.041700    0.319764
     27          6           0        3.598509    4.817847    0.673631
     28          6           0        3.536398    3.364850    0.964621
     29          6           0        5.809127    6.007424    1.255087
     30          6           0        2.628310    5.428952   -0.305460
     31          6           0        1.699408    6.564180    0.255278
     32          7           0        3.015342    0.440388    1.063745
     33          6           0        2.040812    1.427718    1.431793
     34          6           0        0.780682    0.811788    1.785006
     35          6           0        1.109022   -0.565795    1.649146
     36          6           0        2.437778   -0.718399    1.233582
     37          6           0       -0.563491    1.392552    2.049992
     38          6           0        0.437388   -1.840710    1.628710
     39          8           0       -0.750510   -2.193687    1.675170
     40          6           0        1.496050   -2.897559    1.435929
     41          6           0        1.687846   -3.644738    2.774146
     42          8           0        1.741900   -3.156207    3.913199
     43          8           0        1.800443   -4.973318    2.489997
     44          6           0        1.959225   -5.920244    3.638938
     45          1           0        8.243951   -2.188333   -0.708760
     46          1           0        7.458559    4.134240   -0.265012
     47          1           0        1.561319    3.559551    1.689554
     48          1           0        4.731141   -4.353672    1.853333
     49          1           0        6.278254   -4.095645   -0.710735
     50          1           0        8.023389   -4.842130    0.460809
     51          1           0        6.897196   -5.274937    1.725344
     52          1           0        7.770792   -3.725487    1.840414
     53          1           0        3.884938   -4.412005   -1.080350
     54          1           0        2.967393   -5.190876    0.317625
     55          1           0        5.613833   -6.277510   -0.256406
     56          1           0        4.410054   -6.438847   -1.639709
     57          1           0       10.092145   -1.461192   -1.171399
     58          1           0       11.040749   -0.102707   -0.552628
     59          1           0       10.621374   -0.171785   -2.254177
     60          1           0       10.948783    1.986464   -2.620647
     61          1           0       12.020902    1.854536   -1.258385
     62          1           0       11.875142    3.359011   -1.976789
     63          1           0        5.135213    5.470889   -0.679236
     64          1           0        3.412439    5.337508    1.613374
     65          1           0        5.830136    6.945221    0.700484
     66          1           0        6.785451    5.605608    1.525685
     67          1           0        5.358968    6.113352    2.242071
     68          1           0        1.952691    4.607395   -0.541408
     69          1           0        3.105493    5.843468   -1.193009
     70          1           0        1.897489    6.717286    1.316473
     71          1           0        0.670362    6.219288    0.149636
     72          1           0        1.721075    7.503082   -0.298164
     73          1           0       -0.566664    2.455573    1.810445
     74          1           0       -0.682669    1.349832    3.132001
     75          1           0       -1.243915    0.813464    1.423998
     76          1           0        1.085591   -3.546412    0.661996
     77          1           0        2.695192   -5.623368    4.386544
     78          1           0        2.158297   -6.951187    3.348184
     79          1           0        1.008308   -5.888388    4.170496
     80         12           0       -4.906344    0.557526   -0.293515
     81          6           0       -2.735382   -1.968216   -1.366917
     82          6           0       -7.314125   -1.786582    0.329667
     83          6           0       -7.006853    3.023019    0.377605
     84          6           0       -2.366988    2.915713   -1.169328
     85          7           0       -4.998120   -1.641500   -0.553592
     86          6           0       -3.997903   -2.507401   -0.936312
     87          6           0       -4.399142   -3.942795   -0.650642
     88          6           0       -5.952362   -3.830792   -0.384484
     89          6           0       -6.053834   -2.293548   -0.099289
     90          6           0       -6.807747   -4.257590   -1.570603
     91          6           0       -3.460980   -4.553088    0.453564
     92          6           0       -3.929818   -5.944504    0.962360
     93          1           0       -4.680276   -6.812496   -0.026248
     94          7           0       -6.814841    0.605695    0.272007
     95          6           0       -7.702965   -0.456784    0.382464
     96          6           0       -9.058225   -0.000345    0.737597
     97          6           0       -8.932765    1.422216    0.785182
     98          6           0       -7.542505    1.730402    0.460598
     99          6           0      -10.182796   -0.927551    1.010282
    100          6           0      -10.036113    2.400765    1.095071
    101          8           0       -9.827493    3.643915    1.161102
    102          6           0      -11.428112    1.931334    1.420720
    103          7           0       -4.683383    2.691139   -0.333417
    104          6           0       -5.732910    3.442736   -0.000066
    105          6           0       -5.407836    4.983175   -0.235649
    106          6           0       -3.876291    4.949611   -0.790796
    107          6           0       -3.622921    3.441482   -0.782283
    108          6           0       -6.467482    5.570193   -1.255677
    109          6           0       -2.820283    5.674306    0.148786
    110          6           0       -2.656700    7.205701   -0.071021
    111          7           0       -3.010261    0.556695   -1.145220
    112          6           0       -2.028247    1.562699   -1.344813
    113          6           0       -0.736357    0.921931   -1.850481
    114          6           0       -0.982956   -0.443912   -1.946229
    115          6           0       -2.362611   -0.619188   -1.424981
    116          6           0        0.567481    1.595344   -2.144464
    117          6           0       -0.432241   -1.743127   -2.253534
    118          8           0        0.675030   -2.096191   -2.671493
    119          6           0       -1.493766   -2.825028   -1.714277
    120          6           0       -1.779486   -3.916205   -2.720519
    121          8           0       -2.611411   -3.834685   -3.583382
    122          8           0       -1.120774   -5.116754   -2.371260
    123          6           0       -1.633303   -6.362541   -2.961220
    124          1           0       -7.985381   -2.642298    0.431386
    125          1           0       -7.709530    3.832844    0.585436
    126          1           0       -1.590386    3.580602   -1.553338
    127          1           0       -4.214435   -4.519321   -1.556173
    128          1           0       -6.315307   -4.341917    0.507799
    129          1           0       -7.459571   -5.045286   -1.193066
    130          1           0       -6.145839   -4.530421   -2.392196
    131          1           0       -7.548176   -3.507895   -1.848550
    132          1           0       -3.331651   -3.698858    1.117414
    133          1           0       -2.489605   -4.664162   -0.027131
    134          1           0       -4.551697   -5.693549    1.821702
    135          1           0       -3.048081   -6.500110    1.281326
    136          1           0      -10.878144   -0.692430    0.204667
    137          1           0      -10.604593   -0.811127    2.008240
    138          1           0      -10.023938   -2.003336    0.925481
    139          1           0      -11.398470    1.351792    2.342388
    140          1           0      -11.624681    1.373536    0.504273
    141          1           0      -12.197171    2.700579    1.485095
    142          1           0       -5.472010    5.346293    0.790823
    143          1           0       -3.720833    5.145852   -1.852508
    144          1           0       -7.190415    4.843297   -1.625538
    145          1           0       -5.955097    5.974910   -2.128882
    146          1           0       -7.048778    6.293267   -0.684287
    147          1           0       -1.878630    5.129553    0.210589
    148          1           0       -3.215561    5.578577    1.159548
    149          1           0       -2.834293    7.679506    0.893769
    150          1           0       -3.331190    7.513796   -0.870027
    151          1           0       -1.644729    7.469056   -0.379609
    152          1           0        1.242193    1.312624   -1.336128
    153          1           0        0.430037    2.675831   -2.201235
    154          1           0        1.095984    1.306610   -3.052751
    155          1           0       -1.067462   -3.230580   -0.797188
    156          1           0       -1.237116   -6.371486   -3.976281
    157          1           0       -2.715214   -6.429258   -2.844913
    158          1           0       -1.228974   -7.172300   -2.354432
 ---------------------------------------------------------------------

 SCF Done:  E(RPBE1PBE) =  -4067.40047184     A.U. after   16 cycles

 Excitation energies and oscillator strengths:

 Excited State   1:      Singlet-A      1.4157 eV  875.75 nm  f=0.0009  <S**2>=0.000
     312 -> 313        0.70596
 This state for optimization and/or second-order correction.
 Total Energy, E(TD-HF/TD-DFT) =  -4067.34844410
 Copying the excited state density for this state as the 1-particle RhoCI density.

 Excited State   2:      Singlet-A      1.8240 eV  679.75 nm  f=0.8727  <S**2>=0.000
     310 -> 316       -0.13527
     311 -> 313        0.42470
     312 -> 314        0.54606

 Excited State   3:      Singlet-A      1.8868 eV  657.10 nm  f=0.0216  <S**2>=0.000
     309 -> 315       -0.13005
     310 -> 316        0.12325
     311 -> 313        0.53989
     312 -> 314       -0.41798

 Excited State   4:      Singlet-A      1.9589 eV  632.93 nm  f=0.0046  <S**2>=0.000
     311 -> 314        0.70016

 Excited State   5:      Singlet-A      2.1518 eV  576.19 nm  f=0.0003  <S**2>=0.000
     310 -> 313        0.70067

 The electronic state is 1-A.
 Alpha  occ. eigenvalues --  -46.92467 -46.90979 -19.26380 -19.24193 -19.19958
 Alpha  occ. eigenvalues --  -19.19823 -19.19605 -19.19091 -19.18528 -19.18221
 Alpha  occ. eigenvalues --  -14.41333 -14.41304 -14.41010 -14.40721 -14.39545
 Alpha  occ. eigenvalues --  -14.39196 -14.39047 -14.38951 -10.36716 -10.35871
 Alpha  occ. eigenvalues --  -10.33089 -10.32274 -10.31969 -10.30874 -10.29545
 Alpha  occ. eigenvalues --  -10.29253 -10.28617 -10.28527 -10.28231 -10.28221
 Alpha  occ. eigenvalues --  -10.28139 -10.28052 -10.28041 -10.27846 -10.27757
 Alpha  occ. eigenvalues --  -10.27747 -10.27682 -10.27529 -10.27472 -10.27277
 Alpha  occ. eigenvalues --  -10.26747 -10.26518 -10.26442 -10.26387 -10.26330
 Alpha  occ. eigenvalues --  -10.26228 -10.26216 -10.26037 -10.25940 -10.25937
 Alpha  occ. eigenvalues --  -10.25931 -10.25851 -10.25575 -10.25373 -10.25354
 Alpha  occ. eigenvalues --  -10.25315 -10.25127 -10.24906 -10.24842 -10.24841
 Alpha  occ. eigenvalues --  -10.24803 -10.24750 -10.24569 -10.24388 -10.24356
 Alpha  occ. eigenvalues --  -10.24180 -10.24095 -10.24052 -10.24006 -10.23970
 Alpha  occ. eigenvalues --  -10.23908 -10.23857 -10.23699 -10.23479 -10.23437
 Alpha  occ. eigenvalues --  -10.23397 -10.23397 -10.23394 -10.23324 -10.23297
 Alpha  occ. eigenvalues --  -10.23153 -10.22919 -10.22860 -10.22694 -10.22457
 Alpha  occ. eigenvalues --  -10.22203  -3.14575  -3.13240  -1.87405  -1.86943
 Alpha  occ. eigenvalues --   -1.86813  -1.86085  -1.85600  -1.85496  -1.10441
 Alpha  occ. eigenvalues --   -1.09707  -1.04979  -1.03512  -1.03197  -1.02131
 Alpha  occ. eigenvalues --   -1.02088  -1.01487  -1.00300  -0.98945  -0.98502
 Alpha  occ. eigenvalues --   -0.98357  -0.97636  -0.97580  -0.97015  -0.95603
 Alpha  occ. eigenvalues --   -0.85649  -0.85330  -0.84277  -0.82805  -0.82753
 Alpha  occ. eigenvalues --   -0.82370  -0.82001  -0.81829  -0.81699  -0.81409
 Alpha  occ. eigenvalues --   -0.81365  -0.81227  -0.80662  -0.80270  -0.78356
 Alpha  occ. eigenvalues --   -0.77864  -0.77661  -0.76916  -0.76444  -0.76255
 Alpha  occ. eigenvalues --   -0.75905  -0.75785  -0.75363  -0.74575  -0.74342
 Alpha  occ. eigenvalues --   -0.73854  -0.72794  -0.72782  -0.71857  -0.71454
 Alpha  occ. eigenvalues --   -0.70915  -0.70710  -0.70320  -0.69618  -0.69525
 Alpha  occ. eigenvalues --   -0.68526  -0.67031  -0.66078  -0.66066  -0.65448
 Alpha  occ. eigenvalues --   -0.63868  -0.63330  -0.63088  -0.62825  -0.62230
 Alpha  occ. eigenvalues --   -0.62175  -0.61832  -0.60991  -0.60304  -0.59724
 Alpha  occ. eigenvalues --   -0.59435  -0.59077  -0.58811  -0.58194  -0.57964
 Alpha  occ. eigenvalues --   -0.57584  -0.57262  -0.55392  -0.55180  -0.54780
 Alpha  occ. eigenvalues --   -0.54191  -0.53565  -0.53408  -0.53229  -0.52728
 Alpha  occ. eigenvalues --   -0.52541  -0.51998  -0.51665  -0.51518  -0.50981
 Alpha  occ. eigenvalues --   -0.50811  -0.50350  -0.50124  -0.49769  -0.49632
 Alpha  occ. eigenvalues --   -0.49047  -0.48717  -0.48658  -0.48335  -0.48089
 Alpha  occ. eigenvalues --   -0.48007  -0.47941  -0.47576  -0.47394  -0.47178
 Alpha  occ. eigenvalues --   -0.47027  -0.46874  -0.46810  -0.46489  -0.46324
 Alpha  occ. eigenvalues --   -0.46188  -0.45927  -0.45883  -0.45694  -0.45507
 Alpha  occ. eigenvalues --   -0.45223  -0.45180  -0.44950  -0.44938  -0.44622
 Alpha  occ. eigenvalues --   -0.44461  -0.44374  -0.44262  -0.44204  -0.43934
 Alpha  occ. eigenvalues --   -0.43632  -0.43611  -0.43543  -0.43509  -0.43412
 Alpha  occ. eigenvalues --   -0.43238  -0.43197  -0.43044  -0.42876  -0.42712
 Alpha  occ. eigenvalues --   -0.42601  -0.42292  -0.42225  -0.42116  -0.41880
 Alpha  occ. eigenvalues --   -0.41623  -0.41553  -0.41159  -0.41015  -0.40832
 Alpha  occ. eigenvalues --   -0.40626  -0.40509  -0.40290  -0.39983  -0.39899
 Alpha  occ. eigenvalues --   -0.39702  -0.39652  -0.39565  -0.39472  -0.39317
 Alpha  occ. eigenvalues --   -0.39183  -0.39097  -0.38958  -0.38828  -0.38772
 Alpha  occ. eigenvalues --   -0.38528  -0.38508  -0.38407  -0.38182  -0.37894
 Alpha  occ. eigenvalues --   -0.37729  -0.37540  -0.37491  -0.37409  -0.37117
 Alpha  occ. eigenvalues --   -0.37051  -0.36916  -0.36819  -0.36803  -0.36739
 Alpha  occ. eigenvalues --   -0.36707  -0.36524  -0.36320  -0.36111  -0.35832
 Alpha  occ. eigenvalues --   -0.35647  -0.35602  -0.35361  -0.35292  -0.35078
 Alpha  occ. eigenvalues --   -0.34505  -0.34288  -0.33886  -0.33855  -0.33249
 Alpha  occ. eigenvalues --   -0.33126  -0.33087  -0.32810  -0.32534  -0.32517
 Alpha  occ. eigenvalues --   -0.32034  -0.31613  -0.31213  -0.31013  -0.30905
 Alpha  occ. eigenvalues --   -0.30712  -0.30390  -0.29405  -0.29110  -0.28953
 Alpha  occ. eigenvalues --   -0.28839  -0.28706  -0.28213  -0.26708  -0.26566
 Alpha  occ. eigenvalues --   -0.26380  -0.26083  -0.25986  -0.25459  -0.25288
 Alpha  occ. eigenvalues --   -0.25191  -0.25072  -0.24834  -0.20764  -0.20369
 Alpha  occ. eigenvalues --   -0.18684  -0.17684
 Alpha virt. eigenvalues --   -0.10998  -0.10024  -0.05288  -0.05046  -0.04035
 Alpha virt. eigenvalues --   -0.03523  -0.02053  -0.01682  -0.00574   0.00346
 Alpha virt. eigenvalues --    0.00827   0.01057   0.01361   0.01806   0.02277

 Mulliken charges:
               1
     1  Mg  11.999638
     2  C    5.999848
     3  C    5.999883
     4  C    6.000084
     5  C    6.000076
     6  N    6.999818
     7  C    5.999877
     8  C    6.000041
     9  C    5.999999
    10  C    6.000141
    11  C    5.999969
    12  C    5.999924
    13  C    5.999931
    14  H    1.000221
    15  N    6.999993
    16  C    6.000137
    17  C    6.000066
    18  C    6.000109
    19  C    6.000009
    20  C    5.999949
    21  C    6.000061
    22  O    8.000116
    23  C    5.999942
    24  N    7.000022
    25  C    6.000118
    26  C    5.999951
    27  C    5.999965
    28  C    5.999991
    29  C    5.999953
    30  C    6.000023
    31  C    6.000013
    32  N    7.000306
    33  C    5.999243
    34  C    6.000915
    35  C    6.000149
    36  C    5.999733
    37  C    5.999147
    38  C    6.000586
    39  O    8.001361
    40  C    5.999777
    41  C    6.000185
    42  O    8.000137
    43  O    8.000019
    44  C    5.999929
    45  H    1.000089
    46  H    1.000138
    47  H    0.999920
    48  H    1.000056
    49  H    1.000031
    50  H    1.000073
    51  H    1.000090
    52  H    1.000048
    53  H    0.999885
    54  H    1.000003
    55  H    1.000056
    56  H    1.000027
    57  H    1.000099
    58  H    1.000122
    59  H    1.000114
    60  H    1.000026
    61  H    1.000095
    62  H    1.000132
    63  H    1.000059
    64  H    1.000132
    65  H    1.000116
    66  H    1.000058
    67  H    1.000119
    68  H    0.999609
    69  H    1.000073
    70  H    1.000116
    71  H    1.000040
    72  H    1.000168
    73  H    1.000832
    74  H    1.001701
    75  H    1.000057
    76  H    1.000029
    77  H    1.000093
    78  H    1.000147
    79  H    1.000157
    80  Mg  11.999409
    81  C    6.000203
    82  C    6.000534
    83  C    6.000567
    84  C    5.999873
    85  N    7.000026
    86  C    5.999535
    87  C    6.000299
    88  C    6.000284
    89  C    5.998335
    90  C    6.000201
    91  C    5.999926
    92  C    6.000200
    93  H    1.000042
    94  N    7.000108
    95  C    5.998654
    96  C    5.999275
    97  C    5.999472
    98  C    5.999000
    99  C    6.000238
   100  C    5.999551
   101  O    7.998931
   102  C    6.000115
   103  N    7.000204
   104  C    5.998774
   105  C    6.000207
   106  C    5.999994
   107  C    6.000284
   108  C    6.000162
   109  C    5.999506
   110  C    6.000167
   111  N    7.000572
   112  C    5.999917
   113  C    6.003141
   114  C    5.999941
   115  C    5.999290
   116  C    5.999421
   117  C    6.001063
   118  O    8.001878
   119  C    5.999361
   120  C    5.999926
   121  O    8.000473
   122  O    7.999901
   123  C    5.999948
   124  H    0.999412
   125  H    0.999663
   126  H    0.999855
   127  H    0.999599
   128  H    0.999639
   129  H    0.999638
   130  H    0.999355
   131  H    0.999990
   132  H    0.999623
   133  H    0.999203
   134  H    1.000128
   135  H    0.999666
   136  H    0.999346
   137  H    0.999266
   138  H    0.999387
   139  H    0.999712
   140  H    0.999844
   141  H    0.999424
   142  H    0.999867
   143  H    0.999711
   144  H    1.000137
   145  H    0.999544
   146  H    0.999871
   147  H    0.999821
   148  H    1.000194
   149  H    1.000042
   150  H    1.000156
   151  H    0.999786
   152  H    1.000054
   153  H    1.001057
   154  H    1.001266
   155  H    1.000581
   156  H    0.999965
   157  H    1.000360
   158  H    1.000070
 Sum of Mulliken charges = 624.00000

 Dipole moment (field-independent basis, Debye):
    X=              0.5756    Y=             -0.0061    Z=             -0.0705  Tot=              0.5799
 Quadrupole moment (field-independent basis, Debye-Ang):
   XX=             -3.7868   YY=             -0.1000   ZZ=              0.3245
   XY=              0.2382   XZ=              0.2014   YZ=             -0.0601

 Normal termination of Gaussian 16 at Thu Oct 14 12:52:14 2021.
