 Gaussian 16, Revision A.03,
 Gaussian 16:  ES64L-G16RevA.03 25-Dec-2016

 --------------------------------------------------------
 #p PBE1PBE/Def2SVP td=(nstates=5) density=(transition=1)
 --------------------------------------------------------

 --------------------------------
 TDDFT excited states in gaussian
 --------------------------------
 Symbolic Z-matrix:
 Charge =  0 Multiplicity = 1

                         Standard orientation:
 ---------------------------------------------------------------------
 Center     Atomic      Atomic             Coordinates (Angstroms)
 Number     Number       Type             X           Y           Z
 ---------------------------------------------------------------------
      1         12           0       29.666981   -0.356962    0.016487
      2          6           0       26.731579    1.478372    0.532470
      3          6           0       27.615291   -2.858926   -1.204749
      4          6           0       32.417850   -2.044252   -0.836611
      5          6           0       31.543546    2.556193    0.477375
      6          7           0       27.297988   -0.530486   -0.479177
      7          6           0       26.334844    0.308944   -0.053052
      8          6           0       24.937443   -0.156944   -0.384481
      9          6           0       25.309951   -1.664091   -0.657019
     10          6           0       26.821059   -1.735477   -0.851427
     11          6           0       24.931802   -2.533608    0.571695
     12          6           0       24.312007    0.697812   -1.494075
     13          6           0       25.175544    1.159258   -2.686489
     14          1           0       24.579060    0.929153   -4.070015
     15          7           0       29.978902   -2.173615   -0.870774
     16          6           0       29.000812   -3.082014   -1.177807
     17          6           0       29.611347   -4.411313   -1.309474
     18          6           0       31.047228   -4.202018   -1.366910
     19          6           0       31.183621   -2.759395   -0.999940
     20          6           0       28.786941   -5.693446   -1.712205
     21          6           0       32.114613   -5.241447   -1.718118
     22          8           0       31.821413   -6.396899   -1.851239
     23          6           0       33.551405   -4.826762   -1.852801
     24          7           0       31.705595    0.300453   -0.354202
     25          6           0       32.737099   -0.624114   -0.602234
     26          6           0       34.176612    0.044269   -0.621064
     27          6           0       33.837098    1.529648   -0.124100
     28          6           0       32.251647    1.462674    0.056980
     29          6           0       35.401207   -0.638367    0.170255
     30          6           0       34.322838    2.742369   -1.041896
     31          6           0       34.714153    4.013799   -0.138378
     32          7           0       29.289529    1.645579    0.479965
     33          6           0       30.163604    2.685720    0.722231
     34          6           0       29.408662    3.850247    1.168564
     35          6           0       28.044438    3.461350    1.193179
     36          6           0       28.015181    2.113528    0.682628
     37          6           0       29.978532    5.144163    1.688093
     38          6           0       26.611412    3.851086    1.399005
     39          8           0       26.122871    4.929286    1.653783
     40          6           0       25.772296    2.555749    1.026328
     41          6           0       25.034072    2.149971    2.272294
     42          8           0       24.002311    2.727693    2.697154
     43          8           0       25.576771    0.975401    2.772924
     44          6           0       24.833594    0.352627    3.816884
     45          1           0       26.966095   -3.684315   -1.504588
     46          1           0       33.387899   -2.543184   -0.891221
     47          1           0       32.156925    3.396417    0.809789
     48          1           0       24.297875   -0.174513    0.497783
     49          1           0       24.861024   -2.152354   -1.520923
     50          1           0       25.680883   -3.324493    0.617186
     51          1           0       23.896769   -2.865208    0.502016
     52          1           0       25.049424   -2.118541    1.573180
     53          1           0       24.021009    1.631493   -1.013749
     54          1           0       23.428814    0.176891   -1.864018
     55          1           0       26.111886    0.601849   -2.679511
     56          1           0       25.321158    2.235702   -2.600825
     57          1           0       28.525560   -5.761922   -2.768534
     58          1           0       27.875358   -5.741681   -1.116467
     59          1           0       29.234771   -6.651803   -1.451863
     60          1           0       34.171910   -5.629073   -2.253346
     61          1           0       33.992688   -4.495816   -0.912459
     62          1           0       33.492686   -4.083673   -2.648526
     63          1           0       34.366850    0.021059   -1.693425
     64          1           0       34.241186    1.709996    0.871619
     65          1           0       35.890426   -1.319290   -0.525269
     66          1           0       35.057301   -1.171468    1.056183
     67          1           0       36.075191    0.149894    0.506276
     68          1           0       33.502908    3.127490   -1.648006
     69          1           0       35.130945    2.433902   -1.705614
     70          1           0       34.081178    4.869599   -0.373357
     71          1           0       35.751018    4.288232   -0.330323
     72          1           0       34.564883    3.962879    0.939602
     73          1           0       30.599295    5.583149    0.907772
     74          1           0       30.603768    4.944545    2.558606
     75          1           0       29.204154    5.874011    1.923658
     76          1           0       25.012699    2.927466    0.338982
     77          1           0       25.295152   -0.603046    4.064329
     78          1           0       23.772290    0.305030    3.572407
     79          1           0       24.929638    0.886604    4.762227
     80         12           0      -28.981706    0.338924   -0.571166
     81          6           0      -28.591453   -1.845268    2.038924
     82          6           0      -28.086067    2.885427    1.406844
     83          6           0      -29.645323    2.386703   -3.165269
     84          6           0      -30.437581   -2.377118   -2.500626
     85          7           0      -28.656465    0.505566    1.614774
     86          6           0      -28.428883   -0.507708    2.459192
     87          6           0      -27.949722    0.046020    3.897762
     88          6           0      -27.813568    1.578875    3.564896
     89          6           0      -28.251619    1.715342    2.092727
     90          6           0      -28.542762    2.497169    4.564877
     91          6           0      -26.631579   -0.599533    4.411642
     92          6           0      -25.878613    0.092938    5.594199
     93          1           0      -26.010191   -0.554425    7.024898
     94          7           0      -28.923701    2.385059   -0.825978
     95          6           0      -28.441150    3.245940    0.045801
     96          6           0      -28.457365    4.571898   -0.553161
     97          6           0      -29.012323    4.505406   -1.866505
     98          6           0      -29.215134    3.046626   -2.006465
     99          6           0      -28.108077    5.867084    0.161081
    100          6           0      -29.360666    5.610790   -2.857897
    101          8           0      -30.096059    5.393023   -3.816440
    102          6           0      -28.794581    6.970513   -2.641479
    103          7           0      -29.957428    0.041954   -2.541983
    104          6           0      -30.055341    1.032480   -3.420669
    105          6           0      -30.533379    0.539437   -4.796492
    106          6           0      -30.554151   -0.969645   -4.567697
    107          6           0      -30.335125   -1.095263   -3.106198
    108          6           0      -31.841048    1.118956   -5.356151
    109          6           0      -29.690123   -1.750253   -5.525538
    110          6           0      -30.438249   -2.750851   -6.476926
    111          7           0      -29.378382   -1.654194   -0.348292
    112          6           0      -29.891124   -2.667918   -1.225472
    113          6           0      -29.815010   -3.976067   -0.613092
    114          6           0      -29.286170   -3.642698    0.664873
    115          6           0      -29.061457   -2.263712    0.762229
    116          6           0      -30.038567   -5.340056   -1.164327
    117          6           0      -28.738860   -4.313162    1.817195
    118          8           0      -28.475751   -5.494645    2.086870
    119          6           0      -28.379651   -3.247505    2.822284
    120          6           0      -29.408484   -3.296899    3.973349
    121          8           0      -30.638088   -3.435494    3.884514
    122          8           0      -28.723408   -3.149948    5.142802
    123          6           0      -29.504925   -3.201142    6.418951
    124          1           0      -27.696677    3.775918    1.904718
    125          1           0      -30.071860    2.987612   -3.971144
    126          1           0      -30.758289   -3.163828   -3.185872
    127          1           0      -28.803937   -0.147424    4.545590
    128          1           0      -26.750980    1.821503    3.574368
    129          1           0      -27.873140    3.330834    4.773506
    130          1           0      -28.726685    1.999092    5.516880
    131          1           0      -29.484952    2.854829    4.149418
    132          1           0      -25.920323   -0.475067    3.595126
    133          1           0      -26.817061   -1.627722    4.722118
    134          1           0      -26.346998    1.067320    5.736869
    135          1           0      -24.814544    0.118864    5.361822
    136          1           0      -27.801662    5.683251    1.190823
    137          1           0      -28.977438    6.524054    0.171602
    138          1           0      -27.304702    6.404026   -0.341685
    139          1           0      -27.728781    6.810876   -2.475733
    140          1           0      -29.123785    7.630417   -1.839402
    141          1           0      -28.928986    7.625575   -3.501576
    142          1           0      -29.756738    0.783828   -5.520397
    143          1           0      -31.570259   -1.310039   -4.766300
    144          1           0      -31.638144    1.244554   -6.419422
    145          1           0      -32.116066    2.029939   -4.824772
    146          1           0      -32.722292    0.506246   -5.166416
    147          1           0      -29.091396   -2.383008   -4.871140
    148          1           0      -29.077561   -1.122999   -6.172524
    149          1           0      -31.507667   -2.737429   -6.264850
    150          1           0      -30.061687   -3.749539   -6.253614
    151          1           0      -30.236894   -2.624794   -7.540820
    152          1           0      -30.166243   -5.291433   -2.245410
    153          1           0      -31.011999   -5.644626   -0.781654
    154          1           0      -29.156287   -5.907846   -0.865354
    155          1           0      -27.379835   -3.524541    3.157064
    156          1           0      -30.416020   -2.602398    6.429380
    157          1           0      -28.925805   -2.964965    7.311056
    158          1           0      -29.858033   -4.229181    6.498084
 ---------------------------------------------------------------------

 SCF Done:  E(RPBE1PBE) =  -4067.37235284     A.U. after   16 cycles

 Excitation energies and oscillator strengths:

 Excited State   1:      Singlet-A      1.8791 eV  659.81 nm  f=0.3833  <S**2>=0.000
     310 -> 316        0.16666
     312 -> 314        0.69068
     312 <- 314       -0.10565
 This state for optimization and/or second-order correction.
 Total Energy, E(TD-HF/TD-DFT) =  -4067.30329792
 Copying the excited state density for this state as the 1-particle RhoCI density.

 Excited State   2:      Singlet-A      1.8968 eV  653.64 nm  f=0.3530  <S**2>=0.000
     309 -> 315        0.18770
     311 -> 313        0.68731

 Excited State   3:      Singlet-A      1.9949 eV  621.49 nm  f=0.0000  <S**2>=0.000
     312 -> 313        0.70711

 Excited State   4:      Singlet-A      2.1201 eV  584.82 nm  f=0.0000  <S**2>=0.000
     311 -> 314        0.70711

 Excited State   5:      Singlet-A      2.2341 eV  554.97 nm  f=0.1045  <S**2>=0.000
     309 -> 313        0.64924
     311 -> 315       -0.26859

 The electronic state is 1-A.
 Alpha  occ. eigenvalues --  -46.93799 -46.92575 -19.26705 -19.26288 -19.20292
 Alpha  occ. eigenvalues --  -19.19893 -19.19721 -19.19656 -19.19120 -19.17994
 Alpha  occ. eigenvalues --  -14.41871 -14.41440 -14.41371 -14.41207 -14.40069
 Alpha  occ. eigenvalues --  -14.39628 -14.39233 -14.38955 -10.37034 -10.36626
 Alpha  occ. eigenvalues --  -10.33142 -10.33090 -10.32332 -10.30530 -10.30496
 Alpha  occ. eigenvalues --  -10.29403 -10.29402 -10.29311 -10.29196 -10.28746
 Alpha  occ. eigenvalues --  -10.28641 -10.28454 -10.28369 -10.28242 -10.28095
 Alpha  occ. eigenvalues --  -10.28069 -10.27905 -10.27797 -10.27790 -10.27717
 Alpha  occ. eigenvalues --  -10.27515 -10.27200 -10.27060 -10.26879 -10.26865
 Alpha  occ. eigenvalues --  -10.26425 -10.26273 -10.26249 -10.26235 -10.26194
 Alpha  occ. eigenvalues --  -10.26155 -10.26135 -10.26029 -10.26026 -10.25818
 Alpha  occ. eigenvalues --  -10.25709 -10.25590 -10.25585 -10.25573 -10.25512
 Alpha  occ. eigenvalues --  -10.25471 -10.25290 -10.25216 -10.25179 -10.24944
 Alpha  occ. eigenvalues --  -10.24824 -10.24496 -10.24495 -10.24437 -10.24351
 Alpha  occ. eigenvalues --  -10.24042 -10.23950 -10.23949 -10.23894 -10.23893
 Alpha  occ. eigenvalues --  -10.23825 -10.23809 -10.23764 -10.23641 -10.23623
 Alpha  occ. eigenvalues --  -10.23613 -10.23532 -10.23466 -10.23153 -10.23137
 Alpha  occ. eigenvalues --  -10.22194  -3.15745  -3.14681  -1.88546  -1.88138
 Alpha  occ. eigenvalues --   -1.87957  -1.87512  -1.87049  -1.86916  -1.11239
 Alpha  occ. eigenvalues --   -1.10342  -1.06152  -1.05537  -1.05030  -1.02744
 Alpha  occ. eigenvalues --   -1.01873  -1.01370  -1.00328  -0.99348  -0.99036
 Alpha  occ. eigenvalues --   -0.98560  -0.98446  -0.97694  -0.97668  -0.96642
 Alpha  occ. eigenvalues --   -0.86898  -0.85662  -0.84221  -0.83285  -0.82992
 Alpha  occ. eigenvalues --   -0.82603  -0.82477  -0.82014  -0.81774  -0.81710
 Alpha  occ. eigenvalues --   -0.81463  -0.81303  -0.80500  -0.79822  -0.79113
 Alpha  occ. eigenvalues --   -0.78460  -0.77674  -0.77593  -0.76880  -0.76495
 Alpha  occ. eigenvalues --   -0.76386  -0.76081  -0.75391  -0.75157  -0.74747
 Alpha  occ. eigenvalues --   -0.74414  -0.72856  -0.71852  -0.71831  -0.71612
 Alpha  occ. eigenvalues --   -0.71032  -0.70936  -0.70723  -0.70390  -0.69695
 Alpha  occ. eigenvalues --   -0.69666  -0.67319  -0.67098  -0.66480  -0.66138
 Alpha  occ. eigenvalues --   -0.64258  -0.63784  -0.63774  -0.63445  -0.62766
 Alpha  occ. eigenvalues --   -0.62205  -0.61981  -0.61553  -0.60352  -0.60289
 Alpha  occ. eigenvalues --   -0.59457  -0.59439  -0.59331  -0.59175  -0.58913
 Alpha  occ. eigenvalues --   -0.58426  -0.58310  -0.57204  -0.55228  -0.54575
 Alpha  occ. eigenvalues --   -0.54228  -0.53888  -0.53473  -0.53469  -0.53256
 Alpha  occ. eigenvalues --   -0.52831  -0.52611  -0.52312  -0.51921  -0.51872
 Alpha  occ. eigenvalues --   -0.50891  -0.50781  -0.50631  -0.50228  -0.50076
 Alpha  occ. eigenvalues --   -0.49659  -0.49642  -0.49109  -0.48847  -0.48638
 Alpha  occ. eigenvalues --   -0.48359  -0.48302  -0.47996  -0.47805  -0.47507
 Alpha  occ. eigenvalues --   -0.47323  -0.47140  -0.47081  -0.46768  -0.46549
 Alpha  occ. eigenvalues --   -0.46371  -0.46183  -0.46032  -0.45756  -0.45755
 Alpha  occ. eigenvalues --   -0.45659  -0.45349  -0.45325  -0.45173  -0.45015
 Alpha  occ. eigenvalues --   -0.44635  -0.44572  -0.44553  -0.44375  -0.44336
 Alpha  occ. eigenvalues --   -0.44211  -0.44133  -0.43959  -0.43609  -0.43603
 Alpha  occ. eigenvalues --   -0.43554  -0.43372  -0.43191  -0.43070  -0.42852
 Alpha  occ. eigenvalues --   -0.42455  -0.42284  -0.42231  -0.41975  -0.41942
 Alpha  occ. eigenvalues --   -0.41913  -0.41598  -0.41462  -0.41354  -0.41167
 Alpha  occ. eigenvalues --   -0.41087  -0.40897  -0.40797  -0.40664  -0.40501
 Alpha  occ. eigenvalues --   -0.40272  -0.40126  -0.39962  -0.39705  -0.39628
 Alpha  occ. eigenvalues --   -0.39552  -0.39267  -0.39132  -0.39039  -0.38850
 Alpha  occ. eigenvalues --   -0.38814  -0.38796  -0.38681  -0.38665  -0.38446
 Alpha  occ. eigenvalues --   -0.38363  -0.38175  -0.37998  -0.37806  -0.37753
 Alpha  occ. eigenvalues --   -0.37671  -0.37646  -0.37203  -0.37050  -0.37000
 Alpha  occ. eigenvalues --   -0.36863  -0.36843  -0.36792  -0.36733  -0.36635
 Alpha  occ. eigenvalues --   -0.36375  -0.36156  -0.35947  -0.35677  -0.35389
 Alpha  occ. eigenvalues --   -0.35282  -0.34845  -0.34218  -0.34198  -0.34002
 Alpha  occ. eigenvalues --   -0.33901  -0.33230  -0.33154  -0.32868  -0.32262
 Alpha  occ. eigenvalues --   -0.32219  -0.32084  -0.31736  -0.31661  -0.31383
 Alpha  occ. eigenvalues --   -0.31200  -0.31015  -0.29804  -0.29496  -0.29461
 Alpha  occ. eigenvalues --   -0.29131  -0.28711  -0.28670  -0.26933  -0.26774
 Alpha  occ. eigenvalues --   -0.26621  -0.26192  -0.26137  -0.26077  -0.25771
 Alpha  occ. eigenvalues --   -0.25456  -0.25360  -0.24789  -0.20990  -0.20855
 Alpha  occ. eigenvalues --   -0.19041  -0.18726
 Alpha virt. eigenvalues --   -0.11170  -0.11025  -0.05547  -0.05329  -0.04140
 Alpha virt. eigenvalues --   -0.03582  -0.02409  -0.01994  -0.01872  -0.00835
 Alpha virt. eigenvalues --   -0.00137   0.00791   0.00953   0.01134   0.01968

 Mulliken charges:
               1
     1  Mg  11.999911
     2  C    5.999938
     3  C    6.000096
     4  C    6.000268
     5  C    5.999998
     6  N    6.999907
     7  C    6.000114
     8  C    5.999966
     9  C    5.999964
    10  C    5.999888
    11  C    6.000025
    12  C    5.999950
    13  C    5.999875
    14  H    1.000109
    15  N    6.999975
    16  C    5.999705
    17  C    5.999657
    18  C    6.000000
    19  C    5.999722
    20  C    6.000019
    21  C    5.999887
    22  O    7.999841
    23  C    6.000031
    24  N    7.000203
    25  C    5.999682
    26  C    6.000040
    27  C    5.999874
    28  C    6.000270
    29  C    5.999989
    30  C    5.999997
    31  C    6.000021
    32  N    6.999824
    33  C    6.000394
    34  C    6.000332
    35  C    5.999868
    36  C    6.000337
    37  C    6.000001
    38  C    6.000287
    39  O    8.000117
    40  C    6.000016
    41  C    5.999959
    42  O    8.000069
    43  O    8.000008
    44  C    5.999923
    45  H    1.000015
    46  H    0.999873
    47  H    0.999933
    48  H    1.000014
    49  H    1.000030
    50  H    1.000090
    51  H    0.999926
    52  H    0.999891
    53  H    0.999956
    54  H    1.000071
    55  H    1.000053
    56  H    0.999956
    57  H    0.999885
    58  H    0.999943
    59  H    0.999891
    60  H    0.999898
    61  H    0.999938
    62  H    0.999947
    63  H    0.999989
    64  H    0.999961
    65  H    1.000058
    66  H    1.000044
    67  H    0.999895
    68  H    1.000018
    69  H    1.000055
    70  H    0.999991
    71  H    1.000053
    72  H    0.999967
    73  H    1.000125
    74  H    1.000124
    75  H    1.000137
    76  H    1.000057
    77  H    1.000071
    78  H    1.000056
    79  H    1.000034
    80  Mg  12.000875
    81  C    5.984094
    82  C    6.022583
    83  C    6.003561
    84  C    5.991443
    85  N    6.999969
    86  C    6.030447
    87  C    5.993231
    88  C    6.009480
    89  C    5.967162
    90  C    6.001304
    91  C    5.994581
    92  C    6.001698
    93  H    0.999593
    94  N    7.001069
    95  C    5.959508
    96  C    5.979129
    97  C    5.984507
    98  C    5.974818
    99  C    6.003157
   100  C    5.986463
   101  O    7.974877
   102  C    6.006514
   103  N    6.998112
   104  C    5.968258
   105  C    6.010444
   106  C    5.988234
   107  C    6.033441
   108  C    6.001802
   109  C    6.000123
   110  C    5.999678
   111  N    6.999702
   112  C    6.035549
   113  C    6.025908
   114  C    6.007845
   115  C    6.024714
   116  C    5.999149
   117  C    6.015804
   118  O    8.034101
   119  C    5.997569
   120  C    6.005760
   121  O    8.002433
   122  O    8.002006
   123  C    5.999034
   124  H    0.995625
   125  H    0.992112
   126  H    1.011107
   127  H    0.999636
   128  H    0.998953
   129  H    1.001452
   130  H    0.990187
   131  H    1.002083
   132  H    1.003587
   133  H    0.994368
   134  H    1.006418
   135  H    1.001909
   136  H    0.980572
   137  H    0.982472
   138  H    0.981891
   139  H    0.994829
   140  H    0.990782
   141  H    0.985745
   142  H    1.000024
   143  H    0.999789
   144  H    0.995489
   145  H    1.006570
   146  H    0.990203
   147  H    0.994490
   148  H    1.010983
   149  H    1.001738
   150  H    0.996846
   151  H    1.005208
   152  H    1.016380
   153  H    1.016309
   154  H    1.011700
   155  H    1.008985
   156  H    1.004790
   157  H    1.005858
   158  H    1.001186
 Sum of Mulliken charges = 624.00000

 Dipole moment (field-independent basis, Debye):
    X=             -0.6856    Y=            -10.1564    Z=              1.9898  Tot=             10.3722
 Quadrupole moment (field-independent basis, Debye-Ang):
   XX=             38.4154   YY=             -8.5873   ZZ=              1.1169
   XY=            299.8233   XZ=            -56.0261   YZ=              6.8095

 Normal termination of Gaussian 16 at Thu Oct 14 22:44:05 2021.
