 Gaussian 16, Revision A.03,
 Gaussian 16:  ES64L-G16RevA.03 25-Dec-2016

 --------------------------------------------------------
 #p PBE1PBE/Def2SVP td=(nstates=5) density=(transition=1)
 --------------------------------------------------------

 --------------------------------
 TDDFT excited states in gaussian
 --------------------------------
 Symbolic Z-matrix:
 Charge =  0 Multiplicity = 1

                         Standard orientation:
 ---------------------------------------------------------------------
 Center     Atomic      Atomic             Coordinates (Angstroms)
 Number     Number       Type             X           Y           Z
 ---------------------------------------------------------------------
      1         12           0      -21.958047    0.271264   -0.277239
      2          6           0      -18.540260    0.584341    0.147341
      3          6           0      -21.337581   -1.986013   -2.944174
      4          6           0      -25.284744   -0.542374   -0.392307
      5          6           0      -22.542647    2.080929    2.605878
      6          7           0      -20.129555   -0.467550   -1.329425
      7          6           0      -18.834674   -0.272048   -0.897189
      8          6           0      -17.771559   -1.164275   -1.641070
      9          6           0      -18.634434   -1.676173   -2.889096
     10          6           0      -20.163058   -1.344010   -2.435599
     11          6           0      -18.314919   -1.118120   -4.328154
     12          6           0      -17.212805   -2.287551   -0.840474
     13          6           0      -15.728373   -2.362638   -0.538799
     14          1           0      -15.150041   -3.773551   -0.344858
     15          7           0      -23.167099   -1.019813   -1.574316
     16          6           0      -22.669122   -1.802450   -2.633033
     17          6           0      -23.755070   -2.427161   -3.319105
     18          6           0      -24.942529   -2.137005   -2.473250
     19          6           0      -24.512638   -1.198115   -1.391189
     20          6           0      -23.585701   -3.408081   -4.483938
     21          6           0      -26.320084   -2.742534   -2.794430
     22          8           0      -26.598425   -3.514003   -3.707933
     23          6           0      -27.360028   -2.653617   -1.734282
     24          7           0      -23.729129    0.574504    1.086998
     25          6           0      -24.971801    0.284006    0.678321
     26          6           0      -25.887102    0.504489    1.881799
     27          6           0      -25.065600    1.449826    2.877231
     28          6           0      -23.651272    1.412178    2.143639
     29          6           0      -27.183429    1.263537    1.426001
     30          6           0      -24.949884    1.068790    4.410189
     31          6           0      -25.587059    1.947973    5.475862
     32          7           0      -20.777948    1.251994    1.102340
     33          6           0      -21.151527    1.992895    2.227942
     34          6           0      -19.985288    2.447784    2.921256
     35          6           0      -18.897025    1.923723    2.157312
     36          6           0      -19.487324    1.239300    1.024275
     37          6           0      -19.903068    3.259979    4.175173
     38          6           0      -17.502387    1.857488    2.003033
     39          8           0      -16.647351    2.350403    2.711234
     40          6           0      -17.203819    0.932066    0.760472
     41          6           0      -16.167476    1.573626   -0.063576
     42          8           0      -15.000316    1.199788   -0.088265
     43          8           0      -16.705543    2.646441   -0.758594
     44          6           0      -15.704182    3.367216   -1.576382
     45          1           0      -21.273147   -2.658000   -3.802004
     46          1           0      -26.337116   -0.785767   -0.555202
     47          1           0      -22.746214    2.613691    3.536969
     48          1           0      -16.956861   -0.534555   -1.996897
     49          1           0      -18.572761   -2.764975   -2.879319
     50          1           0      -17.353202   -0.608929   -4.266296
     51          1           0      -19.070906   -0.444997   -4.732711
     52          1           0      -18.289488   -1.974794   -5.000591
     53          1           0      -17.407323   -3.196423   -1.411865
     54          1           0      -17.684460   -2.314495    0.141242
     55          1           0      -15.561320   -1.871715    0.419501
     56          1           0      -15.105887   -1.933308   -1.323509
     57          1           0      -22.598689   -3.723749   -4.821228
     58          1           0      -24.170755   -2.927829   -5.267878
     59          1           0      -24.249610   -4.228340   -4.212864
     60          1           0      -28.028072   -1.793905   -1.704713
     61          1           0      -26.952980   -2.841462   -0.740625
     62          1           0      -28.055366   -3.470506   -1.930964
     63          1           0      -26.167374   -0.425490    2.376982
     64          1           0      -25.390666    2.483719    2.766440
     65          1           0      -28.029932    0.704301    1.824458
     66          1           0      -27.297469    1.394683    0.349205
     67          1           0      -27.236162    2.286623    1.799020
     68          1           0      -23.875486    1.006126    4.581527
     69          1           0      -25.460153    0.108835    4.500406
     70          1           0      -25.024264    1.739495    6.386101
     71          1           0      -26.612672    1.616329    5.639306
     72          1           0      -25.579450    3.031831    5.365499
     73          1           0      -18.839385    3.397895    4.370987
     74          1           0      -20.435234    2.709786    4.950588
     75          1           0      -20.339326    4.257074    4.112662
     76          1           0      -16.758389    0.042697    1.207524
     77          1           0      -15.246769    4.164815   -0.991063
     78          1           0      -16.228997    3.682844   -2.478047
     79          1           0      -14.923008    2.700816   -1.941036
     80         12           0       21.097405   -0.853839   -0.008743
     81          6           0       22.048599    2.266922   -1.219234
     82          6           0       18.055039    0.360467    0.779225
     83          6           0       20.434548   -3.782217    1.543900
     84          6           0       24.367883   -1.876908   -0.392272
     85          7           0       20.178027    1.153281   -0.202567
     86          6           0       20.688659    2.207139   -0.916844
     87          6           0       19.691159    3.298406   -1.010870
     88          6           0       18.412541    2.778031   -0.344003
     89          6           0       18.843845    1.319371    0.116682
     90          6           0       17.761666    3.609567    0.750446
     91          6           0       19.485510    3.787642   -2.555039
     92          6           0       19.840754    5.253426   -2.897878
     93          1           0       18.982409    6.056865   -3.843727
     94          7           0       19.439438   -1.650778    0.909010
     95          6           0       18.252016   -0.980716    1.162561
     96          6           0       17.370200   -1.830133    1.877217
     97          6           0       18.043212   -3.057707    2.122407
     98          6           0       19.357727   -2.874119    1.498730
     99          6           0       15.891883   -1.335312    2.126562
    100          6           0       17.483645   -4.222997    2.936566
    101          8           0       18.098175   -5.263095    3.217570
    102          6           0       16.086707   -4.192821    3.378358
    103          7           0       22.265108   -2.532538    0.751649
    104          6           0       21.765506   -3.648099    1.241923
    105          6           0       22.889234   -4.641177    1.614960
    106          6           0       23.947391   -4.170039    0.541107
    107          6           0       23.492158   -2.745308    0.241516
    108          6           0       23.522354   -4.634687    3.055581
    109          6           0       24.068793   -5.048174   -0.795144
    110          6           0       22.870901   -5.197768   -1.640571
    111          7           0       22.972428   -0.015392   -0.638668
    112          6           0       24.258256   -0.578314   -0.757659
    113          6           0       25.160649    0.406460   -1.263309
    114          6           0       24.389606    1.543479   -1.400830
    115          6           0       23.029702    1.200079   -1.105291
    116          6           0       26.606096    0.303998   -1.316915
    117          6           0       24.387356    2.822161   -1.937845
    118          8           0       25.290748    3.512686   -2.420646
    119          6           0       22.915433    3.418132   -1.772837
    120          6           0       23.033602    4.482967   -0.733020
    121          8           0       23.400557    4.447309    0.422754
    122          8           0       22.661978    5.607152   -1.347974
    123          6           0       22.659658    6.847696   -0.505395
    124          1           0       17.053787    0.796233    0.776794
    125          1           0       20.126592   -4.761801    1.913533
    126          1           0       25.383571   -2.236136   -0.569380
    127          1           0       20.120494    4.115905   -0.433005
    128          1           0       17.653291    2.623982   -1.110437
    129          1           0       18.242901    3.101497    1.585306
    130          1           0       16.671569    3.619540    0.753016
    131          1           0       17.999325    4.669377    0.838091
    132          1           0       18.455994    3.586353   -2.849668
    133          1           0       20.136681    3.277980   -3.265640
    134          1           0       20.798015    5.214145   -3.418500
    135          1           0       20.047799    5.843662   -2.006200
    136          1           0       15.672255   -1.431113    3.189731
    137          1           0       15.395069   -2.140946    1.585841
    138          1           0       15.649562   -0.294845    1.909982
    139          1           0       15.887363   -3.311688    3.986672
    140          1           0       16.007010   -4.966188    4.141963
    141          1           0       15.346783   -4.365051    2.596303
    142          1           0       22.603620   -5.628573    1.251956
    143          1           0       24.896734   -4.246966    1.070601
    144          1           0       23.681055   -3.652203    3.498522
    145          1           0       24.456239   -5.175685    2.898817
    146          1           0       22.892824   -5.184392    3.755808
    147          1           0       24.368314   -6.079566   -0.607475
    148          1           0       24.687584   -4.547811   -1.539961
    149          1           0       22.860283   -4.273307   -2.216241
    150          1           0       21.891452   -5.281185   -1.168609
    151          1           0       22.853766   -5.996847   -2.380977
    152          1           0       26.916909    0.559255   -0.303129
    153          1           0       27.098547    0.976159   -2.019027
    154          1           0       26.959614   -0.667847   -1.663099
    155          1           0       22.473967    3.748095   -2.713287
    156          1           0       21.603191    7.045805   -0.323092
    157          1           0       23.168455    7.652439   -1.035586
    158          1           0       23.113230    6.783008    0.484039
 ---------------------------------------------------------------------

 SCF Done:  E(RPBE1PBE) =  -4067.34019989     A.U. after   16 cycles

 Excitation energies and oscillator strengths:

 Excited State   1:      Singlet-A      1.7884 eV  693.26 nm  f=0.0000  <S**2>=0.000
     312 -> 313        0.70711
 This state for optimization and/or second-order correction.
 Total Energy, E(TD-HF/TD-DFT) =  -4067.27447619
 Copying the excited state density for this state as the 1-particle RhoCI density.

 Excited State   2:      Singlet-A      1.8582 eV  667.23 nm  f=0.4467  <S**2>=0.000
     309 -> 315        0.13950
     311 -> 313        0.56751
     312 -> 314        0.39620

 Excited State   3:      Singlet-A      1.8590 eV  666.95 nm  f=0.2647  <S**2>=0.000
     310 -> 316        0.13450
     311 -> 313       -0.39577
     312 -> 314        0.56800

 Excited State   4:      Singlet-A      2.1770 eV  569.51 nm  f=0.1429  <S**2>=0.000
     310 -> 314        0.66023
     312 -> 316       -0.23477

 Excited State   5:      Singlet-A      2.1844 eV  567.59 nm  f=0.1537  <S**2>=0.000
     309 -> 313        0.65883
     311 -> 315       -0.23363

 The electronic state is 1-A.
 Alpha  occ. eigenvalues --  -46.93896 -46.92718 -19.25865 -19.25672 -19.20183
 Alpha  occ. eigenvalues --  -19.19290 -19.19193 -19.18886 -19.18829 -19.18457
 Alpha  occ. eigenvalues --  -14.42990 -14.41622 -14.41582 -14.41206 -14.39667
 Alpha  occ. eigenvalues --  -14.39663 -14.39367 -14.38598 -10.36241 -10.35592
 Alpha  occ. eigenvalues --  -10.32275 -10.32193 -10.31573 -10.31264 -10.30714
 Alpha  occ. eigenvalues --  -10.29581 -10.29543 -10.29279 -10.29196 -10.28919
 Alpha  occ. eigenvalues --  -10.28896 -10.28816 -10.28802 -10.28353 -10.28241
 Alpha  occ. eigenvalues --  -10.27997 -10.27844 -10.27819 -10.27499 -10.27267
 Alpha  occ. eigenvalues --  -10.27225 -10.27043 -10.26782 -10.26610 -10.26549
 Alpha  occ. eigenvalues --  -10.26522 -10.26419 -10.26356 -10.26336 -10.26325
 Alpha  occ. eigenvalues --  -10.26315 -10.26249 -10.26131 -10.25813 -10.25797
 Alpha  occ. eigenvalues --  -10.25793 -10.25711 -10.25663 -10.25657 -10.25613
 Alpha  occ. eigenvalues --  -10.25525 -10.25328 -10.25247 -10.25171 -10.25153
 Alpha  occ. eigenvalues --  -10.25116 -10.25000 -10.24894 -10.24773 -10.24419
 Alpha  occ. eigenvalues --  -10.24160 -10.23999 -10.23965 -10.23952 -10.23870
 Alpha  occ. eigenvalues --  -10.23729 -10.23727 -10.23697 -10.23421 -10.23390
 Alpha  occ. eigenvalues --  -10.23360 -10.22994 -10.22863 -10.22661 -10.22326
 Alpha  occ. eigenvalues --  -10.22109  -3.15698  -3.14711  -1.88565  -1.88046
 Alpha  occ. eigenvalues --   -1.87921  -1.87554  -1.87063  -1.86950  -1.11765
 Alpha  occ. eigenvalues --   -1.10385  -1.04794  -1.04664  -1.03837  -1.03283
 Alpha  occ. eigenvalues --   -1.02416  -1.02157  -1.00019  -0.99708  -0.98913
 Alpha  occ. eigenvalues --   -0.98802  -0.98043  -0.97301  -0.97088  -0.96294
 Alpha  occ. eigenvalues --   -0.87081  -0.86544  -0.83808  -0.83671  -0.83505
 Alpha  occ. eigenvalues --   -0.83025  -0.82680  -0.82522  -0.82253  -0.82052
 Alpha  occ. eigenvalues --   -0.81929  -0.81748  -0.81143  -0.79984  -0.78929
 Alpha  occ. eigenvalues --   -0.78757  -0.78527  -0.78249  -0.77353  -0.77187
 Alpha  occ. eigenvalues --   -0.76407  -0.76229  -0.75823  -0.75301  -0.75153
 Alpha  occ. eigenvalues --   -0.75069  -0.73067  -0.72291  -0.71960  -0.71697
 Alpha  occ. eigenvalues --   -0.71517  -0.71220  -0.70555  -0.70284  -0.69898
 Alpha  occ. eigenvalues --   -0.69683  -0.68059  -0.67909  -0.66770  -0.66129
 Alpha  occ. eigenvalues --   -0.63809  -0.63764  -0.63590  -0.63463  -0.62454
 Alpha  occ. eigenvalues --   -0.62152  -0.61571  -0.61561  -0.60258  -0.60107
 Alpha  occ. eigenvalues --   -0.59932  -0.59900  -0.59801  -0.59356  -0.59315
 Alpha  occ. eigenvalues --   -0.58476  -0.57642  -0.56607  -0.54996  -0.54850
 Alpha  occ. eigenvalues --   -0.54475  -0.54424  -0.54057  -0.53868  -0.53720
 Alpha  occ. eigenvalues --   -0.53245  -0.52810  -0.52487  -0.52364  -0.51539
 Alpha  occ. eigenvalues --   -0.51180  -0.51024  -0.50545  -0.50240  -0.50083
 Alpha  occ. eigenvalues --   -0.50057  -0.49607  -0.49388  -0.49336  -0.49181
 Alpha  occ. eigenvalues --   -0.48543  -0.48328  -0.47891  -0.47862  -0.47802
 Alpha  occ. eigenvalues --   -0.47432  -0.47428  -0.47371  -0.47268  -0.47070
 Alpha  occ. eigenvalues --   -0.46741  -0.46719  -0.46476  -0.46173  -0.45989
 Alpha  occ. eigenvalues --   -0.45838  -0.45721  -0.45672  -0.45006  -0.44971
 Alpha  occ. eigenvalues --   -0.44848  -0.44405  -0.44351  -0.44306  -0.44214
 Alpha  occ. eigenvalues --   -0.44108  -0.43817  -0.43681  -0.43584  -0.43574
 Alpha  occ. eigenvalues --   -0.43386  -0.43140  -0.43003  -0.42963  -0.42713
 Alpha  occ. eigenvalues --   -0.42706  -0.42378  -0.41967  -0.41964  -0.41800
 Alpha  occ. eigenvalues --   -0.41759  -0.41518  -0.41492  -0.41384  -0.41377
 Alpha  occ. eigenvalues --   -0.40965  -0.40845  -0.40796  -0.40739  -0.40546
 Alpha  occ. eigenvalues --   -0.40513  -0.40401  -0.40203  -0.40062  -0.40012
 Alpha  occ. eigenvalues --   -0.39484  -0.39395  -0.39352  -0.39124  -0.39065
 Alpha  occ. eigenvalues --   -0.38993  -0.38839  -0.38715  -0.38531  -0.38521
 Alpha  occ. eigenvalues --   -0.38165  -0.38031  -0.37820  -0.37746  -0.37576
 Alpha  occ. eigenvalues --   -0.37321  -0.37284  -0.37080  -0.37011  -0.36934
 Alpha  occ. eigenvalues --   -0.36701  -0.36464  -0.36430  -0.36416  -0.36072
 Alpha  occ. eigenvalues --   -0.35937  -0.35780  -0.35567  -0.35351  -0.35083
 Alpha  occ. eigenvalues --   -0.34990  -0.34705  -0.34448  -0.34362  -0.33866
 Alpha  occ. eigenvalues --   -0.33409  -0.33044  -0.33031  -0.32912  -0.32673
 Alpha  occ. eigenvalues --   -0.32493  -0.32249  -0.32026  -0.31826  -0.31359
 Alpha  occ. eigenvalues --   -0.31162  -0.30974  -0.29818  -0.29666  -0.29400
 Alpha  occ. eigenvalues --   -0.29185  -0.28970  -0.28805  -0.27475  -0.27094
 Alpha  occ. eigenvalues --   -0.26159  -0.26145  -0.25851  -0.25778  -0.25713
 Alpha  occ. eigenvalues --   -0.25600  -0.25224  -0.25064  -0.21616  -0.20955
 Alpha  occ. eigenvalues --   -0.19803  -0.19062
 Alpha virt. eigenvalues --   -0.12183  -0.11423  -0.05901  -0.05149  -0.04179
 Alpha virt. eigenvalues --   -0.03903  -0.02269  -0.02112  -0.00587  -0.00436
 Alpha virt. eigenvalues --    0.00327   0.00579   0.01048   0.01730   0.01939

 Mulliken charges:
               1
     1  Mg  12.000000
     2  C    6.000000
     3  C    6.000000
     4  C    6.000000
     5  C    6.000000
     6  N    7.000000
     7  C    6.000000
     8  C    6.000000
     9  C    6.000000
    10  C    6.000000
    11  C    6.000000
    12  C    6.000000
    13  C    6.000000
    14  H    1.000000
    15  N    7.000000
    16  C    6.000000
    17  C    6.000000
    18  C    6.000000
    19  C    6.000000
    20  C    6.000000
    21  C    6.000000
    22  O    8.000000
    23  C    6.000000
    24  N    7.000000
    25  C    6.000000
    26  C    6.000000
    27  C    6.000000
    28  C    6.000000
    29  C    6.000000
    30  C    6.000000
    31  C    6.000000
    32  N    7.000000
    33  C    6.000000
    34  C    6.000000
    35  C    6.000000
    36  C    6.000000
    37  C    6.000000
    38  C    6.000000
    39  O    8.000000
    40  C    6.000000
    41  C    6.000000
    42  O    8.000000
    43  O    8.000000
    44  C    6.000000
    45  H    1.000000
    46  H    1.000000
    47  H    1.000000
    48  H    1.000000
    49  H    1.000000
    50  H    1.000000
    51  H    1.000000
    52  H    1.000000
    53  H    1.000000
    54  H    1.000000
    55  H    1.000000
    56  H    1.000000
    57  H    1.000000
    58  H    1.000000
    59  H    1.000000
    60  H    1.000000
    61  H    1.000000
    62  H    1.000000
    63  H    1.000000
    64  H    1.000000
    65  H    1.000000
    66  H    1.000000
    67  H    1.000000
    68  H    1.000000
    69  H    1.000000
    70  H    1.000000
    71  H    1.000000
    72  H    1.000000
    73  H    1.000000
    74  H    1.000000
    75  H    1.000000
    76  H    1.000000
    77  H    1.000000
    78  H    1.000000
    79  H    1.000000
    80  Mg  12.000000
    81  C    6.000000
    82  C    6.000000
    83  C    6.000000
    84  C    6.000000
    85  N    7.000000
    86  C    6.000000
    87  C    6.000000
    88  C    6.000000
    89  C    6.000000
    90  C    6.000000
    91  C    6.000000
    92  C    6.000000
    93  H    1.000000
    94  N    7.000000
    95  C    6.000000
    96  C    6.000000
    97  C    6.000000
    98  C    6.000000
    99  C    6.000000
   100  C    6.000000
   101  O    8.000000
   102  C    6.000000
   103  N    7.000000
   104  C    6.000000
   105  C    6.000000
   106  C    6.000000
   107  C    6.000000
   108  C    6.000000
   109  C    6.000000
   110  C    6.000000
   111  N    7.000000
   112  C    6.000000
   113  C    6.000000
   114  C    6.000000
   115  C    6.000000
   116  C    6.000000
   117  C    6.000000
   118  O    8.000000
   119  C    6.000000
   120  C    6.000000
   121  O    8.000000
   122  O    8.000000
   123  C    6.000000
   124  H    1.000000
   125  H    1.000000
   126  H    1.000000
   127  H    1.000000
   128  H    1.000000
   129  H    1.000000
   130  H    1.000000
   131  H    1.000000
   132  H    1.000000
   133  H    1.000000
   134  H    1.000000
   135  H    1.000000
   136  H    1.000000
   137  H    1.000000
   138  H    1.000000
   139  H    1.000000
   140  H    1.000000
   141  H    1.000000
   142  H    1.000000
   143  H    1.000000
   144  H    1.000000
   145  H    1.000000
   146  H    1.000000
   147  H    1.000000
   148  H    1.000000
   149  H    1.000000
   150  H    1.000000
   151  H    1.000000
   152  H    1.000000
   153  H    1.000000
   154  H    1.000000
   155  H    1.000000
   156  H    1.000000
   157  H    1.000000
   158  H    1.000000
 Sum of Mulliken charges = 624.00000

 Dipole moment (field-independent basis, Debye):
    X=              0.0000    Y=              0.0000    Z=             -0.0000  Tot=              0.0000
 Quadrupole moment (field-independent basis, Debye-Ang):
   XX=              0.0000   YY=             -0.0000   ZZ=             -0.0000
   XY=              0.0000   XZ=             -0.0000   YZ=              0.0000

 Normal termination of Gaussian 16 at Fri Oct 15 07:00:36 2021.
