 Gaussian 16, Revision A.03,
 Gaussian 16:  ES64L-G16RevA.03 25-Dec-2016

 ---------------------------------------------------
 #p PBE1PBE/Def2SVP td=(nstates=5) density=(current)
 ---------------------------------------------------

 --------------------------------
 TDDFT excited states in gaussian
 --------------------------------
 Symbolic Z-matrix:
 Charge =  0 Multiplicity = 1

                         Standard orientation:
 ---------------------------------------------------------------------
 Center     Atomic      Atomic             Coordinates (Angstroms)
 Number     Number       Type             X           Y           Z
 ---------------------------------------------------------------------
      1         12           0       -0.735630   -0.041839   -0.238721
      2          6           0        2.726129    0.059198    0.155699
      3          6           0       -0.667150   -3.430677    0.390300
      4          6           0       -3.998896    0.111192   -0.548524
      5          6           0       -0.773542    3.577891    0.183962
      6          7           0        0.961181   -1.541217    0.172767
      7          6           0        2.293715   -1.276338    0.320472
      8          6           0        3.062229   -2.528320    0.554281
      9          6           0        1.952111   -3.647460    0.672205
     10          6           0        0.615153   -2.856379    0.391928
     11          6           0        2.218102   -4.916212   -0.176538
     12          6           0        3.951989   -2.466195    1.819548
     13          6           0        5.389921   -2.863580    1.490469
     14          1           0        6.041987   -3.984665    2.354750
     15          7           0       -2.143005   -1.482493   -0.128046
     16          6           0       -1.943763   -2.844083    0.095339
     17          6           0       -3.261419   -3.454044   -0.027810
     18          6           0       -4.270239   -2.429788   -0.342939
     19          6           0       -3.475401   -1.163998   -0.428277
     20          6           0       -3.516092   -4.838332    0.304951
     21          6           0       -5.713027   -2.723616   -0.359471
     22          8           0       -6.187142   -3.827117   -0.187919
     23          6           0       -6.770530   -1.683693   -0.490292
     24          7           0       -2.108663    1.561186   -0.143561
     25          6           0       -3.389663    1.362010   -0.592367
     26          6           0       -4.158662    2.666128   -0.569218
     27          6           0       -3.251294    3.611823    0.124731
     28          6           0       -1.992420    2.897156    0.132793
     29          6           0       -4.725735    3.137114   -1.970795
     30          6           0       -3.639688    3.852685    1.623912
     31          6           0       -3.301436    5.155097    2.187033
     32          7           0        0.665751    1.555869    0.074365
     33          6           0        0.525482    2.947428    0.156758
     34          6           0        1.815798    3.552760    0.049384
     35          6           0        2.710577    2.489961    0.088850
     36          6           0        1.955460    1.264495    0.145269
     37          6           0        2.040928    5.018325   -0.015672
     38          6           0        4.077677    2.152664    0.132028
     39          8           0        5.057092    2.864450    0.120280
     40          6           0        4.150476    0.609435    0.119700
     41          6           0        4.958702    0.176038   -1.031124
     42          8           0        4.535944   -0.006126   -2.185287
     43          8           0        6.288366    0.154979   -0.677536
     44          6           0        7.288086   -0.337009   -1.611494
     45          1           0       -0.562763   -4.507468    0.535133
     46          1           0       -5.071438    0.313571   -0.603821
     47          1           0       -0.831835    4.664060    0.280594
     48          1           0        3.503288   -2.754727   -0.416853
     49          1           0        1.861960   -4.067536    1.673487
     50          1           0        3.287263   -4.839368   -0.377926
     51          1           0        1.592273   -5.054773   -1.058213
     52          1           0        2.054266   -5.807196    0.429111
     53          1           0        3.679744   -3.187376    2.589965
     54          1           0        3.876283   -1.445245    2.193315
     55          1           0        5.895915   -1.945699    1.789378
     56          1           0        5.441973   -3.024583    0.414692
     57          1           0       -2.565286   -5.300464    0.571334
     58          1           0       -3.883124   -5.465801   -0.507804
     59          1           0       -4.168406   -4.885091    1.177669
     60          1           0       -6.361314   -1.128736   -1.334507
     61          1           0       -6.776643   -1.077581    0.416012
     62          1           0       -7.736237   -2.128926   -0.730598
     63          1           0       -5.035327    2.420646    0.029067
     64          1           0       -3.009991    4.548768   -0.377378
     65          1           0       -4.625843    2.341968   -2.709858
     66          1           0       -4.363821    4.108056   -2.310812
     67          1           0       -5.811743    3.224820   -1.985871
     68          1           0       -3.202199    3.064828    2.237212
     69          1           0       -4.715805    3.750105    1.762848
     70          1           0       -4.116041    5.848154    1.974026
     71          1           0       -2.343977    5.528180    1.821968
     72          1           0       -3.376590    5.114578    3.274164
     73          1           0        1.276358    5.508013   -0.618629
     74          1           0        3.034768    5.298607   -0.365073
     75          1           0        1.842795    5.351174    1.003222
     76          1           0        4.740968    0.206278    0.942538
     77          1           0        7.549855    0.271327   -2.477295
     78          1           0        7.016280   -1.340185   -1.939289
     79          1           0        8.207580   -0.348620   -1.027439
 ---------------------------------------------------------------------

 SCF Done:  E(RPBE1PBE) =  -2033.66148054     A.U. after   15 cycles

 Excitation energies and oscillator strengths:

 Excited State   1:      Singlet-A      1.8373 eV  674.81 nm  f=0.3538  <S**2>=0.000
     155 ->158        -0.18262
     156 ->157         0.68985
     156 <-157        -0.10421
 This state for optimization and/or second-order correction.
 Total Energy, E(TD-HF/TD-DFT) =  -2033.59396052
 Copying the excited state density for this state as the 1-particle RhoCI density.

 Excited State   2:      Singlet-A      2.1967 eV  564.41 nm  f=0.0975  <S**2>=0.000
     155 ->157         0.64584
     156 ->158         0.27300

 Excited State   3:      Singlet-A      2.6615 eV  465.84 nm  f=0.0002  <S**2>=0.000
     154 ->157         0.68045
     154 ->159        -0.12922

 Excited State   4:      Singlet-A      2.8679 eV  432.32 nm  f=0.0007  <S**2>=0.000
     151 ->157         0.21007
     152 ->157         0.49208
     153 ->157         0.43188

 Excited State   5:      Singlet-A      2.9067 eV  426.55 nm  f=0.0029  <S**2>=0.000
     151 ->157        -0.24817
     152 ->157        -0.33653
     153 ->157         0.54613

 The electronic state is 1-A.
 Alpha  occ. eigenvalues --  -46.92320 -19.25516 -19.19578 -19.18627 -19.17588
 Alpha  occ. eigenvalues --  -14.41831 -14.41450 -14.39919 -14.38853 -10.36087
 Alpha  occ. eigenvalues --  -10.31352 -10.30803 -10.29325 -10.29320 -10.29181
 Alpha  occ. eigenvalues --  -10.28884 -10.28719 -10.28706 -10.28246 -10.27696
 Alpha  occ. eigenvalues --  -10.26833 -10.26495 -10.26399 -10.26197 -10.26155
 Alpha  occ. eigenvalues --  -10.26138 -10.26025 -10.25748 -10.25680 -10.25448
 Alpha  occ. eigenvalues --  -10.25136 -10.25048 -10.24928 -10.24786 -10.24760
 Alpha  occ. eigenvalues --  -10.24288 -10.24101 -10.23942 -10.23694 -10.22985
 Alpha  occ. eigenvalues --  -10.22512 -10.22473 -10.22253  -3.14392  -1.87235
 Alpha  occ. eigenvalues --   -1.86774  -1.86604  -1.10202  -1.04848  -1.04570
 Alpha  occ. eigenvalues --   -1.01494  -0.99592  -0.98470  -0.97631  -0.96168
 Alpha  occ. eigenvalues --   -0.87022  -0.85110  -0.83855  -0.83380  -0.82053
 Alpha  occ. eigenvalues --   -0.81605  -0.80553  -0.79528  -0.78865  -0.77740
 Alpha  occ. eigenvalues --   -0.76801  -0.75735  -0.75157  -0.73014  -0.72286
 Alpha  occ. eigenvalues --   -0.71414  -0.70623  -0.69741  -0.67870  -0.66490
 Alpha  occ. eigenvalues --   -0.63802  -0.63475  -0.62349  -0.61866  -0.60934
 Alpha  occ. eigenvalues --   -0.60414  -0.59811  -0.59276  -0.56616  -0.55299
 Alpha  occ. eigenvalues --   -0.54077  -0.54011  -0.53636  -0.52540  -0.51853
 Alpha  occ. eigenvalues --   -0.50990  -0.50391  -0.50040  -0.49738  -0.49023
 Alpha  occ. eigenvalues --   -0.48824  -0.47905  -0.47464  -0.47095  -0.46768
 Alpha  occ. eigenvalues --   -0.46486  -0.46337  -0.46278  -0.45970  -0.45817
 Alpha  occ. eigenvalues --   -0.45014  -0.44651  -0.44195  -0.44103  -0.43776
 Alpha  occ. eigenvalues --   -0.43484  -0.43225  -0.43104  -0.42299  -0.41838
 Alpha  occ. eigenvalues --   -0.41724  -0.41497  -0.41275  -0.41026  -0.40884
 Alpha  occ. eigenvalues --   -0.40500  -0.40083  -0.39750  -0.39329  -0.39244
 Alpha  occ. eigenvalues --   -0.38876  -0.38520  -0.38219  -0.38093  -0.37890
 Alpha  occ. eigenvalues --   -0.37812  -0.37415  -0.36958  -0.36610  -0.36362
 Alpha  occ. eigenvalues --   -0.36147  -0.36056  -0.35586  -0.35150  -0.34083
 Alpha  occ. eigenvalues --   -0.33523  -0.32679  -0.32314  -0.32021  -0.31396
 Alpha  occ. eigenvalues --   -0.31241  -0.29529  -0.28922  -0.28225  -0.27030
 Alpha  occ. eigenvalues --   -0.25695  -0.25485  -0.25052  -0.24326  -0.21261
 Alpha  occ. eigenvalues --   -0.19222
 Alpha virt. eigenvalues --   -0.11613  -0.05967  -0.03946  -0.02047  -0.00188
 Alpha virt. eigenvalues --   -0.00050   0.00744   0.01223   0.02616   0.03656
 Alpha virt. eigenvalues --    0.04337   0.05624   0.05913   0.06054   0.06926

 Mulliken charges:
               1
     1  Mg   0.951771
     2  C    0.043206
     3  C   -0.051524
     4  C   -0.115376
     5  C   -0.085351
     6  N   -0.388218
     7  C    0.017321
     8  C   -0.062272
     9  C   -0.172201
    10  C    0.076470
    11  C    0.001046
    12  C    0.011392
    13  C   -0.154775
    14  H    0.045974
    15  N   -0.569245
    16  C    0.214569
    17  C   -0.187323
    18  C   -0.064607
    19  C    0.276864
    20  C    0.088206
    21  C   -0.013492
    22  O   -0.247333
    23  C   -0.008120
    24  N   -0.409010
    25  C    0.100558
    26  C   -0.115642
    27  C   -0.118692
    28  C    0.088427
    29  C    0.025009
    30  C   -0.006997
    31  C   -0.035759
    32  N   -0.444555
    33  C    0.127260
    34  C   -0.193098
    35  C   -0.017533
    36  C    0.135032
    37  C    0.082458
    38  C    0.120905
    39  O   -0.201301
    40  C   -0.169162
    41  C    0.278801
    42  O   -0.276360
    43  O   -0.363369
    44  C    0.135408
    45  H    0.006089
    46  H    0.004642
    47  H    0.003510
    48  H    0.066859
    49  H    0.056722
    50  H    0.047342
    51  H    0.058222
    52  H    0.038386
    53  H    0.059271
    54  H    0.062826
    55  H    0.070833
    56  H    0.060853
    57  H    0.006655
    58  H    0.059340
    59  H    0.068091
    60  H    0.046290
    61  H    0.065202
    62  H    0.057608
    63  H    0.048732
    64  H    0.040870
    65  H    0.043306
    66  H    0.051311
    67  H    0.035251
    68  H    0.050497
    69  H    0.030529
    70  H    0.034430
    71  H    0.039274
    72  H    0.041345
    73  H    0.040630
    74  H    0.070472
    75  H    0.055678
    76  H    0.063789
    77  H    0.061350
    78  H    0.050675
    79  H    0.053758
 Sum of Mulliken charges =  -0.00000

 Dipole moment (field-independent basis, Debye):
    X=             -1.4242    Y=              1.4513    Z=              1.2175  Tot=              2.3700
 Quadrupole moment (field-independent basis, Debye-Ang):
   XX=           -265.7466   YY=           -244.2793   ZZ=           -257.0337
   XY=            -53.5821   XZ=              1.7049   YZ=             -2.4250

 Normal termination of Gaussian 16 at Wed Oct 13 17:22:46 2021.
