 Gaussian 16, Revision A.03,
 Gaussian 16:  ES64L-G16RevA.03 25-Dec-2016

 --------------------------------------------------------
 #p PBE1PBE/Def2SVP td=(nstates=5) density=(transition=1)
 --------------------------------------------------------

 --------------------------------
 TDDFT excited states in gaussian
 --------------------------------
 Symbolic Z-matrix:
 Charge =  0 Multiplicity = 1

                         Standard orientation:
 ---------------------------------------------------------------------
 Center     Atomic      Atomic             Coordinates (Angstroms)
 Number     Number       Type             X           Y           Z
 ---------------------------------------------------------------------
      1         12           0       23.984210   -0.870884   -0.048887
      2          6           0       25.250526    2.378243   -0.572133
      3          6           0       22.541824    0.247858    2.863047
      4          6           0       22.807435   -3.956556    0.562958
      5          6           0       25.934359   -2.082242   -2.689477
      6          7           0       23.847185    1.112111    0.862287
      7          6           0       24.373937    2.296313    0.563979
      8          6           0       24.027736    3.463561    1.511738
      9          6           0       23.414038    2.573015    2.697704
     10          6           0       23.298046    1.186516    2.113050
     11          6           0       24.245097    2.583576    3.957690
     12          6           0       22.956455    4.526877    0.902409
     13          6           0       23.092717    5.928590    1.504140
     14          1           0       23.442794    7.030791    0.471440
     15          7           0       22.675444   -1.740511    1.429223
     16          6           0       22.233750   -1.072735    2.598228
     17          6           0       21.230210   -1.917946    3.205070
     18          6           0       21.264659   -3.143149    2.545308
     19          6           0       22.260890   -3.003918    1.437187
     20          6           0       20.488133   -1.567173    4.480891
     21          6           0       20.466177   -4.411404    2.742070
     22          8           0       20.614583   -5.329450    1.989412
     23          6           0       19.428111   -4.539420    3.811915
     24          7           0       24.457131   -2.782152   -0.789480
     25          6           0       23.778637   -3.909397   -0.427974
     26          6           0       24.286696   -5.043024   -1.361528
     27          6           0       24.763858   -4.361580   -2.631518
     28          6           0       25.116561   -2.974845   -2.043865
     29          6           0       25.464090   -5.755335   -0.697301
     30          6           0       23.767977   -4.329315   -3.731149
     31          6           0       22.350436   -3.913269   -3.425258
     32          7           0       25.305619   -0.069730   -1.410783
     33          6           0       26.039957   -0.656342   -2.424249
     34          6           0       26.820021    0.386342   -3.108663
     35          6           0       26.510068    1.574299   -2.424000
     36          6           0       25.617398    1.253679   -1.437936
     37          6           0       27.752966    0.186447   -4.223832
     38          6           0       26.640878    3.006691   -2.430300
     39          8           0       27.268270    3.777839   -3.214314
     40          6           0       25.771465    3.568019   -1.207974
     41          6           0       26.735137    4.276505   -0.291618
     42          8           0       27.772094    3.795401    0.057612
     43          8           0       26.305761    5.543494    0.188279
     44          6           0       27.096220    6.089900    1.333023
     45          1           0       22.119974    0.570447    3.816604
     46          1           0       22.529509   -4.989254    0.785380
     47          1           0       26.427642   -2.355642   -3.624843
     48          1           0       24.925481    4.040906    1.736202
     49          1           0       22.440896    3.027975    2.886468
     50          1           0       23.786759    3.322031    4.615300
     51          1           0       25.306985    2.736360    3.763783
     52          1           0       24.010276    1.630295    4.431090
     53          1           0       21.940795    4.183732    1.101780
     54          1           0       23.034228    4.569832   -0.184152
     55          1           0       23.858423    5.763558    2.262417
     56          1           0       22.210765    6.217942    2.075255
     57          1           0       20.597407   -0.486518    4.564027
     58          1           0       21.107686   -2.024768    5.251637
     59          1           0       19.432764   -1.836947    4.436925
     60          1           0       18.662689   -3.885124    3.394278
     61          1           0       19.728879   -4.153636    4.785609
     62          1           0       19.095458   -5.574607    3.895623
     63          1           0       23.564530   -5.831243   -1.571502
     64          1           0       25.628394   -4.820173   -3.110340
     65          1           0       26.481893   -5.533753   -1.018524
     66          1           0       25.303734   -6.826610   -0.818340
     67          1           0       25.410019   -5.562681    0.374781
     68          1           0       23.726865   -5.275896   -4.270552
     69          1           0       24.177051   -3.599970   -4.430055
     70          1           0       22.213532   -2.952051   -3.921486
     71          1           0       21.965307   -3.774450   -2.414622
     72          1           0       21.679320   -4.609806   -3.927544
     73          1           0       28.628073   -0.339638   -3.842504
     74          1           0       27.946016    1.197429   -4.582468
     75          1           0       27.326015   -0.461082   -4.990857
     76          1           0       25.009956    4.189518   -1.679445
     77          1           0       28.038087    6.507159    0.976956
     78          1           0       27.309320    5.346021    2.102055
     79          1           0       26.660463    6.945177    1.848676
     80         12           0      -24.418375   -0.625799   -0.052281
     81          6           0      -23.528679    2.790330   -0.792768
     82          6           0      -24.428891    0.301386    3.329663
     83          6           0      -25.345060   -3.699468    0.635984
     84          6           0      -24.048024   -1.408586   -3.439198
     85          7           0      -23.980600    1.386282    1.103913
     86          6           0      -23.860578    2.640061    0.593145
     87          6           0      -24.018126    3.708205    1.663049
     88          6           0      -23.958279    2.874527    3.061809
     89          6           0      -24.104641    1.437781    2.482432
     90          6           0      -22.706667    3.147131    3.933216
     91          6           0      -25.329831    4.546555    1.492228
     92          6           0      -25.090255    6.073682    1.369097
     93          1           0      -25.729168    6.941680    2.599896
     94          7           0      -24.823231   -1.536681    1.681395
     95          6           0      -24.760008   -1.046968    3.029853
     96          6           0      -25.145127   -2.058469    4.042310
     97          6           0      -25.458823   -3.186696    3.215741
     98          6           0      -25.217625   -2.833176    1.806758
     99          6           0      -25.143830   -1.831464    5.555400
    100          6           0      -25.858012   -4.550851    3.632824
    101          8           0      -26.337933   -5.409845    2.901002
    102          6           0      -25.799966   -4.890854    5.135068
    103          7           0      -24.816537   -2.222823   -1.248533
    104          6           0      -25.163541   -3.421814   -0.727439
    105          6           0      -25.112611   -4.536757   -1.734730
    106          6           0      -24.746499   -3.835105   -3.065766
    107          6           0      -24.571659   -2.371994   -2.600134
    108          6           0      -24.231205   -5.704508   -1.344071
    109          6           0      -25.974202   -3.966947   -4.145779
    110          6           0      -25.574832   -4.584348   -5.594085
    111          7           0      -23.637579    0.380122   -1.755119
    112          6           0      -23.640112   -0.084020   -3.092583
    113          6           0      -23.217489    1.028574   -3.950876
    114          6           0      -23.310587    2.156607   -3.093813
    115          6           0      -23.443047    1.701071   -1.781215
    116          6           0      -22.838202    1.036464   -5.428683
    117          6           0      -22.999595    3.613811   -3.069068
    118          8           0      -22.595521    4.461654   -3.912473
    119          6           0      -23.264767    4.059929   -1.579251
    120          6           0      -22.057490    4.799637   -1.083113
    121          8           0      -20.926881    4.443910   -1.260794
    122          8           0      -22.446842    5.980512   -0.514445
    123          6           0      -21.310954    6.914553   -0.309795
    124          1           0      -24.286738    0.605887    4.368468
    125          1           0      -25.647256   -4.736400    0.798757
    126          1           0      -23.962906   -1.620532   -4.506818
    127          1           0      -23.121803    4.325664    1.603765
    128          1           0      -24.842974    3.031318    3.679509
    129          1           0      -22.083923    2.255217    4.008314
    130          1           0      -23.001105    3.478918    4.929719
    131          1           0      -22.077332    3.978397    3.615266
    132          1           0      -26.007372    4.412206    2.335828
    133          1           0      -25.874549    4.261479    0.591770
    134          1           0      -25.637328    6.527455    0.542307
    135          1           0      -24.057192    6.368825    1.188030
    136          1           0      -25.137103   -0.797580    5.902008
    137          1           0      -24.366846   -2.359114    6.108467
    138          1           0      -26.084993   -2.260415    5.900845
    139          1           0      -24.777225   -4.810014    5.503159
    140          1           0      -26.221881   -5.872114    5.354975
    141          1           0      -26.416930   -4.164471    5.664027
    142          1           0      -26.100260   -4.998302   -1.772891
    143          1           0      -23.801787   -4.206307   -3.461952
    144          1           0      -24.791018   -6.597308   -1.064124
    145          1           0      -23.613329   -5.542486   -0.460925
    146          1           0      -23.560313   -5.910161   -2.178422
    147          1           0      -26.476370   -3.024675   -4.362550
    148          1           0      -26.776214   -4.612288   -3.788401
    149          1           0      -24.649003   -5.135568   -5.428295
    150          1           0      -25.442481   -3.804810   -6.345485
    151          1           0      -26.277325   -5.357783   -5.903474
    152          1           0      -23.098199    1.976257   -5.915418
    153          1           0      -23.481294    0.313103   -5.931313
    154          1           0      -21.804588    0.690142   -5.425065
    155          1           0      -24.061098    4.801745   -1.634241
    156          1           0      -20.551598    6.380745    0.261310
    157          1           0      -21.725477    7.672788    0.354368
    158          1           0      -20.796814    7.326572   -1.178084
 ---------------------------------------------------------------------

 SCF Done:  E(RPBE1PBE) =  -4067.36210559     A.U. after   16 cycles

 Excitation energies and oscillator strengths:

 Excited State   1:      Singlet-A      1.8249 eV  679.42 nm  f=0.3128  <S**2>=0.000
     309 -> 316       -0.17144
     311 -> 313        0.69274
     311 <- 313       -0.10891
 This state for optimization and/or second-order correction.
 Total Energy, E(TD-HF/TD-DFT) =  -4067.29504302
 Copying the excited state density for this state as the 1-particle RhoCI density.

 Excited State   2:      Singlet-A      1.8271 eV  678.59 nm  f=0.3997  <S**2>=0.000
     310 -> 315        0.18236
     312 -> 314        0.68969
     312 <- 314       -0.10641

 Excited State   3:      Singlet-A      1.9699 eV  629.41 nm  f=0.0000  <S**2>=0.000
     312 -> 313        0.70711

 Excited State   4:      Singlet-A      1.9763 eV  627.34 nm  f=0.0000  <S**2>=0.000
     311 -> 314        0.70711

 Excited State   5:      Singlet-A      2.1728 eV  570.63 nm  f=0.1283  <S**2>=0.000
     310 -> 314        0.65732
     312 -> 315       -0.25556

 The electronic state is 1-A.
 Alpha  occ. eigenvalues --  -46.92030 -46.91993 -19.26321 -19.25179 -19.20255
 Alpha  occ. eigenvalues --  -19.19986 -19.19084 -19.19062 -19.19043 -19.18730
 Alpha  occ. eigenvalues --  -14.42717 -14.41981 -14.41617 -14.41069 -14.40333
 Alpha  occ. eigenvalues --  -14.39242 -14.39039 -14.38891 -10.36463 -10.35870
 Alpha  occ. eigenvalues --  -10.32456 -10.32139 -10.32116 -10.32063 -10.29475
 Alpha  occ. eigenvalues --  -10.29344 -10.29174 -10.29117 -10.29109 -10.29067
 Alpha  occ. eigenvalues --  -10.29032 -10.28944 -10.28823 -10.28717 -10.28512
 Alpha  occ. eigenvalues --  -10.28508 -10.28268 -10.28113 -10.27966 -10.27949
 Alpha  occ. eigenvalues --  -10.27497 -10.26899 -10.26873 -10.26824 -10.26723
 Alpha  occ. eigenvalues --  -10.26680 -10.26473 -10.26449 -10.26423 -10.26382
 Alpha  occ. eigenvalues --  -10.26322 -10.26121 -10.25962 -10.25943 -10.25828
 Alpha  occ. eigenvalues --  -10.25823 -10.25702 -10.25637 -10.25576 -10.25490
 Alpha  occ. eigenvalues --  -10.25403 -10.25248 -10.25027 -10.24994 -10.24964
 Alpha  occ. eigenvalues --  -10.24913 -10.24901 -10.24876 -10.24581 -10.24577
 Alpha  occ. eigenvalues --  -10.24524 -10.24027 -10.23939 -10.23784 -10.23708
 Alpha  occ. eigenvalues --  -10.23670 -10.23457 -10.23352 -10.23243 -10.23112
 Alpha  occ. eigenvalues --  -10.23073 -10.23019 -10.22814 -10.22577 -10.22410
 Alpha  occ. eigenvalues --  -10.21905  -3.14213  -3.14108  -1.87052  -1.86972
 Alpha  occ. eigenvalues --   -1.86587  -1.86459  -1.86457  -1.86347  -1.11753
 Alpha  occ. eigenvalues --   -1.10369  -1.06634  -1.04590  -1.03537  -1.02241
 Alpha  occ. eigenvalues --   -1.01920  -1.01569  -0.99832  -0.98684  -0.97975
 Alpha  occ. eigenvalues --   -0.97880  -0.97840  -0.97278  -0.96655  -0.96416
 Alpha  occ. eigenvalues --   -0.87418  -0.85972  -0.84263  -0.83720  -0.82993
 Alpha  occ. eigenvalues --   -0.82924  -0.82794  -0.82358  -0.81995  -0.81741
 Alpha  occ. eigenvalues --   -0.81298  -0.81267  -0.80799  -0.80109  -0.78893
 Alpha  occ. eigenvalues --   -0.78270  -0.77902  -0.77509  -0.76826  -0.76565
 Alpha  occ. eigenvalues --   -0.76103  -0.75519  -0.75501  -0.75032  -0.74227
 Alpha  occ. eigenvalues --   -0.74001  -0.73288  -0.72986  -0.71675  -0.71504
 Alpha  occ. eigenvalues --   -0.71501  -0.71139  -0.70580  -0.70353  -0.69616
 Alpha  occ. eigenvalues --   -0.69337  -0.67067  -0.67009  -0.65878  -0.65754
 Alpha  occ. eigenvalues --   -0.64054  -0.63517  -0.63296  -0.63185  -0.62305
 Alpha  occ. eigenvalues --   -0.61993  -0.61546  -0.61402  -0.60403  -0.60204
 Alpha  occ. eigenvalues --   -0.60047  -0.59443  -0.59021  -0.58834  -0.58589
 Alpha  occ. eigenvalues --   -0.57896  -0.56980  -0.56392  -0.55312  -0.54770
 Alpha  occ. eigenvalues --   -0.54459  -0.53891  -0.53759  -0.53617  -0.53348
 Alpha  occ. eigenvalues --   -0.53072  -0.52982  -0.52502  -0.52288  -0.51762
 Alpha  occ. eigenvalues --   -0.50917  -0.50721  -0.50330  -0.49904  -0.49506
 Alpha  occ. eigenvalues --   -0.49244  -0.49095  -0.49069  -0.48652  -0.48498
 Alpha  occ. eigenvalues --   -0.48422  -0.48110  -0.47991  -0.47936  -0.47699
 Alpha  occ. eigenvalues --   -0.47305  -0.47123  -0.46926  -0.46687  -0.46521
 Alpha  occ. eigenvalues --   -0.46305  -0.46075  -0.46043  -0.46025  -0.45950
 Alpha  occ. eigenvalues --   -0.45486  -0.45476  -0.45356  -0.45113  -0.44737
 Alpha  occ. eigenvalues --   -0.44731  -0.44607  -0.44564  -0.44388  -0.44302
 Alpha  occ. eigenvalues --   -0.43964  -0.43930  -0.43844  -0.43752  -0.43721
 Alpha  occ. eigenvalues --   -0.43303  -0.43023  -0.42980  -0.42833  -0.42826
 Alpha  occ. eigenvalues --   -0.42667  -0.42393  -0.42298  -0.42188  -0.42096
 Alpha  occ. eigenvalues --   -0.41927  -0.41727  -0.41606  -0.41443  -0.41241
 Alpha  occ. eigenvalues --   -0.41062  -0.40956  -0.40759  -0.40751  -0.40426
 Alpha  occ. eigenvalues --   -0.40358  -0.40145  -0.40007  -0.39769  -0.39672
 Alpha  occ. eigenvalues --   -0.39610  -0.39543  -0.39272  -0.39124  -0.38926
 Alpha  occ. eigenvalues --   -0.38869  -0.38774  -0.38571  -0.38487  -0.38394
 Alpha  occ. eigenvalues --   -0.38132  -0.38021  -0.37838  -0.37719  -0.37646
 Alpha  occ. eigenvalues --   -0.37479  -0.37323  -0.37285  -0.37123  -0.36795
 Alpha  occ. eigenvalues --   -0.36688  -0.36422  -0.36404  -0.36176  -0.35883
 Alpha  occ. eigenvalues --   -0.35829  -0.35708  -0.35621  -0.35393  -0.35268
 Alpha  occ. eigenvalues --   -0.35201  -0.35163  -0.34708  -0.34491  -0.34449
 Alpha  occ. eigenvalues --   -0.33594  -0.33290  -0.33274  -0.32701  -0.32537
 Alpha  occ. eigenvalues --   -0.32343  -0.32278  -0.32107  -0.31478  -0.31450
 Alpha  occ. eigenvalues --   -0.31217  -0.30669  -0.29813  -0.29780  -0.29534
 Alpha  occ. eigenvalues --   -0.29392  -0.28811  -0.28611  -0.27163  -0.27126
 Alpha  occ. eigenvalues --   -0.26023  -0.25984  -0.25720  -0.25592  -0.25583
 Alpha  occ. eigenvalues --   -0.25296  -0.25257  -0.25039  -0.21029  -0.20871
 Alpha  occ. eigenvalues --   -0.18959  -0.18948
 Alpha virt. eigenvalues --   -0.11435  -0.11425  -0.05343  -0.05248  -0.04097
 Alpha virt. eigenvalues --   -0.03816  -0.02403  -0.02232  -0.00030   0.00039
 Alpha virt. eigenvalues --    0.00672   0.00736   0.00936   0.00982   0.01261

 Mulliken charges:
               1
     1  Mg  11.995544
     2  C    6.017158
     3  C    5.987829
     4  C    5.986071
     5  C    6.009876
     6  N    7.011107
     7  C    5.962129
     8  C    6.013780
     9  C    5.983657
    10  C    6.037416
    11  C    5.996490
    12  C    6.000990
    13  C    6.000115
    14  H    1.003394
    15  N    6.992786
    16  C    6.042287
    17  C    6.012419
    18  C    6.021245
    19  C    6.027117
    20  C    5.999584
    21  C    6.011660
    22  O    8.027828
    23  C    5.997443
    24  N    6.999043
    25  C    6.025697
    26  C    5.996666
    27  C    6.004063
    28  C    5.973036
    29  C    6.001619
    30  C    6.006082
    31  C    5.999649
    32  N    6.998019
    33  C    5.962462
    34  C    5.967266
    35  C    5.999963
    36  C    5.973804
    37  C    6.000456
    38  C    5.986433
    39  O    7.971190
    40  C    5.996614
    41  C    5.994668
    42  O    7.997842
    43  O    7.997154
    44  C    6.002096
    45  H    1.010305
    46  H    1.004438
    47  H    0.992155
    48  H    1.002132
    49  H    1.005400
    50  H    1.007844
    51  H    1.013563
    52  H    0.994326
    53  H    0.989389
    54  H    1.005947
    55  H    0.997189
    56  H    0.994761
    57  H    1.013980
    58  H    1.014215
    59  H    1.013657
    60  H    1.007518
    61  H    1.007046
    62  H    1.013591
    63  H    0.998774
    64  H    0.999568
    65  H    1.011260
    66  H    1.001475
    67  H    0.993666
    68  H    0.992959
    69  H    1.006293
    70  H    1.005876
    71  H    0.984797
    72  H    0.997240
    73  H    0.979093
    74  H    0.987276
    75  H    0.980668
    76  H    0.994111
    77  H    0.998538
    78  H    0.994710
    79  H    0.994496
    80  Mg  12.000286
    81  C    5.998198
    82  C    5.999876
    83  C    6.002111
    84  C    5.999736
    85  N    6.998747
    86  C    6.002340
    87  C    5.999310
    88  C    6.000794
    89  C    5.998065
    90  C    6.000176
    91  C    5.999917
    92  C    5.999835
    93  H    1.000478
    94  N    7.000176
    95  C    5.997827
    96  C    5.998266
    97  C    5.999137
    98  C    5.998090
    99  C    6.000224
   100  C    5.999127
   101  O    7.997822
   102  C    6.000265
   103  N    7.000626
   104  C    5.997427
   105  C    6.000651
   106  C    5.999221
   107  C    6.002057
   108  C    6.000025
   109  C    5.999665
   110  C    5.999950
   111  N    6.999886
   112  C    6.002620
   113  C    6.002198
   114  C    6.000141
   115  C    6.002011
   116  C    6.000094
   117  C    6.000874
   118  O    8.002088
   119  C    6.000247
   120  C    6.000510
   121  O    7.999964
   122  O    8.000121
   123  C    5.999913
   124  H    0.999027
   125  H    0.999876
   126  H    1.000914
   127  H    0.999811
   128  H    0.999947
   129  H    1.000001
   130  H    0.999752
   131  H    0.999075
   132  H    1.000572
   133  H    0.999695
   134  H    0.999818
   135  H    0.999862
   136  H    0.998971
   137  H    0.998665
   138  H    0.998958
   139  H    0.999442
   140  H    0.999032
   141  H    0.999652
   142  H    1.000148
   143  H    1.000238
   144  H    1.000194
   145  H    1.000354
   146  H    0.999379
   147  H    0.999971
   148  H    1.000844
   149  H    1.000245
   150  H    0.999840
   151  H    1.000450
   152  H    1.001010
   153  H    1.001086
   154  H    1.001110
   155  H    1.000348
   156  H    1.000267
   157  H    1.000342
   158  H    1.000010
 Sum of Mulliken charges = 624.00000

 Dipole moment (field-independent basis, Debye):
    X=             -6.0021    Y=             -3.9270    Z=              6.2415  Tot=              9.5081
 Quadrupole moment (field-independent basis, Debye-Ang):
   XX=           -301.4044   YY=              4.7894   ZZ=              0.7342
   XY=           -102.2500   XZ=            181.0887   YZ=             -5.8039

 Normal termination of Gaussian 16 at Wed Oct 13 22:31:22 2021.
