 Gaussian 16, Revision A.03,
 Gaussian 16:  ES64L-G16RevA.03 25-Dec-2016

 --------------------------------------------------------
 #p PBE1PBE/Def2SVP td=(nstates=5) density=(transition=1)
 --------------------------------------------------------

 --------------------------------
 TDDFT excited states in gaussian
 --------------------------------
 Symbolic Z-matrix:
 Charge =  0 Multiplicity = 1

                         Standard orientation:
 ---------------------------------------------------------------------
 Center     Atomic      Atomic             Coordinates (Angstroms)
 Number     Number       Type             X           Y           Z
 ---------------------------------------------------------------------
      1         12           0       23.205514   -0.598115    0.102301
      2          6           0       20.973604    1.773211    1.025398
      3          6           0       25.531463    1.875691   -0.629127
      4          6           0       25.435495   -2.969913   -0.826800
      5          6           0       20.743404   -3.017794    0.359627
      6          7           0       23.219007    1.497086    0.310872
      7          6           0       22.196741    2.311102    0.676575
      8          6           0       22.636919    3.739782    0.862365
      9          6           0       23.999278    3.800989    0.072591
     10          6           0       24.287742    2.270447   -0.068790
     11          6           0       24.109337    4.633749   -1.272459
     12          6           0       22.880297    4.088788    2.399478
     13          6           0       22.744224    5.611802    2.694007
     14          1           0       23.023285    6.675209    1.618630
     15          7           0       25.210330   -0.591846   -0.715655
     16          6           0       25.980978    0.582893   -0.918835
     17          6           0       27.275878    0.223425   -1.413115
     18          6           0       27.276723   -1.214379   -1.500701
     19          6           0       25.924740   -1.628233   -0.980343
     20          6           0       28.383542    1.184643   -1.667815
     21          6           0       28.382769   -2.153163   -1.969452
     22          8           0       28.271364   -3.404226   -2.128235
     23          6           0       29.749850   -1.583017   -2.307422
     24          7           0       23.098894   -2.671031   -0.259295
     25          6           0       24.213634   -3.487220   -0.457689
     26          6           0       23.951721   -5.006014   -0.243358
     27          6           0       22.383816   -4.929296    0.196603
     28          6           0       22.036571   -3.487051    0.132980
     29          6           0       24.206444   -5.748970   -1.561150
     30          6           0       22.077189   -5.585205    1.510639
     31          6           0       21.012667   -6.640878    1.419502
     32          7           0       21.283964   -0.711058    0.456243
     33          6           0       20.363007   -1.745018    0.570420
     34          6           0       19.090480   -1.229550    0.916706
     35          6           0       19.227160    0.175737    1.075248
     36          6           0       20.599735    0.445881    0.891956
     37          6           0       17.818959   -1.954060    1.140841
     38          6           0       18.512070    1.416171    1.281173
     39          8           0       17.345003    1.722456    1.428152
     40          6           0       19.696969    2.493614    1.321945
     41          6           0       19.335915    3.758471    0.629868
     42          8           0       18.771816    3.863367   -0.429190
     43          8           0       19.668816    4.857639    1.324284
     44          6           0       19.331109    6.141112    0.645562
     45          1           0       26.115262    2.726054   -0.987970
     46          1           0       26.116798   -3.708707   -1.253760
     47          1           0       19.941434   -3.727457    0.573000
     48          1           0       21.993083    4.445450    0.337649
     49          1           0       24.770197    4.164355    0.751353
     50          1           0       23.164153    5.160695   -1.403583
     51          1           0       24.341458    4.089633   -2.186596
     52          1           0       24.950091    5.315865   -1.144742
     53          1           0       23.875037    3.694480    2.607857
     54          1           0       22.136107    3.538623    2.975456
     55          1           0       23.429629    5.745019    3.531211
     56          1           0       21.756600    5.746887    3.134183
     57          1           0       28.963352    1.483084   -0.794343
     58          1           0       27.914290    2.040086   -2.152117
     59          1           0       29.041825    0.875402   -2.479144
     60          1           0       29.675616   -1.221203   -3.332824
     61          1           0       30.424081   -2.438465   -2.273981
     62          1           0       30.060484   -0.760647   -1.662729
     63          1           0       24.692841   -5.337825    0.483888
     64          1           0       21.791161   -5.457928   -0.550758
     65          1           0       24.376202   -5.121847   -2.436613
     66          1           0       23.428559   -6.499773   -1.698006
     67          1           0       25.159280   -6.262672   -1.430193
     68          1           0       21.685250   -4.893026    2.255988
     69          1           0       22.936244   -6.040219    2.003841
     70          1           0       21.292424   -7.574258    1.907170
     71          1           0       20.783198   -6.884995    0.382609
     72          1           0       20.120118   -6.150836    1.809605
     73          1           0       17.678058   -2.865784    0.559556
     74          1           0       17.083338   -1.319413    0.645851
     75          1           0       17.676353   -2.135927    2.206112
     76          1           0       19.653315    2.686024    2.394334
     77          1           0       18.269127    6.378686    0.722215
     78          1           0       19.737967    6.187581   -0.364729
     79          1           0       19.847485    6.946201    1.168906
     80         12           0      -23.243834   -0.689451    0.071445
     81          6           0      -22.359574    2.509552   -1.157783
     82          6           0      -23.167651    0.594331    3.191599
     83          6           0      -23.926992   -3.700405    1.160368
     84          6           0      -22.534662   -1.963100   -3.206167
     85          7           0      -22.706151    1.335836    0.973115
     86          6           0      -22.638745    2.499252    0.224988
     87          6           0      -22.748510    3.635713    1.183226
     88          6           0      -22.438075    3.024678    2.550005
     89          6           0      -22.806879    1.544898    2.277356
     90          6           0      -20.907112    3.160697    2.892579
     91          6           0      -24.153707    4.446774    1.196873
     92          6           0      -24.167291    6.003690    1.284531
     93          1           0      -23.293415    6.650332    2.397928
     94          7           0      -23.496068   -1.426472    1.966234
     95          6           0      -23.441527   -0.744695    3.072255
     96          6           0      -23.656139   -1.671814    4.196836
     97          6           0      -24.099569   -2.911456    3.644204
     98          6           0      -23.827568   -2.734826    2.189395
     99          6           0      -23.500071   -1.400672    5.737463
    100          6           0      -24.687637   -4.162871    4.295356
    101          8           0      -24.921488   -5.225305    3.688144
    102          6           0      -24.795932   -4.200617    5.745634
    103          7           0      -23.052869   -2.626113   -0.912681
    104          6           0      -23.528750   -3.740853   -0.227355
    105          6           0      -23.653297   -4.945983   -1.237504
    106          6           0      -23.337182   -4.295658   -2.607439
    107          6           0      -22.986844   -2.851457   -2.242134
    108          6           0      -22.817977   -6.158866   -0.826737
    109          6           0      -24.411372   -4.468138   -3.710702
    110          6           0      -23.924982   -4.728925   -5.155406
    111          7           0      -22.572166    0.055162   -1.808115
    112          6           0      -22.283373   -0.568845   -3.017623
    113          6           0      -22.014924    0.446316   -4.004204
    114          6           0      -21.978497    1.654482   -3.306384
    115          6           0      -22.337555    1.397293   -1.954513
    116          6           0      -21.845719    0.261121   -5.385271
    117          6           0      -21.810782    3.110629   -3.422592
    118          8           0      -21.588456    3.846748   -4.370790
    119          6           0      -22.082516    3.724543   -2.010271
    120          6           0      -20.851412    4.523558   -1.621426
    121          8           0      -19.791981    4.227133   -1.117103
    122          8           0      -21.253617    5.800424   -1.887894
    123          6           0      -20.449115    6.909355   -1.321739
    124          1           0      -23.233490    1.013924    4.197993
    125          1           0      -24.355554   -4.633131    1.532769
    126          1           0      -22.535060   -2.294703   -4.246154
    127          1           0      -22.044769    4.455298    1.035742
    128          1           0      -23.131391    3.351585    3.324570
    129          1           0      -20.701115    3.277892    3.955966
    130          1           0      -20.454725    4.066723    2.488642
    131          1           0      -20.464110    2.220127    2.566990
    132          1           0      -24.812504    4.011504    1.947568
    133          1           0      -24.715895    4.214840    0.291537
    134          1           0      -25.198659    6.206118    1.575598
    135          1           0      -23.879435    6.281750    0.270637
    136          1           0      -24.429021   -1.395488    6.307211
    137          1           0      -23.011844   -0.431054    5.839270
    138          1           0      -22.957205   -2.166621    6.291349
    139          1           0      -25.358554   -3.343624    6.116870
    140          1           0      -23.808666   -4.216594    6.207492
    141          1           0      -25.447109   -5.039312    5.989978
    142          1           0      -24.715911   -5.184121   -1.287176
    143          1           0      -22.368043   -4.631331   -2.975973
    144          1           0      -21.821357   -6.067785   -1.259910
    145          1           0      -23.180608   -7.111019   -1.212728
    146          1           0      -22.593422   -6.089840    0.237135
    147          1           0      -25.153663   -3.670514   -3.736394
    148          1           0      -25.079108   -5.298456   -3.477017
    149          1           0      -23.960027   -3.746857   -5.627242
    150          1           0      -24.705622   -5.345602   -5.601997
    151          1           0      -22.922900   -5.156759   -5.143595
    152          1           0      -21.301794    1.000717   -5.972412
    153          1           0      -22.839425    0.090901   -5.800802
    154          1           0      -21.246661   -0.643730   -5.481015
    155          1           0      -22.969689    4.356709   -2.042721
    156          1           0      -21.186540    7.614923   -0.940091
    157          1           0      -19.813424    7.450198   -2.022340
    158          1           0      -19.850317    6.545921   -0.487011
 ---------------------------------------------------------------------

 SCF Done:  E(RPBE1PBE) =  -4067.37420319     A.U. after   16 cycles

 Excitation energies and oscillator strengths:

 Excited State   1:      Singlet-A      1.8022 eV  687.94 nm  f=0.3708  <S**2>=0.000
     309 -> 316       -0.16357
     311 -> 313        0.69742
     311 <- 313       -0.11962
 This state for optimization and/or second-order correction.
 Total Energy, E(TD-HF/TD-DFT) =  -4067.30797197
 Copying the excited state density for this state as the 1-particle RhoCI density.

 Excited State   2:      Singlet-A      1.8849 eV  657.79 nm  f=0.3775  <S**2>=0.000
     310 -> 315        0.17658
     312 -> 314        0.68858

 Excited State   3:      Singlet-A      1.8858 eV  657.46 nm  f=0.0000  <S**2>=0.000
     312 -> 313        0.70711

 Excited State   4:      Singlet-A      2.0702 eV  598.89 nm  f=0.0000  <S**2>=0.000
     311 -> 314        0.70711

 Excited State   5:      Singlet-A      2.2176 eV  559.08 nm  f=0.1174  <S**2>=0.000
     309 -> 313        0.65145
     311 -> 316        0.25931

 The electronic state is 1-A.
 Alpha  occ. eigenvalues --  -46.92721 -46.90550 -19.25760 -19.25034 -19.20229
 Alpha  occ. eigenvalues --  -19.19418 -19.19392 -19.18960 -19.18899 -19.18709
 Alpha  occ. eigenvalues --  -14.42274 -14.41285 -14.41284 -14.40900 -14.39408
 Alpha  occ. eigenvalues --  -14.39118 -14.38644 -14.38479 -10.36220 -10.35562
 Alpha  occ. eigenvalues --  -10.32542 -10.32324 -10.32249 -10.31971 -10.29426
 Alpha  occ. eigenvalues --  -10.29259 -10.29101 -10.28665 -10.28655 -10.28548
 Alpha  occ. eigenvalues --  -10.28442 -10.28369 -10.28229 -10.28089 -10.27716
 Alpha  occ. eigenvalues --  -10.27683 -10.27543 -10.27532 -10.27353 -10.27324
 Alpha  occ. eigenvalues --  -10.27051 -10.26855 -10.26663 -10.26501 -10.26310
 Alpha  occ. eigenvalues --  -10.26069 -10.25991 -10.25914 -10.25851 -10.25677
 Alpha  occ. eigenvalues --  -10.25531 -10.25473 -10.25467 -10.25447 -10.25354
 Alpha  occ. eigenvalues --  -10.25349 -10.25341 -10.25336 -10.25318 -10.25233
 Alpha  occ. eigenvalues --  -10.25203 -10.25144 -10.25057 -10.25028 -10.24974
 Alpha  occ. eigenvalues --  -10.24850 -10.24554 -10.24349 -10.24291 -10.24194
 Alpha  occ. eigenvalues --  -10.24008 -10.23755 -10.23633 -10.23254 -10.23247
 Alpha  occ. eigenvalues --  -10.23246 -10.23212 -10.23162 -10.23088 -10.23066
 Alpha  occ. eigenvalues --  -10.22991 -10.22980 -10.22970 -10.22678 -10.22556
 Alpha  occ. eigenvalues --  -10.22549  -3.14693  -3.12979  -1.87530  -1.87068
 Alpha  occ. eigenvalues --   -1.86906  -1.85813  -1.85333  -1.85249  -1.12062
 Alpha  occ. eigenvalues --   -1.10866  -1.04857  -1.04330  -1.03980  -1.02578
 Alpha  occ. eigenvalues --   -1.02072  -1.02060  -0.99764  -0.99083  -0.98536
 Alpha  occ. eigenvalues --   -0.98219  -0.97669  -0.97333  -0.96730  -0.96030
 Alpha  occ. eigenvalues --   -0.87715  -0.87128  -0.84004  -0.83159  -0.83084
 Alpha  occ. eigenvalues --   -0.82818  -0.82753  -0.82276  -0.82008  -0.81880
 Alpha  occ. eigenvalues --   -0.81513  -0.81314  -0.81147  -0.80698  -0.78642
 Alpha  occ. eigenvalues --   -0.78490  -0.78064  -0.77866  -0.76951  -0.76741
 Alpha  occ. eigenvalues --   -0.76560  -0.75869  -0.75821  -0.75374  -0.74954
 Alpha  occ. eigenvalues --   -0.74739  -0.72633  -0.72589  -0.72093  -0.71728
 Alpha  occ. eigenvalues --   -0.71628  -0.71323  -0.70823  -0.70145  -0.69574
 Alpha  occ. eigenvalues --   -0.69445  -0.67323  -0.66967  -0.66277  -0.66248
 Alpha  occ. eigenvalues --   -0.63487  -0.63202  -0.63093  -0.63037  -0.62561
 Alpha  occ. eigenvalues --   -0.62169  -0.61700  -0.61093  -0.60259  -0.59950
 Alpha  occ. eigenvalues --   -0.59818  -0.59775  -0.59414  -0.59304  -0.58878
 Alpha  occ. eigenvalues --   -0.58660  -0.56881  -0.56510  -0.54966  -0.54862
 Alpha  occ. eigenvalues --   -0.54427  -0.54111  -0.53804  -0.53528  -0.52983
 Alpha  occ. eigenvalues --   -0.52925  -0.52521  -0.52370  -0.52295  -0.52055
 Alpha  occ. eigenvalues --   -0.50727  -0.50666  -0.50416  -0.49852  -0.49726
 Alpha  occ. eigenvalues --   -0.49710  -0.49564  -0.48993  -0.48501  -0.48254
 Alpha  occ. eigenvalues --   -0.48105  -0.47945  -0.47786  -0.47607  -0.47592
 Alpha  occ. eigenvalues --   -0.47460  -0.47373  -0.47077  -0.46974  -0.46880
 Alpha  occ. eigenvalues --   -0.46655  -0.46651  -0.46587  -0.46235  -0.46111
 Alpha  occ. eigenvalues --   -0.45874  -0.45860  -0.45725  -0.45370  -0.44965
 Alpha  occ. eigenvalues --   -0.44939  -0.44632  -0.44587  -0.44409  -0.44221
 Alpha  occ. eigenvalues --   -0.44125  -0.43918  -0.43569  -0.43537  -0.43449
 Alpha  occ. eigenvalues --   -0.43408  -0.43061  -0.42842  -0.42834  -0.42675
 Alpha  occ. eigenvalues --   -0.42359  -0.42330  -0.42065  -0.41985  -0.41815
 Alpha  occ. eigenvalues --   -0.41778  -0.41437  -0.41380  -0.41340  -0.41318
 Alpha  occ. eigenvalues --   -0.41032  -0.40981  -0.40662  -0.40616  -0.40296
 Alpha  occ. eigenvalues --   -0.39965  -0.39743  -0.39722  -0.39624  -0.39542
 Alpha  occ. eigenvalues --   -0.39464  -0.39344  -0.39161  -0.38845  -0.38777
 Alpha  occ. eigenvalues --   -0.38688  -0.38619  -0.38381  -0.38355  -0.38100
 Alpha  occ. eigenvalues --   -0.37977  -0.37805  -0.37762  -0.37519  -0.37222
 Alpha  occ. eigenvalues --   -0.37155  -0.37128  -0.36986  -0.36785  -0.36762
 Alpha  occ. eigenvalues --   -0.36657  -0.36357  -0.36256  -0.36144  -0.35898
 Alpha  occ. eigenvalues --   -0.35735  -0.35723  -0.35400  -0.35321  -0.35272
 Alpha  occ. eigenvalues --   -0.35250  -0.35075  -0.34948  -0.34706  -0.34582
 Alpha  occ. eigenvalues --   -0.33681  -0.33222  -0.32970  -0.32649  -0.32635
 Alpha  occ. eigenvalues --   -0.32372  -0.32222  -0.32033  -0.31602  -0.31580
 Alpha  occ. eigenvalues --   -0.31365  -0.30931  -0.29812  -0.29566  -0.29382
 Alpha  occ. eigenvalues --   -0.29106  -0.28578  -0.28406  -0.26984  -0.26871
 Alpha  occ. eigenvalues --   -0.26463  -0.25925  -0.25893  -0.25507  -0.25420
 Alpha  occ. eigenvalues --   -0.25332  -0.25180  -0.24927  -0.21181  -0.20889
 Alpha  occ. eigenvalues --   -0.18688  -0.18605
 Alpha virt. eigenvalues --   -0.11388  -0.10793  -0.05539  -0.05118  -0.04240
 Alpha virt. eigenvalues --   -0.04072  -0.02128  -0.02119  -0.00868   0.00129
 Alpha virt. eigenvalues --    0.00857   0.01143   0.01212   0.01266   0.01292

 Mulliken charges:
               1
     1  Mg  12.004221
     2  C    5.978669
     3  C    5.999479
     4  C    6.030814
     5  C    6.015653
     6  N    6.985524
     7  C    6.031647
     8  C    5.988282
     9  C    6.009553
    10  C    5.968534
    11  C    6.004417
    12  C    5.997394
    13  C    5.999959
    14  H    1.005864
    15  N    7.003437
    16  C    5.962106
    17  C    5.986237
    18  C    5.978804
    19  C    5.970028
    20  C    6.003543
    21  C    5.986441
    22  O    7.962563
    23  C    6.004858
    24  N    7.019786
    25  C    5.967255
    26  C    6.009313
    27  C    5.988503
    28  C    6.017989
    29  C    5.999794
    30  C    5.993698
    31  C    5.999717
    32  N    6.997378
    33  C    6.019356
    34  C    6.034904
    35  C    6.000656
    36  C    6.029166
    37  C    5.997080
    38  C    6.013822
    39  O    8.023566
    40  C    6.003568
    41  C    6.003181
    42  O    8.002206
    43  O    8.001926
    44  C    5.998558
    45  H    0.985350
    46  H    1.001369
    47  H    1.014834
    48  H    0.999195
    49  H    0.996515
    50  H    0.985146
    51  H    1.000539
    52  H    0.996774
    53  H    1.011069
    54  H    0.992815
    55  H    1.002246
    56  H    0.995666
    57  H    0.981829
    58  H    0.987243
    59  H    0.986282
    60  H    0.989928
    61  H    0.985682
    62  H    0.993067
    63  H    1.003687
    64  H    1.004129
    65  H    1.004933
    66  H    0.992573
    67  H    1.005144
    68  H    0.998250
    69  H    1.012425
    70  H    1.007130
    71  H    1.003898
    72  H    0.996014
    73  H    1.016576
    74  H    1.015394
    75  H    1.021207
    76  H    1.003523
    77  H    1.000419
    78  H    1.004977
    79  H    1.004722
    80  Mg  12.000002
    81  C    6.000029
    82  C    5.999976
    83  C    5.999950
    84  C    5.999952
    85  N    6.999895
    86  C    6.000021
    87  C    6.000013
    88  C    6.000007
    89  C    6.000060
    90  C    5.999994
    91  C    5.999978
    92  C    6.000006
    93  H    0.999976
    94  N    7.000027
    95  C    5.999992
    96  C    6.000029
    97  C    6.000000
    98  C    6.000019
    99  C    5.999991
   100  C    6.000011
   101  O    8.000030
   102  C    5.999959
   103  N    7.000047
   104  C    6.000030
   105  C    5.999993
   106  C    6.000008
   107  C    5.999993
   108  C    6.000006
   109  C    6.000000
   110  C    5.999992
   111  N    6.999952
   112  C    5.999993
   113  C    5.999960
   114  C    6.000001
   115  C    5.999961
   116  C    6.000029
   117  C    6.000015
   118  O    7.999989
   119  C    5.999983
   120  C    5.999992
   121  O    7.999949
   122  O    8.000028
   123  C    6.000004
   124  H    1.000006
   125  H    1.000032
   126  H    1.000026
   127  H    0.999984
   128  H    1.000022
   129  H    0.999977
   130  H    0.999983
   131  H    0.999963
   132  H    1.000024
   133  H    1.000033
   134  H    1.000040
   135  H    1.000001
   136  H    1.000044
   137  H    0.999983
   138  H    0.999979
   139  H    1.000036
   140  H    0.999970
   141  H    1.000044
   142  H    1.000041
   143  H    0.999963
   144  H    0.999956
   145  H    1.000022
   146  H    0.999976
   147  H    1.000030
   148  H    1.000026
   149  H    1.000012
   150  H    1.000037
   151  H    0.999967
   152  H    0.999981
   153  H    1.000032
   154  H    0.999961
   155  H    1.000030
   156  H    1.000033
   157  H    0.999982
   158  H    0.999960
 Sum of Mulliken charges = 624.00000

 Dipole moment (field-independent basis, Debye):
    X=             -9.8437    Y=             -1.6170    Z=              2.9991  Tot=             10.4167
 Quadrupole moment (field-independent basis, Debye-Ang):
   XX=           -459.0043   YY=              4.9408   ZZ=             -1.6789
   XY=            -30.8918   XZ=             73.3618   YZ=             -2.1363

 Normal termination of Gaussian 16 at Fri Oct 15 02:03:45 2021.
