 Gaussian 16, Revision A.03,
 Gaussian 16:  ES64L-G16RevA.03 25-Dec-2016

 --------------------------------------------------------
 #p PBE1PBE/Def2SVP td=(nstates=5) density=(transition=1)
 --------------------------------------------------------

 --------------------------------
 TDDFT excited states in gaussian
 --------------------------------
 Symbolic Z-matrix:
 Charge =  0 Multiplicity = 1

                         Standard orientation:
 ---------------------------------------------------------------------
 Center     Atomic      Atomic             Coordinates (Angstroms)
 Number     Number       Type             X           Y           Z
 ---------------------------------------------------------------------
      1         12           0        9.744050   -0.078062    0.803676
      2          6           0        9.189145    1.736391   -2.237088
      3          6           0        6.646806    1.205019    1.934984
      4          6           0        9.829825   -2.317539    3.301209
      5          6           0       12.358137   -1.708638   -0.752328
      6          7           0        8.082001    1.332100   -0.038212
      7          6           0        8.137032    1.868543   -1.294149
      8          6           0        6.787033    2.470013   -1.651338
      9          6           0        6.155263    2.511942   -0.197208
     10          6           0        6.969658    1.634553    0.675125
     11          6           0        5.997576    3.916659    0.475956
     12          6           0        6.097686    1.619093   -2.765732
     13          6           0        5.407410    2.340313   -3.995423
     14          1           0        3.895492    2.170205   -4.228953
     15          7           0        8.591321   -0.386733    2.446315
     16          6           0        7.357609    0.238193    2.767876
     17          6           0        6.863773   -0.240202    4.045929
     18          6           0        7.806010   -1.279529    4.428746
     19          6           0        8.795166   -1.340176    3.369015
     20          6           0        5.579259    0.215862    4.601083
     21          6           0        7.685054   -2.070569    5.742892
     22          8           0        6.653142   -1.843772    6.439733
     23          6           0        8.708828   -3.099894    6.266977
     24          7           0       10.753788   -1.991326    1.160322
     25          6           0       10.748922   -2.612950    2.323887
     26          6           0       11.697723   -3.765425    2.250292
     27          6           0       12.524892   -3.494058    0.965272
     28          6           0       11.781196   -2.352184    0.343646
     29          6           0       12.627220   -4.108622    3.491878
     30          6           0       12.676334   -4.751996   -0.036521
     31          6           0       14.088169   -5.341852   -0.273671
     32          7           0       10.732577    0.095165   -0.971468
     33          6           0       11.759212   -0.615175   -1.468484
     34          6           0       12.125285   -0.166580   -2.761788
     35          6           0       11.159565    0.792687   -3.075237
     36          6           0       10.287545    0.897966   -1.962241
     37          6           0       13.240811   -0.559720   -3.644564
     38          6           0       10.762895    1.649330   -4.149891
     39          8           0       11.243875    1.741400   -5.257017
     40          6           0        9.338646    2.312494   -3.622039
     41          6           0        9.453995    3.775164   -3.582722
     42          8           0       10.425888    4.408827   -3.152126
     43          8           0        8.272113    4.277885   -4.083666
     44          6           0        8.159975    5.734243   -4.144890
     45          1           0        5.702157    1.569151    2.341782
     46          1           0        9.847756   -3.131986    4.027916
     47          1           0       13.305876   -2.026481   -1.192318
     48          1           0        6.978063    3.509993   -1.917255
     49          1           0        5.236468    1.968566   -0.420904
     50          1           0        6.533224    3.882851    1.425739
     51          1           0        4.968460    4.185349    0.713315
     52          1           0        6.453508    4.749919   -0.059616
     53          1           0        5.342407    1.118461   -2.160318
     54          1           0        6.702501    0.823850   -3.200914
     55          1           0        5.964161    1.992436   -4.865352
     56          1           0        5.698252    3.390184   -3.976444
     57          1           0        4.837576    0.067138    3.815946
     58          1           0        5.612000    1.290474    4.779428
     59          1           0        5.272994   -0.178589    5.570308
     60          1           0        8.635180   -3.992397    5.645374
     61          1           0        8.570034   -3.083732    7.347484
     62          1           0        9.661709   -2.603672    6.079839
     63          1           0       11.088009   -4.661405    2.140574
     64          1           0       13.431206   -3.049268    1.376391
     65          1           0       12.792366   -5.183532    3.414270
     66          1           0       12.108560   -3.812379    4.403519
     67          1           0       13.561937   -3.570111    3.334670
     68          1           0       12.243337   -4.388284   -0.968217
     69          1           0       11.964944   -5.512020    0.286310
     70          1           0       14.320171   -5.470012   -1.330114
     71          1           0       14.152895   -6.302017    0.238870
     72          1           0       14.887708   -4.765246    0.191851
     73          1           0       13.430758    0.188805   -4.413152
     74          1           0       12.794652   -1.472294   -4.040276
     75          1           0       14.033866   -0.971046   -3.020213
     76          1           0        8.489106    1.922499   -4.181509
     77          1           0        9.015402    6.184246   -4.649230
     78          1           0        8.053258    6.138290   -3.137105
     79          1           0        7.272767    5.990663   -4.723914
     80         12           0       -9.901480   -0.747354   -0.120676
     81          6           0       -8.231461    1.973759    1.435213
     82          6           0       -6.687768   -1.819741   -1.137563
     83          6           0      -11.317064   -3.090404   -1.895663
     84          6           0      -12.945269    0.686174    0.760763
     85          7           0       -7.663837    0.013692    0.118726
     86          6           0       -7.307084    1.091548    0.891414
     87          6           0       -5.803484    1.244838    1.046394
     88          6           0       -5.338129    0.066775    0.087303
     89          6           0       -6.629753   -0.661280   -0.315587
     90          6           0       -4.448953    0.594160   -1.034946
     91          6           0       -5.381730    1.043740    2.518538
     92          6           0       -4.195175    1.911103    3.088001
     93          1           0       -3.213242    2.553566    2.080101
     94          7           0       -9.118037   -2.307232   -1.294039
     95          6           0       -7.783668   -2.515443   -1.644202
     96          6           0       -7.717797   -3.711661   -2.498624
     97          6           0       -9.074341   -4.150419   -2.643475
     98          6           0       -9.876596   -3.174726   -1.880960
     99          6           0       -6.500966   -4.195647   -3.084769
    100          6           0       -9.607325   -5.346156   -3.426353
    101          8           0      -10.827434   -5.544167   -3.539820
    102          6           0       -8.690590   -6.395369   -3.920384
    103          7           0      -11.859925   -1.086901   -0.598725
    104          6           0      -12.199769   -2.189985   -1.270741
    105          6           0      -13.746604   -2.263661   -1.484631
    106          6           0      -14.249136   -1.178862   -0.479838
    107          6           0      -12.997934   -0.461133   -0.081011
    108          6           0      -14.202531   -2.087759   -2.977831
    109          6           0      -14.856223   -1.987182    0.729822
    110          6           0      -13.972301   -2.323298    1.980053
    111          7           0      -10.516535    0.897868    0.964892
    112          6           0      -11.820406    1.357983    1.223581
    113          6           0      -11.721924    2.641352    1.962254
    114          6           0      -10.359646    2.915054    1.998386
    115          6           0       -9.642179    1.877110    1.442408
    116          6           0      -12.907105    3.450334    2.188789
    117          6           0       -9.426044    3.981142    2.353196
    118          8           0       -9.685225    5.086488    2.815512
    119          6           0       -7.972510    3.427014    1.976366
    120          6           0       -7.291094    4.321470    1.009230
    121          8           0       -7.290439    4.201746   -0.212567
    122          8           0       -6.617859    5.334433    1.717990
    123          6           0       -5.909049    6.392374    1.034124
    124          1           0       -5.744557   -2.351192   -1.283022
    125          1           0      -11.854812   -3.860280   -2.453630
    126          1           0      -13.955928    1.011288    1.015202
    127          1           0       -5.441918    2.213429    0.700170
    128          1           0       -4.653084   -0.542050    0.676709
    129          1           0       -3.473599    0.115031   -1.112337
    130          1           0       -4.256601    1.667077   -1.031922
    131          1           0       -4.941335    0.322136   -1.969521
    132          1           0       -5.131271    0.000535    2.710762
    133          1           0       -6.323920    1.261190    3.022822
    134          1           0       -3.530899    1.293134    3.691190
    135          1           0       -4.650934    2.548576    3.845623
    136          1           0       -6.435235   -5.251181   -2.820105
    137          1           0       -5.673173   -3.516780   -2.882113
    138          1           0       -6.710887   -4.009128   -4.138449
    139          1           0       -8.084978   -6.079844   -4.770497
    140          1           0       -9.273013   -7.246217   -4.273340
    141          1           0       -7.960477   -6.590260   -3.135386
    142          1           0      -13.892158   -3.299429   -1.177786
    143          1           0      -15.042092   -0.564880   -0.907601
    144          1           0      -14.356779   -3.063828   -3.438020
    145          1           0      -13.459632   -1.451414   -3.457648
    146          1           0      -15.147186   -1.545704   -2.937508
    147          1           0      -15.429532   -2.831064    0.345523
    148          1           0      -15.501274   -1.251523    1.211176
    149          1           0      -14.222565   -3.362936    2.189292
    150          1           0      -14.231678   -1.730538    2.858189
    151          1           0      -12.893841   -2.279028    1.832091
    152          1           0      -13.453004    3.534303    1.249950
    153          1           0      -12.553014    4.443978    2.465231
    154          1           0      -13.448625    3.112615    3.072003
    155          1           0       -7.441528    3.456526    2.928337
    156          1           0       -6.495506    7.303945    0.921812
    157          1           0       -5.374536    6.014234    0.162553
    158          1           0       -5.071049    6.543583    1.715160
 ---------------------------------------------------------------------

 SCF Done:  E(RPBE1PBE) =  -4067.35843485     A.U. after   16 cycles

 Excitation energies and oscillator strengths:

 Excited State   1:      Singlet-A      1.7134 eV  723.60 nm  f=0.0000  <S**2>=0.000
     312 -> 313        0.70708
 This state for optimization and/or second-order correction.
 Total Energy, E(TD-HF/TD-DFT) =  -4067.29546714
 Copying the excited state density for this state as the 1-particle RhoCI density.

 Excited State   2:      Singlet-A      1.8632 eV  665.43 nm  f=0.3688  <S**2>=0.000
     309 -> 315        0.18028
     311 -> 313        0.69227
     311 <- 313       -0.10908

 Excited State   3:      Singlet-A      1.8854 eV  657.62 nm  f=0.3697  <S**2>=0.000
     310 -> 316       -0.18506
     312 -> 314        0.68848
     312 <- 314       -0.10052

 Excited State   4:      Singlet-A      2.0899 eV  593.26 nm  f=0.0000  <S**2>=0.000
     311 -> 314        0.70709

 Excited State   5:      Singlet-A      2.2630 eV  547.87 nm  f=0.1036  <S**2>=0.000
     309 -> 313        0.23317
     310 -> 314        0.59748
     312 -> 316        0.27084

 The electronic state is 1-A.
 Alpha  occ. eigenvalues --  -46.92413 -46.91927 -19.26960 -19.24694 -19.20822
 Alpha  occ. eigenvalues --  -19.20117 -19.20078 -19.19674 -19.18824 -19.18550
 Alpha  occ. eigenvalues --  -14.41515 -14.41457 -14.41087 -14.40994 -14.39727
 Alpha  occ. eigenvalues --  -14.39567 -14.39218 -14.38732 -10.37131 -10.36490
 Alpha  occ. eigenvalues --  -10.32695 -10.32655 -10.32602 -10.32266 -10.29711
 Alpha  occ. eigenvalues --  -10.29055 -10.28700 -10.28613 -10.28568 -10.28458
 Alpha  occ. eigenvalues --  -10.28401 -10.28240 -10.28164 -10.28160 -10.28127
 Alpha  occ. eigenvalues --  -10.28040 -10.27876 -10.27786 -10.27556 -10.27151
 Alpha  occ. eigenvalues --  -10.26878 -10.26780 -10.26627 -10.26561 -10.26443
 Alpha  occ. eigenvalues --  -10.26410 -10.26367 -10.26186 -10.25921 -10.25820
 Alpha  occ. eigenvalues --  -10.25739 -10.25584 -10.25534 -10.25486 -10.25472
 Alpha  occ. eigenvalues --  -10.25311 -10.25251 -10.25204 -10.25152 -10.25136
 Alpha  occ. eigenvalues --  -10.25036 -10.25030 -10.25023 -10.25010 -10.24993
 Alpha  occ. eigenvalues --  -10.24929 -10.24786 -10.24678 -10.24454 -10.24401
 Alpha  occ. eigenvalues --  -10.24278 -10.24268 -10.24133 -10.24124 -10.24033
 Alpha  occ. eigenvalues --  -10.23802 -10.23660 -10.23614 -10.23263 -10.23149
 Alpha  occ. eigenvalues --  -10.22779 -10.22776 -10.22709 -10.22677 -10.22584
 Alpha  occ. eigenvalues --  -10.22405  -3.14546  -3.14051  -1.87375  -1.86908
 Alpha  occ. eigenvalues --   -1.86900  -1.86786  -1.86439  -1.86261  -1.11343
 Alpha  occ. eigenvalues --   -1.09429  -1.05687  -1.04525  -1.03780  -1.03008
 Alpha  occ. eigenvalues --   -1.02112  -1.02095  -1.00234  -0.99524  -0.99297
 Alpha  occ. eigenvalues --   -0.98612  -0.98463  -0.97780  -0.97157  -0.96200
 Alpha  occ. eigenvalues --   -0.87603  -0.86397  -0.83970  -0.83789  -0.82940
 Alpha  occ. eigenvalues --   -0.82745  -0.82733  -0.82542  -0.82412  -0.81942
 Alpha  occ. eigenvalues --   -0.81611  -0.81133  -0.80649  -0.80472  -0.79059
 Alpha  occ. eigenvalues --   -0.78359  -0.78224  -0.77638  -0.77091  -0.76696
 Alpha  occ. eigenvalues --   -0.76341  -0.76271  -0.75813  -0.75210  -0.74914
 Alpha  occ. eigenvalues --   -0.74839  -0.73102  -0.72700  -0.72071  -0.71481
 Alpha  occ. eigenvalues --   -0.71324  -0.71227  -0.70694  -0.70120  -0.69833
 Alpha  occ. eigenvalues --   -0.69152  -0.67790  -0.66786  -0.66649  -0.65783
 Alpha  occ. eigenvalues --   -0.64276  -0.63959  -0.63664  -0.63230  -0.62986
 Alpha  occ. eigenvalues --   -0.62377  -0.61341  -0.61056  -0.60703  -0.60273
 Alpha  occ. eigenvalues --   -0.59775  -0.59419  -0.59369  -0.59209  -0.59016
 Alpha  occ. eigenvalues --   -0.58793  -0.57606  -0.56153  -0.54838  -0.54779
 Alpha  occ. eigenvalues --   -0.54679  -0.54174  -0.53950  -0.53597  -0.53593
 Alpha  occ. eigenvalues --   -0.53039  -0.52599  -0.52474  -0.52341  -0.51776
 Alpha  occ. eigenvalues --   -0.50890  -0.50838  -0.50536  -0.50263  -0.50089
 Alpha  occ. eigenvalues --   -0.49820  -0.49557  -0.49233  -0.48826  -0.48458
 Alpha  occ. eigenvalues --   -0.48446  -0.48206  -0.48084  -0.47828  -0.47729
 Alpha  occ. eigenvalues --   -0.47679  -0.47384  -0.47219  -0.46907  -0.46723
 Alpha  occ. eigenvalues --   -0.46424  -0.46346  -0.46188  -0.46058  -0.45993
 Alpha  occ. eigenvalues --   -0.45986  -0.45348  -0.45296  -0.45161  -0.45073
 Alpha  occ. eigenvalues --   -0.44705  -0.44636  -0.44485  -0.44349  -0.44328
 Alpha  occ. eigenvalues --   -0.44154  -0.44101  -0.43676  -0.43597  -0.43482
 Alpha  occ. eigenvalues --   -0.43268  -0.43141  -0.42995  -0.42705  -0.42678
 Alpha  occ. eigenvalues --   -0.42543  -0.42483  -0.42454  -0.42273  -0.42246
 Alpha  occ. eigenvalues --   -0.42085  -0.41877  -0.41664  -0.41501  -0.41291
 Alpha  occ. eigenvalues --   -0.41258  -0.40925  -0.40900  -0.40821  -0.40773
 Alpha  occ. eigenvalues --   -0.40501  -0.40209  -0.40171  -0.39913  -0.39755
 Alpha  occ. eigenvalues --   -0.39444  -0.39411  -0.39077  -0.38992  -0.38822
 Alpha  occ. eigenvalues --   -0.38776  -0.38687  -0.38561  -0.38494  -0.38466
 Alpha  occ. eigenvalues --   -0.38247  -0.38215  -0.38175  -0.38040  -0.37883
 Alpha  occ. eigenvalues --   -0.37779  -0.37766  -0.37529  -0.37337  -0.36834
 Alpha  occ. eigenvalues --   -0.36668  -0.36545  -0.36246  -0.36064  -0.36050
 Alpha  occ. eigenvalues --   -0.35924  -0.35836  -0.35459  -0.35412  -0.35300
 Alpha  occ. eigenvalues --   -0.35223  -0.34823  -0.34250  -0.34068  -0.33864
 Alpha  occ. eigenvalues --   -0.33480  -0.33356  -0.32767  -0.32730  -0.32698
 Alpha  occ. eigenvalues --   -0.32437  -0.32166  -0.31723  -0.31646  -0.31081
 Alpha  occ. eigenvalues --   -0.30987  -0.30751  -0.30028  -0.29400  -0.29303
 Alpha  occ. eigenvalues --   -0.29094  -0.28761  -0.28719  -0.27117  -0.26623
 Alpha  occ. eigenvalues --   -0.26229  -0.25873  -0.25831  -0.25786  -0.25686
 Alpha  occ. eigenvalues --   -0.25329  -0.25128  -0.25033  -0.21271  -0.20787
 Alpha  occ. eigenvalues --   -0.19071  -0.18459
 Alpha virt. eigenvalues --   -0.11476  -0.10696  -0.05346  -0.05182  -0.04051
 Alpha virt. eigenvalues --   -0.03999  -0.02203  -0.02164  -0.00662  -0.00301
 Alpha virt. eigenvalues --    0.00227   0.00514   0.00742   0.01044   0.01599

 Mulliken charges:
               1
     1  Mg  12.000000
     2  C    6.000000
     3  C    6.000000
     4  C    6.000000
     5  C    6.000000
     6  N    7.000000
     7  C    6.000000
     8  C    6.000000
     9  C    6.000000
    10  C    6.000000
    11  C    6.000000
    12  C    6.000000
    13  C    6.000000
    14  H    1.000000
    15  N    7.000000
    16  C    6.000000
    17  C    6.000000
    18  C    6.000000
    19  C    6.000000
    20  C    6.000000
    21  C    6.000000
    22  O    8.000000
    23  C    6.000000
    24  N    7.000000
    25  C    6.000000
    26  C    6.000000
    27  C    6.000000
    28  C    6.000000
    29  C    6.000000
    30  C    6.000000
    31  C    6.000000
    32  N    7.000000
    33  C    6.000000
    34  C    6.000000
    35  C    6.000000
    36  C    6.000000
    37  C    6.000000
    38  C    6.000000
    39  O    8.000000
    40  C    6.000000
    41  C    6.000000
    42  O    8.000000
    43  O    8.000000
    44  C    6.000000
    45  H    1.000000
    46  H    1.000000
    47  H    1.000000
    48  H    1.000000
    49  H    1.000000
    50  H    1.000000
    51  H    1.000000
    52  H    1.000000
    53  H    1.000000
    54  H    1.000000
    55  H    1.000000
    56  H    1.000000
    57  H    1.000000
    58  H    1.000000
    59  H    1.000000
    60  H    1.000000
    61  H    1.000000
    62  H    1.000000
    63  H    1.000000
    64  H    1.000000
    65  H    1.000000
    66  H    1.000000
    67  H    1.000000
    68  H    1.000000
    69  H    1.000000
    70  H    1.000000
    71  H    1.000000
    72  H    1.000000
    73  H    1.000000
    74  H    1.000000
    75  H    1.000000
    76  H    1.000000
    77  H    1.000000
    78  H    1.000000
    79  H    1.000000
    80  Mg  12.000000
    81  C    6.000000
    82  C    6.000000
    83  C    6.000000
    84  C    6.000000
    85  N    7.000000
    86  C    6.000000
    87  C    6.000000
    88  C    6.000000
    89  C    6.000000
    90  C    6.000000
    91  C    6.000000
    92  C    6.000000
    93  H    1.000000
    94  N    7.000000
    95  C    6.000000
    96  C    6.000000
    97  C    6.000000
    98  C    6.000000
    99  C    6.000000
   100  C    6.000000
   101  O    8.000000
   102  C    6.000000
   103  N    7.000000
   104  C    6.000000
   105  C    6.000000
   106  C    6.000000
   107  C    6.000000
   108  C    6.000000
   109  C    6.000000
   110  C    6.000000
   111  N    7.000000
   112  C    6.000000
   113  C    6.000000
   114  C    6.000000
   115  C    6.000000
   116  C    6.000000
   117  C    6.000000
   118  O    8.000000
   119  C    6.000000
   120  C    6.000000
   121  O    8.000000
   122  O    8.000000
   123  C    6.000000
   124  H    1.000000
   125  H    1.000000
   126  H    1.000000
   127  H    1.000000
   128  H    1.000000
   129  H    1.000000
   130  H    1.000000
   131  H    1.000000
   132  H    1.000000
   133  H    1.000000
   134  H    1.000000
   135  H    1.000000
   136  H    1.000000
   137  H    1.000000
   138  H    1.000000
   139  H    1.000000
   140  H    1.000000
   141  H    1.000000
   142  H    1.000000
   143  H    1.000000
   144  H    1.000000
   145  H    1.000000
   146  H    1.000000
   147  H    1.000000
   148  H    1.000000
   149  H    1.000000
   150  H    1.000000
   151  H    1.000000
   152  H    1.000000
   153  H    1.000000
   154  H    1.000000
   155  H    1.000000
   156  H    1.000000
   157  H    1.000000
   158  H    1.000000
 Sum of Mulliken charges = 624.00000

 Dipole moment (field-independent basis, Debye):
    X=             -0.0000    Y=             -0.0000    Z=             -0.0000  Tot=              0.0000
 Quadrupole moment (field-independent basis, Debye-Ang):
   XX=              0.0000   YY=              0.0000   ZZ=             -0.0000
   XY=              0.0000   XZ=             -0.0000   YZ=              0.0000

 Normal termination of Gaussian 16 at Thu Oct 14 10:04:35 2021.
