 Gaussian 16, Revision A.03,
 Gaussian 16:  ES64L-G16RevA.03 25-Dec-2016

 --------------------------------------------------------
 #p PBE1PBE/Def2SVP td=(nstates=5) density=(transition=1)
 --------------------------------------------------------

 --------------------------------
 TDDFT excited states in gaussian
 --------------------------------
 Symbolic Z-matrix:
 Charge =  0 Multiplicity = 1

                         Standard orientation:
 ---------------------------------------------------------------------
 Center     Atomic      Atomic             Coordinates (Angstroms)
 Number     Number       Type             X           Y           Z
 ---------------------------------------------------------------------
      1         12           0       23.557771    0.479655   -0.410706
      2          6           0       22.940667   -2.639478    0.949347
      3          6           0       20.162442    1.321337    0.186061
      4          6           0       24.207381    3.751274   -1.195999
      5          6           0       26.945122   -0.181691   -0.542937
      6          7           0       21.766738   -0.620854    0.349166
      7          6           0       21.796122   -1.864156    0.945069
      8          6           0       20.454492   -2.256704    1.670035
      9          6           0       19.459515   -1.154364    1.070844
     10          6           0       20.476854   -0.053451    0.433902
     11          6           0       18.351429   -1.594832    0.040052
     12          6           0       20.503348   -2.226407    3.157181
     13          6           0       20.250149   -3.482881    3.967950
     14          1           0       19.657462   -3.272534    5.370531
     15          7           0       22.317508    2.280436   -0.584007
     16          6           0       20.934061    2.341255   -0.331506
     17          6           0       20.446184    3.645989   -0.647557
     18          6           0       21.671529    4.444263   -0.914031
     19          6           0       22.837691    3.507781   -0.898388
     20          6           0       18.998145    4.098015   -0.431727
     21          6           0       21.597880    5.958742   -1.175579
     22          8           0       20.594553    6.666156   -1.170678
     23          6           0       22.877219    6.716062   -1.120205
     24          7           0       25.420699    1.728044   -0.657391
     25          6           0       25.356092    2.973293   -1.148126
     26          6           0       26.770888    3.544961   -1.068802
     27          6           0       27.738754    2.277231   -0.944265
     28          6           0       26.638159    1.146580   -0.720168
     29          6           0       27.108283    4.303583   -2.401103
     30          6           0       28.857843    2.247136    0.176123
     31          6           0       30.331409    2.255501   -0.202227
     32          7           0       24.752311   -1.144513    0.028449
     33          6           0       26.135766   -1.295927   -0.107938
     34          6           0       26.535077   -2.583160    0.373003
     35          6           0       25.317202   -3.183740    0.818705
     36          6           0       24.262425   -2.235882    0.519255
     37          6           0       27.909500   -3.171527    0.432297
     38          6           0       24.706782   -4.330485    1.353090
     39          8           0       25.235007   -5.372107    1.687159
     40          6           0       23.172904   -4.010985    1.539220
     41          6           0       22.392363   -5.157935    1.049400
     42          8           0       21.841892   -5.963475    1.791501
     43          8           0       22.406657   -5.188809   -0.337085
     44          6           0       21.674870   -6.346826   -0.897887
     45          1           0       19.135982    1.680057    0.282444
     46          1           0       24.310380    4.789452   -1.519786
     47          1           0       28.022921   -0.356227   -0.552434
     48          1           0       20.141317   -3.246395    1.339386
     49          1           0       19.007088   -0.651469    1.926295
     50          1           0       18.299005   -2.682997    0.073979
     51          1           0       18.522854   -1.258819   -0.982683
     52          1           0       17.421358   -1.123567    0.355625
     53          1           0       19.709783   -1.548570    3.475245
     54          1           0       21.484659   -1.889667    3.489723
     55          1           0       21.214244   -3.955372    4.153759
     56          1           0       19.551358   -4.170495    3.492072
     57          1           0       18.262265    3.442540    0.033497
     58          1           0       18.711714    4.417490   -1.433418
     59          1           0       19.112871    5.063027    0.060890
     60          1           0       23.466925    6.845835   -2.026663
     61          1           0       23.519014    6.382232   -0.304738
     62          1           0       22.603508    7.744636   -0.882288
     63          1           0       26.908579    4.219412   -0.223357
     64          1           0       28.167877    2.036051   -1.916151
     65          1           0       27.496748    5.280964   -2.114917
     66          1           0       26.277545    4.422515   -3.097826
     67          1           0       27.858539    3.795205   -3.007155
     68          1           0       28.631020    1.345838    0.745182
     69          1           0       28.711599    3.166933    0.744113
     70          1           0       30.843078    1.805807    0.649069
     71          1           0       30.669063    3.289102   -0.281235
     72          1           0       30.673384    1.704112   -1.077447
     73          1           0       27.788283   -4.168179    0.857477
     74          1           0       28.522158   -2.498658    1.031528
     75          1           0       28.401022   -3.302727   -0.531871
     76          1           0       23.050847   -3.974253    2.622268
     77          1           0       22.350151   -7.193872   -1.018297
     78          1           0       21.201612   -5.985093   -1.810701
     79          1           0       20.840257   -6.644688   -0.263858
     80         12           0      -23.629277    0.578778    0.365500
     81          6           0      -22.899831   -2.247621   -1.577216
     82          6           0      -21.896759    2.477195   -1.925483
     83          6           0      -24.302224    3.219408    2.227191
     84          6           0      -25.219876   -1.539142    2.673552
     85          7           0      -22.622575    0.117177   -1.553069
     86          6           0      -22.405198   -1.108433   -2.182864
     87          6           0      -21.893482   -0.964195   -3.669809
     88          6           0      -21.473646    0.492445   -3.629276
     89          6           0      -22.037904    1.096211   -2.277305
     90          6           0      -19.882652    0.620789   -3.569926
     91          6           0      -23.209233   -1.145250   -4.549603
     92          6           0      -23.079051   -2.012031   -5.878453
     93          1           0      -21.704925   -1.829613   -6.470540
     94          7           0      -23.046934    2.489924    0.245730
     95          6           0      -22.355406    3.086342   -0.721317
     96          6           0      -22.203867    4.500562   -0.502925
     97          6           0      -23.038107    4.791059    0.594726
     98          6           0      -23.472260    3.444826    1.127191
     99          6           0      -21.404948    5.434675   -1.335910
    100          6           0      -23.527719    6.119671    1.132998
    101          8           0      -24.455881    6.214472    1.944127
    102          6           0      -22.795970    7.411451    0.758243
    103          7           0      -24.596529    0.778873    2.243407
    104          6           0      -24.782998    2.052514    2.726650
    105          6           0      -25.699333    1.976530    3.946046
    106          6           0      -26.114288    0.427967    4.041312
    107          6           0      -25.331986   -0.170209    2.901783
    108          6           0      -24.986911    2.619017    5.188337
    109          6           0      -27.601386    0.111004    4.019366
    110          6           0      -28.068375   -0.795550    5.200999
    111          7           0      -23.967571   -1.467497    0.533394
    112          6           0      -24.628532   -2.207678    1.563393
    113          6           0      -24.589480   -3.597017    1.275823
    114          6           0      -23.916775   -3.638288    0.042943
    115          6           0      -23.529472   -2.330536   -0.315976
    116          6           0      -25.151494   -4.764582    2.021055
    117          6           0      -23.449999   -4.495253   -0.999504
    118          8           0      -23.471561   -5.694478   -1.148298
    119          6           0      -22.874861   -3.595415   -2.129672
    120          6           0      -21.552547   -4.130189   -2.544955
    121          8           0      -20.501218   -4.105494   -1.911290
    122          8           0      -21.700339   -4.605217   -3.785478
    123          6           0      -20.511683   -5.109109   -4.440879
    124          1           0      -21.499946    3.208991   -2.632029
    125          1           0      -24.481555    4.130649    2.803303
    126          1           0      -25.756327   -2.226482    3.331100
    127          1           0      -21.209995   -1.800674   -3.812264
    128          1           0      -21.902416    1.031378   -4.473486
    129          1           0      -19.387756   -0.350190   -3.542225
    130          1           0      -19.618491    1.179630   -2.672348
    131          1           0      -19.631415    1.189112   -4.465533
    132          1           0      -23.630730   -0.201184   -4.893559
    133          1           0      -23.959685   -1.573379   -3.884538
    134          1           0      -23.698708   -1.592800   -6.671237
    135          1           0      -23.501655   -3.008768   -5.749259
    136          1           0      -22.118837    6.088617   -1.838582
    137          1           0      -20.844941    4.903752   -2.104464
    138          1           0      -20.708721    6.042128   -0.758426
    139          1           0      -23.145162    8.056550    1.564148
    140          1           0      -23.036470    7.784161   -0.238122
    141          1           0      -21.712274    7.423685    0.873117
    142          1           0      -26.626497    2.545288    3.876055
    143          1           0      -25.701993    0.020419    4.964451
    144          1           0      -25.734358    3.260675    5.655056
    145          1           0      -24.069386    3.154920    4.945116
    146          1           0      -24.866735    1.893561    5.993796
    147          1           0      -27.949188   -0.343764    3.092362
    148          1           0      -28.075071    1.066407    4.249426
    149          1           0      -27.256809   -0.950551    5.912126
    150          1           0      -28.254769   -1.818372    4.874221
    151          1           0      -28.919797   -0.358768    5.723328
    152          1           0      -26.214420   -4.663628    1.800011
    153          1           0      -24.842991   -4.646944    3.059615
    154          1           0      -24.829425   -5.718765    1.606409
    155          1           0      -23.546878   -3.791988   -2.966113
    156          1           0      -20.030899   -5.860230   -3.813545
    157          1           0      -19.708926   -4.393330   -4.621103
    158          1           0      -20.850431   -5.561275   -5.373199
 ---------------------------------------------------------------------

 SCF Done:  E(RPBE1PBE) =  -4067.38758480     A.U. after   17 cycles

 Excitation energies and oscillator strengths:

 Excited State   1:      Singlet-A      1.6992 eV  729.66 nm  f=0.0000  <S**2>=0.000
     312 -> 313        0.70711
 This state for optimization and/or second-order correction.
 Total Energy, E(TD-HF/TD-DFT) =  -4067.32514018
 Copying the excited state density for this state as the 1-particle RhoCI density.

 Excited State   2:      Singlet-A      1.8584 eV  667.16 nm  f=0.3197  <S**2>=0.000
     309 -> 315       -0.16920
     311 -> 313        0.68819
     311 <- 313       -0.10616

 Excited State   3:      Singlet-A      1.8615 eV  666.05 nm  f=0.4057  <S**2>=0.000
     310 -> 316       -0.15424
     312 -> 314        0.69019
     312 <- 314       -0.10744

 Excited State   4:      Singlet-A      2.1844 eV  567.60 nm  f=0.1536  <S**2>=0.000
     309 -> 313        0.65883
     311 -> 315        0.23360

 Excited State   5:      Singlet-A      2.2948 eV  540.27 nm  f=0.0000  <S**2>=0.000
     311 -> 314        0.70711

 The electronic state is 1-A.
 Alpha  occ. eigenvalues --  -46.93868 -46.91159 -19.25970 -19.25828 -19.20146
 Alpha  occ. eigenvalues --  -19.19899 -19.19168 -19.19123 -19.18798 -19.17887
 Alpha  occ. eigenvalues --  -14.42961 -14.41768 -14.41554 -14.41128 -14.39699
 Alpha  occ. eigenvalues --  -14.39638 -14.39635 -14.38253 -10.36205 -10.35409
 Alpha  occ. eigenvalues --  -10.33131 -10.32251 -10.31541 -10.30684 -10.30511
 Alpha  occ. eigenvalues --  -10.29551 -10.29515 -10.29433 -10.29251 -10.28777
 Alpha  occ. eigenvalues --  -10.28775 -10.28634 -10.28433 -10.28387 -10.28213
 Alpha  occ. eigenvalues --  -10.28213 -10.28077 -10.27941 -10.27816 -10.27240
 Alpha  occ. eigenvalues --  -10.27193 -10.27017 -10.27013 -10.26554 -10.26516
 Alpha  occ. eigenvalues --  -10.26497 -10.26354 -10.26296 -10.26285 -10.26284
 Alpha  occ. eigenvalues --  -10.26223 -10.26104 -10.26076 -10.25775 -10.25682
 Alpha  occ. eigenvalues --  -10.25624 -10.25394 -10.25385 -10.25359 -10.25142
 Alpha  occ. eigenvalues --  -10.25125 -10.25125 -10.25056 -10.25022 -10.24980
 Alpha  occ. eigenvalues --  -10.24823 -10.24748 -10.24422 -10.24404 -10.24386
 Alpha  occ. eigenvalues --  -10.24134 -10.23930 -10.23907 -10.23835 -10.23721
 Alpha  occ. eigenvalues --  -10.23697 -10.23673 -10.23456 -10.23414 -10.23405
 Alpha  occ. eigenvalues --  -10.23397 -10.23178 -10.22964 -10.22934 -10.22639
 Alpha  occ. eigenvalues --  -10.21631  -3.15669  -3.13444  -1.88536  -1.88017
 Alpha  occ. eigenvalues --   -1.87892  -1.86297  -1.85799  -1.85699  -1.11972
 Alpha  occ. eigenvalues --   -1.10348  -1.04839  -1.04762  -1.04639  -1.04349
 Alpha  occ. eigenvalues --   -1.02379  -1.01979  -0.99679  -0.99447  -0.98775
 Alpha  occ. eigenvalues --   -0.98740  -0.97512  -0.97059  -0.97003  -0.96265
 Alpha  occ. eigenvalues --   -0.87162  -0.87050  -0.83833  -0.83780  -0.83638
 Alpha  occ. eigenvalues --   -0.82687  -0.82677  -0.82496  -0.82231  -0.82024
 Alpha  occ. eigenvalues --   -0.81718  -0.81540  -0.80939  -0.79956  -0.78727
 Alpha  occ. eigenvalues --   -0.78281  -0.78222  -0.77842  -0.77157  -0.76552
 Alpha  occ. eigenvalues --   -0.76380  -0.75979  -0.75541  -0.75270  -0.75123
 Alpha  occ. eigenvalues --   -0.74675  -0.73036  -0.72262  -0.71820  -0.71485
 Alpha  occ. eigenvalues --   -0.71191  -0.71119  -0.70523  -0.69941  -0.69870
 Alpha  occ. eigenvalues --   -0.69306  -0.68030  -0.67602  -0.66741  -0.65814
 Alpha  occ. eigenvalues --   -0.63783  -0.63561  -0.63468  -0.63243  -0.62424
 Alpha  occ. eigenvalues --   -0.62062  -0.61786  -0.61539  -0.60080  -0.59902
 Alpha  occ. eigenvalues --   -0.59804  -0.59773  -0.59717  -0.59560  -0.59325
 Alpha  occ. eigenvalues --   -0.59091  -0.57607  -0.57099  -0.55204  -0.54822
 Alpha  occ. eigenvalues --   -0.54395  -0.54188  -0.54028  -0.53708  -0.53691
 Alpha  occ. eigenvalues --   -0.53218  -0.52459  -0.52352  -0.51889  -0.51507
 Alpha  occ. eigenvalues --   -0.51168  -0.51152  -0.50515  -0.50214  -0.50025
 Alpha  occ. eigenvalues --   -0.49864  -0.49355  -0.49031  -0.48514  -0.48447
 Alpha  occ. eigenvalues --   -0.48298  -0.48040  -0.47829  -0.47440  -0.47401
 Alpha  occ. eigenvalues --   -0.47341  -0.47211  -0.47080  -0.47035  -0.46735
 Alpha  occ. eigenvalues --   -0.46710  -0.46408  -0.46145  -0.45965  -0.45961
 Alpha  occ. eigenvalues --   -0.45692  -0.45511  -0.45263  -0.45120  -0.44980
 Alpha  occ. eigenvalues --   -0.44879  -0.44816  -0.44564  -0.44320  -0.44247
 Alpha  occ. eigenvalues --   -0.44186  -0.43822  -0.43651  -0.43548  -0.43360
 Alpha  occ. eigenvalues --   -0.43296  -0.43053  -0.42972  -0.42862  -0.42680
 Alpha  occ. eigenvalues --   -0.42583  -0.42352  -0.42351  -0.42187  -0.41938
 Alpha  occ. eigenvalues --   -0.41890  -0.41774  -0.41529  -0.41461  -0.41346
 Alpha  occ. eigenvalues --   -0.41336  -0.41051  -0.40814  -0.40798  -0.40766
 Alpha  occ. eigenvalues --   -0.40520  -0.40372  -0.40172  -0.40059  -0.39980
 Alpha  occ. eigenvalues --   -0.39895  -0.39524  -0.39455  -0.39324  -0.39299
 Alpha  occ. eigenvalues --   -0.39289  -0.39066  -0.39036  -0.38686  -0.38548
 Alpha  occ. eigenvalues --   -0.38501  -0.38196  -0.37899  -0.37789  -0.37557
 Alpha  occ. eigenvalues --   -0.37550  -0.37431  -0.37294  -0.37257  -0.37044
 Alpha  occ. eigenvalues --   -0.36784  -0.36494  -0.36436  -0.36401  -0.36046
 Alpha  occ. eigenvalues --   -0.35989  -0.35659  -0.35373  -0.35320  -0.35005
 Alpha  occ. eigenvalues --   -0.34964  -0.34674  -0.34657  -0.34415  -0.33716
 Alpha  occ. eigenvalues --   -0.33383  -0.33289  -0.32883  -0.32650  -0.32464
 Alpha  occ. eigenvalues --   -0.32413  -0.32216  -0.31950  -0.31789  -0.31494
 Alpha  occ. eigenvalues --   -0.31340  -0.30941  -0.29789  -0.29472  -0.29366
 Alpha  occ. eigenvalues --   -0.29022  -0.28776  -0.28164  -0.27446  -0.27198
 Alpha  occ. eigenvalues --   -0.26463  -0.26384  -0.26115  -0.25826  -0.25568
 Alpha  occ. eigenvalues --   -0.25300  -0.25037  -0.24613  -0.21588  -0.21014
 Alpha  occ. eigenvalues --   -0.19774  -0.18680
 Alpha virt. eigenvalues --   -0.12154  -0.11061  -0.05873  -0.05319  -0.04150
 Alpha virt. eigenvalues --   -0.03536  -0.02240  -0.01619  -0.00407   0.00360
 Alpha virt. eigenvalues --    0.00551   0.00611   0.01443   0.01759   0.01766

 Mulliken charges:
               1
     1  Mg  12.000000
     2  C    6.000000
     3  C    6.000000
     4  C    6.000000
     5  C    6.000000
     6  N    7.000000
     7  C    6.000000
     8  C    6.000000
     9  C    6.000000
    10  C    6.000000
    11  C    6.000000
    12  C    6.000000
    13  C    6.000000
    14  H    1.000000
    15  N    7.000000
    16  C    6.000000
    17  C    6.000000
    18  C    6.000000
    19  C    6.000000
    20  C    6.000000
    21  C    6.000000
    22  O    8.000000
    23  C    6.000000
    24  N    7.000000
    25  C    6.000000
    26  C    6.000000
    27  C    6.000000
    28  C    6.000000
    29  C    6.000000
    30  C    6.000000
    31  C    6.000000
    32  N    7.000000
    33  C    6.000000
    34  C    6.000000
    35  C    6.000000
    36  C    6.000000
    37  C    6.000000
    38  C    6.000000
    39  O    8.000000
    40  C    6.000000
    41  C    6.000000
    42  O    8.000000
    43  O    8.000000
    44  C    6.000000
    45  H    1.000000
    46  H    1.000000
    47  H    1.000000
    48  H    1.000000
    49  H    1.000000
    50  H    1.000000
    51  H    1.000000
    52  H    1.000000
    53  H    1.000000
    54  H    1.000000
    55  H    1.000000
    56  H    1.000000
    57  H    1.000000
    58  H    1.000000
    59  H    1.000000
    60  H    1.000000
    61  H    1.000000
    62  H    1.000000
    63  H    1.000000
    64  H    1.000000
    65  H    1.000000
    66  H    1.000000
    67  H    1.000000
    68  H    1.000000
    69  H    1.000000
    70  H    1.000000
    71  H    1.000000
    72  H    1.000000
    73  H    1.000000
    74  H    1.000000
    75  H    1.000000
    76  H    1.000000
    77  H    1.000000
    78  H    1.000000
    79  H    1.000000
    80  Mg  12.000000
    81  C    6.000000
    82  C    6.000000
    83  C    6.000000
    84  C    6.000000
    85  N    7.000000
    86  C    6.000000
    87  C    6.000000
    88  C    6.000000
    89  C    6.000000
    90  C    6.000000
    91  C    6.000000
    92  C    6.000000
    93  H    1.000000
    94  N    7.000000
    95  C    6.000000
    96  C    6.000000
    97  C    6.000000
    98  C    6.000000
    99  C    6.000000
   100  C    6.000000
   101  O    8.000000
   102  C    6.000000
   103  N    7.000000
   104  C    6.000000
   105  C    6.000000
   106  C    6.000000
   107  C    6.000000
   108  C    6.000000
   109  C    6.000000
   110  C    6.000000
   111  N    7.000000
   112  C    6.000000
   113  C    6.000000
   114  C    6.000000
   115  C    6.000000
   116  C    6.000000
   117  C    6.000000
   118  O    8.000000
   119  C    6.000000
   120  C    6.000000
   121  O    8.000000
   122  O    8.000000
   123  C    6.000000
   124  H    1.000000
   125  H    1.000000
   126  H    1.000000
   127  H    1.000000
   128  H    1.000000
   129  H    1.000000
   130  H    1.000000
   131  H    1.000000
   132  H    1.000000
   133  H    1.000000
   134  H    1.000000
   135  H    1.000000
   136  H    1.000000
   137  H    1.000000
   138  H    1.000000
   139  H    1.000000
   140  H    1.000000
   141  H    1.000000
   142  H    1.000000
   143  H    1.000000
   144  H    1.000000
   145  H    1.000000
   146  H    1.000000
   147  H    1.000000
   148  H    1.000000
   149  H    1.000000
   150  H    1.000000
   151  H    1.000000
   152  H    1.000000
   153  H    1.000000
   154  H    1.000000
   155  H    1.000000
   156  H    1.000000
   157  H    1.000000
   158  H    1.000000
 Sum of Mulliken charges = 624.00000

 Dipole moment (field-independent basis, Debye):
    X=             -0.0000    Y=              0.0000    Z=             -0.0000  Tot=              0.0000
 Quadrupole moment (field-independent basis, Debye-Ang):
   XX=             -0.0000   YY=              0.0000   ZZ=             -0.0000
   XY=              0.0000   XZ=             -0.0000   YZ=             -0.0000

 Normal termination of Gaussian 16 at Fri Oct 15 08:35:22 2021.
