 Gaussian 16, Revision A.03,
 Gaussian 16:  ES64L-G16RevA.03 25-Dec-2016

 --------------------------------------------------------
 #p PBE1PBE/Def2SVP td=(nstates=5) density=(transition=1)
 --------------------------------------------------------

 --------------------------------
 TDDFT excited states in gaussian
 --------------------------------
 Symbolic Z-matrix:
 Charge =  0 Multiplicity = 1

                         Standard orientation:
 ---------------------------------------------------------------------
 Center     Atomic      Atomic             Coordinates (Angstroms)
 Number     Number       Type             X           Y           Z
 ---------------------------------------------------------------------
      1         12           0       16.736695    0.500401   -0.254372
      2          6           0       16.122040   -2.076214    1.852752
      3          6           0       13.924887    2.150799    0.943404
      4          6           0       17.348266    3.074604   -2.366463
      5          6           0       19.234792   -1.344360   -1.783886
      6          7           0       15.342341    0.086894    1.268238
      7          6           0       15.222138   -1.041050    2.013006
      8          6           0       14.199673   -0.899912    3.110297
      9          6           0       13.330232    0.325519    2.635004
     10          6           0       14.286820    0.918408    1.549103
     11          6           0       11.830694    0.110527    2.166045
     12          6           0       14.880686   -0.574438    4.515304
     13          6           0       13.993086   -1.001418    5.721409
     14          1           0       12.460409   -1.072969    5.616879
     15          7           0       15.740336    2.358385   -0.747870
     16          6           0       14.575377    2.833310   -0.090212
     17          6           0       14.218507    4.114877   -0.619858
     18          6           0       15.208853    4.414375   -1.622090
     19          6           0       16.158910    3.245832   -1.579599
     20          6           0       13.097779    4.957272   -0.119789
     21          6           0       15.334046    5.639404   -2.520984
     22          8           0       16.168467    5.782316   -3.462313
     23          6           0       14.384328    6.808577   -2.322808
     24          7           0       18.037673    0.802392   -1.883898
     25          6           0       18.245971    2.038435   -2.497887
     26          6           0       19.550883    2.132360   -3.340297
     27          6           0       20.141826    0.640499   -3.052346
     28          6           0       19.130910   -0.012411   -2.182602
     29          6           0       19.182902    2.398299   -4.805667
     30          6           0       21.538084    0.623441   -2.503620
     31          6           0       22.494526   -0.193715   -3.324250
     32          7           0       17.492147   -1.303371   -0.176380
     33          6           0       18.531975   -1.963887   -0.818833
     34          6           0       18.674598   -3.272935   -0.298259
     35          6           0       17.721862   -3.424371    0.744818
     36          6           0       17.089114   -2.169099    0.865063
     37          6           0       19.641173   -4.328395   -0.677275
     38          6           0       17.116948   -4.362457    1.664877
     39          8           0       17.258923   -5.545553    1.904848
     40          6           0       16.084294   -3.438458    2.468855
     41          6           0       14.800369   -4.133801    2.746757
     42          8           0       14.171441   -4.816931    1.979556
     43          8           0       14.370789   -3.971985    4.007901
     44          6           0       13.076516   -4.647224    4.309441
     45          1           0       12.938997    2.497191    1.260800
     46          1           0       17.453120    3.848846   -3.129248
     47          1           0       20.074899   -1.948241   -2.132963
     48          1           0       13.496390   -1.732177    3.133687
     49          1           0       13.324967    1.068586    3.431806
     50          1           0       11.581216   -0.934064    2.352665
     51          1           0       11.583523    0.354975    1.134181
     52          1           0       11.221688    0.794344    2.757625
     53          1           0       15.071933    0.498095    4.476486
     54          1           0       15.825163   -1.117714    4.547927
     55          1           0       14.277421   -0.275178    6.483094
     56          1           0       14.407312   -1.942339    6.082640
     57          1           0       13.309638    5.549457    0.770510
     58          1           0       12.271074    4.266742    0.042252
     59          1           0       12.647215    5.576146   -0.895165
     60          1           0       13.476600    6.549628   -2.867642
     61          1           0       14.872751    7.650045   -2.813596
     62          1           0       14.129400    7.002767   -1.280832
     63          1           0       20.090033    3.000591   -2.961173
     64          1           0       20.181919    0.098606   -3.997854
     65          1           0       18.122197    2.335408   -5.049566
     66          1           0       19.821475    1.789264   -5.445073
     67          1           0       19.420855    3.447466   -4.983329
     68          1           0       21.605558    0.174098   -1.512756
     69          1           0       21.988678    1.607612   -2.374655
     70          1           0       23.424032    0.329881   -3.545949
     71          1           0       22.056579   -0.474806   -4.281635
     72          1           0       22.595954   -1.123705   -2.764076
     73          1           0       19.962775   -4.331880   -1.719171
     74          1           0       19.030034   -5.231394   -0.683181
     75          1           0       20.493783   -4.314284    0.001748
     76          1           0       16.646028   -3.407692    3.402908
     77          1           0       13.198834   -5.721068    4.457828
     78          1           0       12.296789   -4.369891    3.599868
     79          1           0       12.708261   -4.262509    5.260799
     80         12           0      -16.483156    0.384643    0.480162
     81          6           0      -16.362743   -2.564469   -1.322000
     82          6           0      -12.934772    0.422324    0.499337
     83          6           0      -16.501438    3.569306    1.744977
     84          6           0      -19.903249    0.583405    0.041448
     85          7           0      -14.884016   -1.011375   -0.219986
     86          6           0      -15.090796   -2.110133   -1.027289
     87          6           0      -13.768506   -2.720326   -1.626335
     88          6           0      -12.668332   -1.999522   -0.712979
     89          6           0      -13.504413   -0.780029   -0.029980
     90          6           0      -11.882694   -2.845529    0.360076
     91          6           0      -13.552795   -2.468491   -3.077182
     92          6           0      -13.454663   -3.620412   -4.058830
     93          1           0      -12.597666   -3.369273   -5.309926
     94          7           0      -14.916674    1.772923    1.135838
     95          6           0      -13.533037    1.519451    1.084057
     96          6           0      -12.824640    2.601501    1.690343
     97          6           0      -13.864877    3.635900    1.930438
     98          6           0      -15.192030    3.034286    1.592943
     99          6           0      -11.296938    2.701210    1.752881
    100          6           0      -13.496861    5.030542    2.466179
    101          8           0      -12.374089    5.456620    2.721060
    102          6           0      -14.542786    6.084854    2.378021
    103          7           0      -18.029560    2.012976    0.696940
    104          6           0      -17.770484    3.119642    1.406737
    105          6           0      -18.984141    4.033598    1.244045
    106          6           0      -20.177324    3.080415    0.767420
    107          6           0      -19.339125    1.753086    0.492617
    108          6           0      -19.365224    4.656114    2.633871
    109          6           0      -21.064484    3.491289   -0.478640
    110          6           0      -22.540527    3.815824   -0.303745
    111          7           0      -17.920160   -0.808367   -0.397022
    112          6           0      -19.304320   -0.625201   -0.474651
    113          6           0      -19.895491   -1.689392   -1.226806
    114          6           0      -18.786906   -2.507241   -1.607242
    115          6           0      -17.612779   -1.906940   -1.005807
    116          6           0      -21.336124   -1.899189   -1.572188
    117          6           0      -18.368981   -3.682940   -2.252433
    118          8           0      -19.053486   -4.500367   -2.834556
    119          6           0      -16.794041   -3.735895   -2.173270
    120          6           0      -16.389154   -5.099527   -1.797457
    121          8           0      -15.915858   -5.904045   -2.592044
    122          8           0      -16.648236   -5.321802   -0.453222
    123          6           0      -16.304802   -6.693837   -0.016657
    124          1           0      -11.852918    0.521659    0.605709
    125          1           0      -16.421172    4.543425    2.232736
    126          1           0      -20.977751    0.685629   -0.123480
    127          1           0      -13.748818   -3.793460   -1.439546
    128          1           0      -11.973760   -1.510494   -1.396946
    129          1           0      -12.072592   -3.895849    0.139243
    130          1           0      -12.146952   -2.625531    1.394506
    131          1           0      -10.830129   -2.583187    0.260118
    132          1           0      -12.583987   -1.973713   -3.160711
    133          1           0      -14.360388   -1.852508   -3.471273
    134          1           0      -14.453918   -3.804396   -4.452389
    135          1           0      -13.021921   -4.521708   -3.625259
    136          1           0      -10.659551    1.954617    1.279659
    137          1           0      -11.122316    2.793359    2.824565
    138          1           0      -11.104079    3.723804    1.430097
    139          1           0      -15.234730    6.228885    3.206713
    140          1           0      -15.093403    6.041845    1.438180
    141          1           0      -14.006914    7.034692    2.366434
    142          1           0      -18.818321    4.833690    0.522258
    143          1           0      -20.810407    2.819651    1.614818
    144          1           0      -19.467530    5.730075    2.478238
    145          1           0      -18.661609    4.462709    3.444559
    146          1           0      -20.303716    4.271947    3.034220
    147          1           0      -20.952909    2.651865   -1.164594
    148          1           0      -20.618666    4.415716   -0.848380
    149          1           0      -22.986410    3.634261   -1.281989
    150          1           0      -22.644199    4.879152   -0.086559
    151          1           0      -23.143558    3.249821    0.405466
    152          1           0      -21.372101   -2.823765   -2.148946
    153          1           0      -21.668404   -1.016180   -2.117226
    154          1           0      -22.002847   -2.037878   -0.720911
    155          1           0      -16.482483   -3.578037   -3.206349
    156          1           0      -17.164465   -7.352362   -0.140406
    157          1           0      -15.926213   -6.595562    1.000724
    158          1           0      -15.462880   -7.098899   -0.577358
 ---------------------------------------------------------------------

 SCF Done:  E(RPBE1PBE) =  -4067.36495730     A.U. after   16 cycles

 Excitation energies and oscillator strengths:

 Excited State   1:      Singlet-A      1.6657 eV  744.34 nm  f=0.0000  <S**2>=0.000
     312 -> 313        0.70710
 This state for optimization and/or second-order correction.
 Total Energy, E(TD-HF/TD-DFT) =  -4067.30374384
 Copying the excited state density for this state as the 1-particle RhoCI density.

 Excited State   2:      Singlet-A      1.8023 eV  687.94 nm  f=0.3692  <S**2>=0.000
     310 -> 316        0.16356
     312 -> 314        0.69729
     312 <- 314       -0.11959

 Excited State   3:      Singlet-A      1.8583 eV  667.18 nm  f=0.3616  <S**2>=0.000
     309 -> 315       -0.17006
     311 -> 313        0.69176
     311 <- 313       -0.10674

 Excited State   4:      Singlet-A      2.1754 eV  569.93 nm  f=0.0000  <S**2>=0.000
     311 -> 314        0.70710

 Excited State   5:      Singlet-A      2.1843 eV  567.62 nm  f=0.1534  <S**2>=0.000
     309 -> 313        0.65885
     311 -> 315        0.23356

 The electronic state is 1-A.
 Alpha  occ. eigenvalues --  -46.93891 -46.90566 -19.25848 -19.25782 -19.20165
 Alpha  occ. eigenvalues --  -19.19437 -19.19197 -19.18982 -19.18819 -19.18723
 Alpha  occ. eigenvalues --  -14.42984 -14.42291 -14.41578 -14.41301 -14.39663
 Alpha  occ. eigenvalues --  -14.39659 -14.39135 -14.38497 -10.36224 -10.35584
 Alpha  occ. eigenvalues --  -10.32338 -10.32280 -10.32269 -10.31562 -10.30707
 Alpha  occ. eigenvalues --  -10.29575 -10.29540 -10.29283 -10.29274 -10.29119
 Alpha  occ. eigenvalues --  -10.28798 -10.28795 -10.28672 -10.28458 -10.28246
 Alpha  occ. eigenvalues --  -10.28237 -10.27840 -10.27732 -10.27560 -10.27266
 Alpha  occ. eigenvalues --  -10.27217 -10.27036 -10.26875 -10.26680 -10.26538
 Alpha  occ. eigenvalues --  -10.26519 -10.26518 -10.26326 -10.26319 -10.26308
 Alpha  occ. eigenvalues --  -10.26245 -10.26130 -10.26087 -10.26006 -10.25870
 Alpha  occ. eigenvalues --  -10.25794 -10.25707 -10.25645 -10.25491 -10.25485
 Alpha  occ. eigenvalues --  -10.25466 -10.25364 -10.25359 -10.25219 -10.25166
 Alpha  occ. eigenvalues --  -10.25150 -10.25074 -10.24769 -10.24568 -10.24412
 Alpha  occ. eigenvalues --  -10.24310 -10.24166 -10.23856 -10.23717 -10.23696
 Alpha  occ. eigenvalues --  -10.23650 -10.23416 -10.23273 -10.23227 -10.23106
 Alpha  occ. eigenvalues --  -10.23003 -10.22994 -10.22987 -10.22986 -10.22667
 Alpha  occ. eigenvalues --  -10.22564  -3.15693  -3.12996  -1.88560  -1.88041
 Alpha  occ. eigenvalues --   -1.87916  -1.85830  -1.85350  -1.85266  -1.12084
 Alpha  occ. eigenvalues --   -1.10368  -1.04877  -1.04783  -1.04669  -1.02398
 Alpha  occ. eigenvalues --   -1.02087  -1.02082  -0.99702  -0.99100  -0.98798
 Alpha  occ. eigenvalues --   -0.98236  -0.97350  -0.97084  -0.96289  -0.96047
 Alpha  occ. eigenvalues --   -0.87733  -0.87073  -0.84019  -0.83804  -0.83660
 Alpha  occ. eigenvalues --   -0.83101  -0.82836  -0.82518  -0.82048  -0.82024
 Alpha  occ. eigenvalues --   -0.81741  -0.81530  -0.80715  -0.79983  -0.78751
 Alpha  occ. eigenvalues --   -0.78659  -0.78243  -0.78081  -0.77179  -0.76759
 Alpha  occ. eigenvalues --   -0.76405  -0.75885  -0.75392  -0.75293  -0.75147
 Alpha  occ. eigenvalues --   -0.74755  -0.72604  -0.72285  -0.72110  -0.71646
 Alpha  occ. eigenvalues --   -0.71507  -0.71218  -0.70843  -0.70545  -0.69893
 Alpha  occ. eigenvalues --   -0.69591  -0.68054  -0.67340  -0.66764  -0.66294
 Alpha  occ. eigenvalues --   -0.63805  -0.63583  -0.63505  -0.63052  -0.62579
 Alpha  occ. eigenvalues --   -0.62447  -0.61562  -0.61110  -0.60276  -0.60103
 Alpha  occ. eigenvalues --   -0.59924  -0.59798  -0.59791  -0.59348  -0.59321
 Alpha  occ. eigenvalues --   -0.58678  -0.57626  -0.56902  -0.54878  -0.54847
 Alpha  occ. eigenvalues --   -0.54445  -0.54418  -0.54052  -0.53714  -0.53546
 Alpha  occ. eigenvalues --   -0.53000  -0.52539  -0.52482  -0.52313  -0.51529
 Alpha  occ. eigenvalues --   -0.51177  -0.50683  -0.50540  -0.50046  -0.49873
 Alpha  occ. eigenvalues --   -0.49744  -0.49580  -0.49376  -0.48536  -0.48519
 Alpha  occ. eigenvalues --   -0.48320  -0.47963  -0.47850  -0.47610  -0.47476
 Alpha  occ. eigenvalues --   -0.47423  -0.47364  -0.47095  -0.47057  -0.46896
 Alpha  occ. eigenvalues --   -0.46734  -0.46672  -0.46604  -0.46170  -0.45987
 Alpha  occ. eigenvalues --   -0.45892  -0.45742  -0.45713  -0.45005  -0.44981
 Alpha  occ. eigenvalues --   -0.44841  -0.44651  -0.44423  -0.44343  -0.44240
 Alpha  occ. eigenvalues --   -0.44212  -0.43675  -0.43584  -0.43575  -0.43468
 Alpha  occ. eigenvalues --   -0.43383  -0.43078  -0.42995  -0.42851  -0.42700
 Alpha  occ. eigenvalues --   -0.42691  -0.42379  -0.42375  -0.42003  -0.41962
 Alpha  occ. eigenvalues --   -0.41831  -0.41798  -0.41483  -0.41398  -0.41369
 Alpha  occ. eigenvalues --   -0.41336  -0.41050  -0.40837  -0.40789  -0.40679
 Alpha  occ. eigenvalues --   -0.40545  -0.40396  -0.40194  -0.40001  -0.39983
 Alpha  occ. eigenvalues --   -0.39739  -0.39559  -0.39478  -0.39361  -0.39349
 Alpha  occ. eigenvalues --   -0.39058  -0.38863  -0.38710  -0.38706  -0.38524
 Alpha  occ. eigenvalues --   -0.38399  -0.38116  -0.37994  -0.37811  -0.37576
 Alpha  occ. eigenvalues --   -0.37315  -0.37240  -0.37143  -0.37063  -0.36805
 Alpha  occ. eigenvalues --   -0.36780  -0.36459  -0.36423  -0.36274  -0.36073
 Alpha  occ. eigenvalues --   -0.35914  -0.35740  -0.35342  -0.35337  -0.35290
 Alpha  occ. eigenvalues --   -0.35266  -0.34986  -0.34964  -0.34697  -0.34437
 Alpha  occ. eigenvalues --   -0.33405  -0.33240  -0.32987  -0.32906  -0.32652
 Alpha  occ. eigenvalues --   -0.32487  -0.32239  -0.32238  -0.32050  -0.31809
 Alpha  occ. eigenvalues --   -0.31601  -0.30962  -0.29829  -0.29813  -0.29399
 Alpha  occ. eigenvalues --   -0.29386  -0.28798  -0.28427  -0.27469  -0.27001
 Alpha  occ. eigenvalues --   -0.26138  -0.25943  -0.25856  -0.25589  -0.25524
 Alpha  occ. eigenvalues --   -0.25435  -0.25196  -0.25064  -0.21611  -0.21198
 Alpha  occ. eigenvalues --   -0.19798  -0.18704
 Alpha virt. eigenvalues --   -0.12178  -0.11405  -0.05898  -0.05135  -0.04175
 Alpha virt. eigenvalues --   -0.04089  -0.02264  -0.02136  -0.00431   0.00113
 Alpha virt. eigenvalues --    0.00339   0.00589   0.00838   0.01192   0.01248

 Mulliken charges:
               1
     1  Mg  12.000000
     2  C    6.000000
     3  C    6.000000
     4  C    6.000000
     5  C    6.000000
     6  N    7.000000
     7  C    6.000000
     8  C    6.000000
     9  C    6.000000
    10  C    6.000000
    11  C    6.000000
    12  C    6.000000
    13  C    6.000000
    14  H    1.000000
    15  N    7.000000
    16  C    6.000000
    17  C    6.000000
    18  C    6.000000
    19  C    6.000000
    20  C    6.000000
    21  C    6.000000
    22  O    8.000000
    23  C    6.000000
    24  N    7.000000
    25  C    6.000000
    26  C    6.000000
    27  C    6.000000
    28  C    6.000000
    29  C    6.000000
    30  C    6.000000
    31  C    6.000000
    32  N    7.000000
    33  C    6.000000
    34  C    6.000000
    35  C    6.000000
    36  C    6.000000
    37  C    6.000000
    38  C    6.000000
    39  O    8.000000
    40  C    6.000000
    41  C    6.000000
    42  O    8.000000
    43  O    8.000000
    44  C    6.000000
    45  H    1.000000
    46  H    1.000000
    47  H    1.000000
    48  H    1.000000
    49  H    1.000000
    50  H    1.000000
    51  H    1.000000
    52  H    1.000000
    53  H    1.000000
    54  H    1.000000
    55  H    1.000000
    56  H    1.000000
    57  H    1.000000
    58  H    1.000000
    59  H    1.000000
    60  H    1.000000
    61  H    1.000000
    62  H    1.000000
    63  H    1.000000
    64  H    1.000000
    65  H    1.000000
    66  H    1.000000
    67  H    1.000000
    68  H    1.000000
    69  H    1.000000
    70  H    1.000000
    71  H    1.000000
    72  H    1.000000
    73  H    1.000000
    74  H    1.000000
    75  H    1.000000
    76  H    1.000000
    77  H    1.000000
    78  H    1.000000
    79  H    1.000000
    80  Mg  12.000000
    81  C    6.000000
    82  C    6.000000
    83  C    6.000000
    84  C    6.000000
    85  N    7.000000
    86  C    6.000000
    87  C    6.000000
    88  C    6.000000
    89  C    6.000000
    90  C    6.000000
    91  C    6.000000
    92  C    6.000000
    93  H    1.000000
    94  N    7.000000
    95  C    6.000000
    96  C    6.000000
    97  C    6.000000
    98  C    6.000000
    99  C    6.000000
   100  C    6.000000
   101  O    8.000000
   102  C    6.000000
   103  N    7.000000
   104  C    6.000000
   105  C    6.000000
   106  C    6.000000
   107  C    6.000000
   108  C    6.000000
   109  C    6.000000
   110  C    6.000000
   111  N    7.000000
   112  C    6.000000
   113  C    6.000000
   114  C    6.000000
   115  C    6.000000
   116  C    6.000000
   117  C    6.000000
   118  O    8.000000
   119  C    6.000000
   120  C    6.000000
   121  O    8.000000
   122  O    8.000000
   123  C    6.000000
   124  H    1.000000
   125  H    1.000000
   126  H    1.000000
   127  H    1.000000
   128  H    1.000000
   129  H    1.000000
   130  H    1.000000
   131  H    1.000000
   132  H    1.000000
   133  H    1.000000
   134  H    1.000000
   135  H    1.000000
   136  H    1.000000
   137  H    1.000000
   138  H    1.000000
   139  H    1.000000
   140  H    1.000000
   141  H    1.000000
   142  H    1.000000
   143  H    1.000000
   144  H    1.000000
   145  H    1.000000
   146  H    1.000000
   147  H    1.000000
   148  H    1.000000
   149  H    1.000000
   150  H    1.000000
   151  H    1.000000
   152  H    1.000000
   153  H    1.000000
   154  H    1.000000
   155  H    1.000000
   156  H    1.000000
   157  H    1.000000
   158  H    1.000000
 Sum of Mulliken charges = 624.00000

 Dipole moment (field-independent basis, Debye):
    X=              0.0000    Y=              0.0000    Z=              0.0000  Tot=              0.0000
 Quadrupole moment (field-independent basis, Debye-Ang):
   XX=             -0.0000   YY=             -0.0000   ZZ=             -0.0000
   XY=             -0.0000   XZ=              0.0000   YZ=              0.0000

 Normal termination of Gaussian 16 at Fri Oct 15 03:03:12 2021.
