 Gaussian 16, Revision A.03,
 Gaussian 16:  ES64L-G16RevA.03 25-Dec-2016

 --------------------------------------------------------
 #p PBE1PBE/Def2SVP td=(nstates=5) density=(transition=1)
 --------------------------------------------------------

 --------------------------------
 TDDFT excited states in gaussian
 --------------------------------
 Symbolic Z-matrix:
 Charge =  0 Multiplicity = 1

                         Standard orientation:
 ---------------------------------------------------------------------
 Center     Atomic      Atomic             Coordinates (Angstroms)
 Number     Number       Type             X           Y           Z
 ---------------------------------------------------------------------
      1         12           0        0.654819   -0.015130   -0.247535
      2          6           0       -2.758113    0.280607   -0.247671
      3          6           0        0.380389   -3.350382   -0.259888
      4          6           0        4.014337   -0.139307    0.000204
      5          6           0        0.869672    3.574171    0.291008
      6          7           0       -1.066208   -1.385484    0.020938
      7          6           0       -2.358869   -1.066871   -0.117169
      8          6           0       -3.274630   -2.396065   -0.134951
      9          6           0       -2.150134   -3.498057   -0.145144
     10          6           0       -0.819537   -2.721245   -0.082949
     11          6           0       -2.338042   -4.584945    0.931106
     12          6           0       -4.238548   -2.478088   -1.352509
     13          6           0       -4.905095   -3.854272   -1.679233
     14          1           0       -6.415504   -4.050381   -1.274884
     15          7           0        2.019125   -1.554659   -0.094302
     16          6           0        1.737254   -2.834899   -0.218819
     17          6           0        2.980309   -3.590137   -0.178665
     18          6           0        4.082491   -2.702833    0.008840
     19          6           0        3.392492   -1.394659   -0.027841
     20          6           0        3.091706   -5.105657   -0.157644
     21          6           0        5.563205   -2.987988    0.237421
     22          8           0        6.316242   -2.119321    0.667980
     23          6           0        6.085291   -4.348345   -0.067524
     24          7           0        2.215906    1.512544    0.144340
     25          6           0        3.505707    1.197539    0.146488
     26          6           0        4.405033    2.444153    0.187321
     27          6           0        3.362701    3.552466    0.063656
     28          6           0        2.076784    2.828066    0.209931
     29          6           0        5.367006    2.601204    1.374335
     30          6           0        3.576519    4.471267   -1.112541
     31          6           0        3.879509    5.974177   -0.772708
     32          7           0       -0.607238    1.584197   -0.077507
     33          6           0       -0.403950    2.998885    0.054093
     34          6           0       -1.655899    3.717405   -0.037614
     35          6           0       -2.573806    2.638979   -0.173424
     36          6           0       -1.897722    1.412418   -0.179262
     37          6           0       -1.955743    5.170852   -0.146661
     38          6           0       -3.964290    2.436111   -0.493291
     39          8           0       -4.891812    3.185180   -0.834541
     40          6           0       -4.220731    0.950826   -0.438287
     41          6           0       -5.041546    0.644992    0.833961
     42          8           0       -4.880914    1.116263    1.970239
     43          8           0       -5.999006   -0.264700    0.495913
     44          6           0       -6.955930   -0.697796    1.562997
     45          1           0        0.431123   -4.433822   -0.386614
     46          1           0        5.067950   -0.093376    0.283488
     47          1           0        1.020561    4.654833    0.318050
     48          1           0       -3.793454   -2.364039    0.822432
     49          1           0       -2.164412   -3.969454   -1.127810
     50          1           0       -2.123454   -5.540898    0.454637
     51          1           0       -3.368300   -4.636398    1.283443
     52          1           0       -1.669148   -4.416781    1.775233
     53          1           0       -3.602821   -2.328950   -2.225253
     54          1           0       -5.050663   -1.760996   -1.233263
     55          1           0       -4.401774   -4.600749   -1.063931
     56          1           0       -4.847021   -4.022792   -2.754009
     57          1           0        2.110640   -5.577353   -0.212983
     58          1           0        3.575951   -5.423308    0.765456
     59          1           0        3.695583   -5.479812   -0.983375
     60          1           0        5.714747   -4.576773   -1.067226
     61          1           0        5.856054   -5.222858    0.540632
     62          1           0        7.173884   -4.391869   -0.070576
     63          1           0        5.025112    2.430618   -0.708366
     64          1           0        3.468231    4.191076    0.940484
     65          1           0        6.272652    3.008550    0.925599
     66          1           0        5.492816    1.652089    1.895144
     67          1           0        4.984279    3.221627    2.184643
     68          1           0        2.604061    4.487338   -1.603619
     69          1           0        4.374740    4.148353   -1.780253
     70          1           0        3.861034    6.122853    0.307276
     71          1           0        3.078240    6.570678   -1.209971
     72          1           0        4.786133    6.381873   -1.220059
     73          1           0       -1.034457    5.733902   -0.293673
     74          1           0       -2.306726    5.463064    0.842377
     75          1           0       -2.641776    5.249708   -0.991248
     76          1           0       -4.786161    0.745205   -1.347390
     77          1           0       -6.499095   -0.957593    2.518248
     78          1           0       -7.623334   -1.506699    1.267601
     79          1           0       -7.557617    0.183705    1.783768
 ---------------------------------------------------------------------

 SCF Done:  E(RPBE1PBE) =  -2033.69020815     A.U. after   16 cycles

 Excitation energies and oscillator strengths:

 Excited State   1:      Singlet-A      1.8791 eV  659.82 nm  f=0.3884  <S**2>=0.000
     155 ->158         0.16671
     156 ->157         0.69069
     156 <-157        -0.10565
 This state for optimization and/or second-order correction.
 Total Energy, E(TD-HF/TD-DFT) =  -2033.62115375
 Copying the excited state density for this state as the 1-particle RhoCI density.

 Excited State   2:      Singlet-A      2.2592 eV  548.80 nm  f=0.1116  <S**2>=0.000
     155 ->157         0.65066
     156 ->158        -0.25676

 Excited State   3:      Singlet-A      2.8437 eV  435.99 nm  f=0.0001  <S**2>=0.000
     154 ->157         0.67969
     154 ->159        -0.12701
     154 ->160         0.12439

 Excited State   4:      Singlet-A      3.1341 eV  395.60 nm  f=0.0008  <S**2>=0.000
     153 ->157         0.68743

 Excited State   5:      Singlet-A      3.2810 eV  377.88 nm  f=0.2221  <S**2>=0.000
     151 ->157         0.18344
     152 ->157         0.30072
     155 ->157         0.18153
     156 ->158         0.54147
     156 ->159        -0.15438

 The electronic state is 1-A.
 Alpha  occ. eigenvalues --  -46.92587 -19.26299 -19.19733 -19.19669 -19.18006
 Alpha  occ. eigenvalues --  -14.41453 -14.41383 -14.39640 -14.38967 -10.36637
 Alpha  occ. eigenvalues --  -10.33155 -10.30542 -10.29415 -10.29414 -10.28654
 Alpha  occ. eigenvalues --  -10.28254 -10.28107 -10.27917 -10.27809 -10.27802
 Alpha  occ. eigenvalues --  -10.26878 -10.26437 -10.26286 -10.26206 -10.26147
 Alpha  occ. eigenvalues --  -10.25830 -10.25597 -10.25585 -10.25191 -10.24956
 Alpha  occ. eigenvalues --  -10.24836 -10.24509 -10.24450 -10.24364 -10.24054
 Alpha  occ. eigenvalues --  -10.23963 -10.23905 -10.23777 -10.23653 -10.23635
 Alpha  occ. eigenvalues --  -10.23165 -10.23149 -10.22206  -3.14693  -1.87524
 Alpha  occ. eigenvalues --   -1.87061  -1.86929  -1.10353  -1.05043  -1.02756
 Alpha  occ. eigenvalues --   -1.01382  -1.00340  -0.99048  -0.98573  -0.97680
 Alpha  occ. eigenvalues --   -0.85674  -0.84233  -0.83005  -0.82489  -0.81786
 Alpha  occ. eigenvalues --   -0.81475  -0.81315  -0.78472  -0.77605  -0.76508
 Alpha  occ. eigenvalues --   -0.76399  -0.75403  -0.74426  -0.72868  -0.71843
 Alpha  occ. eigenvalues --   -0.71044  -0.70402  -0.69707  -0.67110  -0.66150
 Alpha  occ. eigenvalues --   -0.63786  -0.63457  -0.62218  -0.61994  -0.60301
 Alpha  occ. eigenvalues --   -0.59469  -0.58925  -0.58438  -0.57216  -0.55241
 Alpha  occ. eigenvalues --   -0.54240  -0.53481  -0.53268  -0.52624  -0.51884
 Alpha  occ. eigenvalues --   -0.50904  -0.50241  -0.49671  -0.49121  -0.48649
 Alpha  occ. eigenvalues --   -0.48314  -0.48008  -0.47152  -0.47094  -0.46780
 Alpha  occ. eigenvalues --   -0.46383  -0.45768  -0.45670  -0.45338  -0.45027
 Alpha  occ. eigenvalues --   -0.44585  -0.44387  -0.44223  -0.43971  -0.43615
 Alpha  occ. eigenvalues --   -0.43566  -0.43204  -0.42864  -0.42467  -0.42297
 Alpha  occ. eigenvalues --   -0.41954  -0.41474  -0.41179  -0.40909  -0.40676
 Alpha  occ. eigenvalues --   -0.39717  -0.39564  -0.39280  -0.39144  -0.38862
 Alpha  occ. eigenvalues --   -0.38808  -0.38677  -0.38375  -0.37766  -0.37683
 Alpha  occ. eigenvalues --   -0.37012  -0.36855  -0.36804  -0.36745  -0.36387
 Alpha  occ. eigenvalues --   -0.35959  -0.35689  -0.35401  -0.34230  -0.34014
 Alpha  occ. eigenvalues --   -0.33242  -0.32881  -0.32096  -0.31673  -0.31212
 Alpha  occ. eigenvalues --   -0.31027  -0.29508  -0.29143  -0.28682  -0.26786
 Alpha  occ. eigenvalues --   -0.26633  -0.26149  -0.25372  -0.24801  -0.20867
 Alpha  occ. eigenvalues --   -0.18738
 Alpha virt. eigenvalues --   -0.11038  -0.05341  -0.03594  -0.01884  -0.00848
 Alpha virt. eigenvalues --    0.00778   0.00941   0.02233   0.02891   0.04109
 Alpha virt. eigenvalues --    0.04318   0.05449   0.05793   0.06673   0.07052

 Mulliken charges:
               1
     1  Mg  12.000936
     2  C    5.984366
     3  C    6.022701
     4  C    6.003132
     5  C    5.991339
     6  N    6.999981
     7  C    6.030301
     8  C    5.993123
     9  C    6.009550
    10  C    5.966494
    11  C    6.001383
    12  C    5.994558
    13  C    6.001684
    14  H    0.999665
    15  N    7.001076
    16  C    5.959361
    17  C    5.979633
    18  C    5.985112
    19  C    5.975014
    20  C    6.003157
    21  C    5.985855
    22  O    7.975042
    23  C    6.006512
    24  N    6.998061
    25  C    5.968332
    26  C    6.010571
    27  C    5.988025
    28  C    6.033384
    29  C    6.001707
    30  C    6.000046
    31  C    5.999681
    32  N    6.999470
    33  C    6.035599
    34  C    6.025858
    35  C    6.007908
    36  C    6.025126
    37  C    5.999317
    38  C    6.015634
    39  O    8.034055
    40  C    5.997672
    41  C    6.005643
    42  O    8.002536
    43  O    8.002078
    44  C    5.999053
    45  H    0.995692
    46  H    0.992120
    47  H    1.011127
    48  H    0.999721
    49  H    0.998974
    50  H    1.001449
    51  H    0.990179
    52  H    1.002078
    53  H    1.003576
    54  H    0.994383
    55  H    1.006435
    56  H    1.001883
    57  H    0.980529
    58  H    0.982381
    59  H    0.981751
    60  H    0.994829
    61  H    0.990834
    62  H    0.985667
    63  H    0.999981
    64  H    0.999875
    65  H    0.995509
    66  H    1.006620
    67  H    0.990228
    68  H    0.994491
    69  H    1.011030
    70  H    1.001763
    71  H    0.996847
    72  H    1.005251
    73  H    1.016333
    74  H    1.016320
    75  H    1.011696
    76  H    1.008926
    77  H    1.004796
    78  H    1.005862
    79  H    1.001134
 Sum of Mulliken charges = 312.00000

 Dipole moment (field-independent basis, Debye):
    X=             -7.3331    Y=              7.4286    Z=             -0.2198  Tot=             10.4407
 Quadrupole moment (field-independent basis, Debye-Ang):
   XX=             -8.4791   YY=              0.5592   ZZ=              0.3685
   XY=              7.2160   XZ=             -0.0385   YZ=             -0.9822

 Normal termination of Gaussian 16 at Wed Oct 13 19:14:38 2021.
