 Gaussian 16, Revision A.03,
 Gaussian 16:  ES64L-G16RevA.03 25-Dec-2016

 --------------------------------------------------------
 #p PBE1PBE/Def2SVP td=(nstates=5) density=(transition=1)
 --------------------------------------------------------

 --------------------------------
 TDDFT excited states in gaussian
 --------------------------------
 Symbolic Z-matrix:
 Charge =  0 Multiplicity = 1

                         Standard orientation:
 ---------------------------------------------------------------------
 Center     Atomic      Atomic             Coordinates (Angstroms)
 Number     Number       Type             X           Y           Z
 ---------------------------------------------------------------------
      1         12           0       29.902925   -0.521894    0.395319
      2          6           0       26.549805    0.896142    0.498788
      3          6           0       28.583203   -3.129575   -1.406876
      4          6           0       32.923335   -1.019090   -0.950908
      5          6           0       31.006760    2.063212    2.304538
      6          7           0       27.799315   -0.931115   -0.529004
      7          6           0       26.561803   -0.235849   -0.277809
      8          6           0       25.394319   -1.064781   -0.820606
      9          6           0       26.004877   -2.474693   -1.074010
     10          6           0       27.576208   -2.231039   -1.000207
     11          6           0       25.558339   -3.571206    0.004856
     12          6           0       24.582766   -0.464074   -1.930966
     13          6           0       25.204423    0.718285   -2.711133
     14          1           0       24.595579    1.444140   -3.924763
     15          7           0       30.692087   -1.995579   -0.903472
     16          6           0       29.967662   -2.970040   -1.553716
     17          6           0       30.929027   -3.850881   -2.287616
     18          6           0       32.133332   -3.154089   -2.230170
     19          6           0       31.984162   -1.967727   -1.390604
     20          6           0       30.462952   -5.083572   -2.977843
     21          6           0       33.433850   -3.581909   -2.970640
     22          8           0       33.373204   -4.542615   -3.717265
     23          6           0       34.713569   -2.813578   -2.950260
     24          7           0       31.652823    0.538152    0.566134
     25          6           0       32.805659    0.002635   -0.007093
     26          6           0       34.049880    0.762793    0.452208
     27          6           0       33.526722    1.548915    1.708626
     28          6           0       32.016609    1.351347    1.558761
     29          6           0       35.334953   -0.044388    0.769600
     30          6           0       33.962147    3.045685    1.814214
     31          6           0       35.061380    3.376898    2.924308
     32          7           0       28.997314    1.121898    1.325160
     33          6           0       29.594850    2.058798    2.155666
     34          6           0       28.569849    2.874691    2.758871
     35          6           0       27.419199    2.480351    2.062690
     36          6           0       27.752860    1.390020    1.221782
     37          6           0       28.857711    4.002743    3.764681
     38          6           0       26.008247    2.676447    1.928639
     39          8           0       25.329749    3.488203    2.589778
     40          6           0       25.316750    1.571815    1.012792
     41          6           0       24.517128    2.348018    0.044163
     42          8           0       24.901470    3.311478   -0.627054
     43          8           0       23.320428    1.719605   -0.058221
     44          6           0       22.263085    2.430337   -0.843440
     45          1           0       28.164792   -3.948835   -1.994459
     46          1           0       33.907043   -1.202767   -1.388583
     47          1           0       31.377201    2.806152    3.013431
     48          1           0       24.808014   -1.092622    0.097888
     49          1           0       25.871082   -2.818384   -2.099870
     50          1           0       24.947000   -4.257675   -0.579570
     51          1           0       25.033879   -3.080214    0.824945
     52          1           0       26.479352   -4.065321    0.316228
     53          1           0       23.609331   -0.231855   -1.499378
     54          1           0       24.448109   -1.333398   -2.575456
     55          1           0       26.183660    0.355129   -3.024675
     56          1           0       25.354218    1.561180   -2.036158
     57          1           0       30.562269   -4.882882   -4.044196
     58          1           0       29.429465   -5.266107   -2.684966
     59          1           0       31.048226   -5.935403   -2.629751
     60          1           0       34.725970   -1.821626   -3.400295
     61          1           0       35.496372   -3.285478   -3.543361
     62          1           0       34.956926   -2.865843   -1.889151
     63          1           0       34.171707    1.370960   -0.444861
     64          1           0       33.863804    0.955758    2.558999
     65          1           0       36.069451   -0.027827   -0.036233
     66          1           0       35.081731   -1.096545    0.895423
     67          1           0       35.731209    0.332288    1.713205
     68          1           0       33.138168    3.742002    1.972590
     69          1           0       34.321540    3.283296    0.812897
     70          1           0       35.730331    4.045445    2.382994
     71          1           0       35.605745    2.512897    3.305750
     72          1           0       34.526358    3.780808    3.783051
     73          1           0       28.059756    4.204179    4.479719
     74          1           0       28.949593    4.854171    3.091216
     75          1           0       29.682869    3.722096    4.418876
     76          1           0       24.714210    0.912409    1.639205
     77          1           0       21.357276    1.823197   -0.857303
     78          1           0       22.573866    2.581064   -1.877441
     79          1           0       22.149836    3.355657   -0.280339
     80         12           0      -29.029002    0.396017   -0.719843
     81          6           0      -28.878638   -2.223763    1.650620
     82          6           0      -27.496502    2.427526    1.572206
     83          6           0      -29.753712    2.976899   -2.664493
     84          6           0      -31.005924   -1.673162   -2.735217
     85          7           0      -28.420287    0.166729    1.440028
     86          6           0      -28.364318   -1.043420    2.136553
     87          6           0      -27.497877   -0.879437    3.409593
     88          6           0      -27.081660    0.636335    3.369140
     89          6           0      -27.654985    1.153174    2.020563
     90          6           0      -27.331782    1.457488    4.621998
     91          6           0      -26.297198   -1.828184    3.549227
     92          6           0      -26.282775   -2.635187    4.876489
     93          1           0      -25.031139   -2.488782    5.713118
     94          7           0      -28.582542    2.417243   -0.580076
     95          6           0      -27.978957    3.094543    0.438439
     96          6           0      -27.758171    4.449869   -0.006673
     97          6           0      -28.558216    4.668019   -1.208748
     98          6           0      -29.007110    3.312842   -1.489142
     99          6           0      -27.007418    5.551836    0.905779
    100          6           0      -29.078190    5.892451   -1.829732
    101          8           0      -29.729625    5.982216   -2.831145
    102          6           0      -28.759435    7.195206   -1.102240
    103          7           0      -30.408653    0.639397   -2.365707
    104          6           0      -30.464887    1.809461   -3.031278
    105          6           0      -31.202556    1.640612   -4.361562
    106          6           0      -31.267756    0.113314   -4.522309
    107          6           0      -30.838790   -0.369353   -3.154688
    108          6           0      -32.653200    2.307627   -4.313064
    109          6           0      -30.187574   -0.330048   -5.635038
    110          6           0      -28.699100   -0.250123   -5.198821
    111          7           0      -29.737541   -1.598449   -0.709477
    112          6           0      -30.498654   -2.272042   -1.587077
    113          6           0      -30.683099   -3.608220   -1.087941
    114          6           0      -30.033148   -3.641820    0.131512
    115          6           0      -29.509752   -2.369893    0.379395
    116          6           0      -31.444779   -4.764824   -1.706724
    117          6           0      -29.795104   -4.549227    1.257233
    118          8           0      -30.124870   -5.645734    1.612043
    119          6           0      -28.969448   -3.696465    2.256475
    120          6           0      -29.756061   -3.685878    3.514845
    121          8           0      -30.907033   -3.328318    3.534007
    122          8           0      -29.067824   -4.201018    4.601531
    123          6           0      -29.883336   -4.500087    5.825966
    124          1           0      -26.828763    2.999675    2.219871
    125          1           0      -29.921178    3.766659   -3.400338
    126          1           0      -31.423994   -2.444572   -3.385340
    127          1           0      -28.141825   -0.978223    4.283725
    128          1           0      -25.993178    0.682485    3.329665
    129          1           0      -28.031786    0.955825    5.288513
    130          1           0      -27.683669    2.469667    4.420987
    131          1           0      -26.383777    1.473617    5.159114
    132          1           0      -25.297746   -1.393207    3.544794
    133          1           0      -26.269181   -2.538380    2.723138
    134          1           0      -26.553560   -3.678197    4.712778
    135          1           0      -27.069544   -2.231306    5.512378
    136          1           0      -26.267512    6.051952    0.280959
    137          1           0      -26.439950    5.170303    1.753768
    138          1           0      -27.606779    6.305904    1.415870
    139          1           0      -27.670505    7.238480   -1.134000
    140          1           0      -29.141548    7.048099   -0.092561
    141          1           0      -29.128504    8.095045   -1.595331
    142          1           0      -30.645595    2.017760   -5.219923
    143          1           0      -32.219478   -0.379711   -4.721673
    144          1           0      -32.893336    2.613130   -5.331787
    145          1           0      -32.799832    3.194550   -3.695721
    146          1           0      -33.307847    1.490248   -4.011086
    147          1           0      -30.297453    0.216670   -6.571384
    148          1           0      -30.266788   -1.402977   -5.810651
    149          1           0      -27.969449   -0.382634   -5.996961
    150          1           0      -28.528327   -1.046034   -4.473756
    151          1           0      -28.553892    0.711102   -4.704729
    152          1           0      -31.044564   -5.107659   -2.660598
    153          1           0      -32.439216   -4.352759   -1.876188
    154          1           0      -31.581104   -5.596867   -1.015935
    155          1           0      -28.065080   -4.287903    2.398246
    156          1           0      -29.209039   -4.087636    6.576503
    157          1           0      -30.017363   -5.567595    5.999808
    158          1           0      -30.885974   -4.086995    5.933438
 ---------------------------------------------------------------------

 SCF Done:  E(RPBE1PBE) =  -4067.34918294     A.U. after   16 cycles

 Excitation energies and oscillator strengths:

 Excited State   1:      Singlet-A      1.8047 eV  686.99 nm  f=0.3442  <S**2>=0.000
     309 -> 315       -0.15296
     312 -> 314        0.69767
     312 <- 314       -0.11784
 This state for optimization and/or second-order correction.
 Total Energy, E(TD-HF/TD-DFT) =  -4067.28285985
 Copying the excited state density for this state as the 1-particle RhoCI density.

 Excited State   2:      Singlet-A      1.8105 eV  684.80 nm  f=0.0000  <S**2>=0.000
     312 -> 313        0.70711

 Excited State   3:      Singlet-A      1.8679 eV  663.76 nm  f=0.3869  <S**2>=0.000
     310 -> 316        0.16816
     311 -> 313        0.69461
     311 <- 313       -0.11167

 Excited State   4:      Singlet-A      2.1397 eV  579.46 nm  f=0.0000  <S**2>=0.000
     311 -> 314        0.70711

 Excited State   5:      Singlet-A      2.2023 eV  562.97 nm  f=0.1276  <S**2>=0.000
     310 -> 313        0.66416
     311 -> 316       -0.22438

 The electronic state is 1-A.
 Alpha  occ. eigenvalues --  -46.92936 -46.92695 -19.26080 -19.25771 -19.19783
 Alpha  occ. eigenvalues --  -19.19755 -19.19463 -19.19094 -19.18639 -19.17615
 Alpha  occ. eigenvalues --  -14.41979 -14.41696 -14.41388 -14.41163 -14.39440
 Alpha  occ. eigenvalues --  -14.39273 -14.38871 -14.38511 -10.36239 -10.35780
 Alpha  occ. eigenvalues --  -10.32502 -10.32277 -10.31500 -10.30973 -10.29474
 Alpha  occ. eigenvalues --  -10.29385 -10.29273 -10.29236 -10.29026 -10.29024
 Alpha  occ. eigenvalues --  -10.28541 -10.28514 -10.28466 -10.28404 -10.28295
 Alpha  occ. eigenvalues --  -10.28186 -10.27971 -10.27712 -10.27426 -10.27119
 Alpha  occ. eigenvalues --  -10.27004 -10.26806 -10.26533 -10.26496 -10.26452
 Alpha  occ. eigenvalues --  -10.26400 -10.26229 -10.26223 -10.25851 -10.25847
 Alpha  occ. eigenvalues --  -10.25841 -10.25827 -10.25743 -10.25626 -10.25581
 Alpha  occ. eigenvalues --  -10.25553 -10.25479 -10.25387 -10.25336 -10.25117
 Alpha  occ. eigenvalues --  -10.25088 -10.24962 -10.24906 -10.24889 -10.24849
 Alpha  occ. eigenvalues --  -10.24760 -10.24755 -10.24717 -10.24392 -10.24342
 Alpha  occ. eigenvalues --  -10.24220 -10.24206 -10.24114 -10.23994 -10.23944
 Alpha  occ. eigenvalues --  -10.23914 -10.23656 -10.23569 -10.23550 -10.23520
 Alpha  occ. eigenvalues --  -10.23493 -10.23439 -10.23041 -10.22710 -10.22367
 Alpha  occ. eigenvalues --  -10.22032  -3.14924  -3.14763  -1.87746  -1.87574
 Alpha  occ. eigenvalues --   -1.87311  -1.87160  -1.87139  -1.86967  -1.10910
 Alpha  occ. eigenvalues --   -1.10401  -1.06403  -1.05847  -1.05253  -1.02423
 Alpha  occ. eigenvalues --   -1.02386  -1.01632  -0.99821  -0.99694  -0.98970
 Alpha  occ. eigenvalues --   -0.98789  -0.98540  -0.97281  -0.96615  -0.94879
 Alpha  occ. eigenvalues --   -0.86696  -0.86415  -0.83662  -0.83236  -0.83188
 Alpha  occ. eigenvalues --   -0.83077  -0.82899  -0.82583  -0.82086  -0.81104
 Alpha  occ. eigenvalues --   -0.80915  -0.80862  -0.80613  -0.80522  -0.78717
 Alpha  occ. eigenvalues --   -0.78610  -0.78088  -0.77763  -0.76777  -0.76765
 Alpha  occ. eigenvalues --   -0.76605  -0.75490  -0.75358  -0.75189  -0.74542
 Alpha  occ. eigenvalues --   -0.74429  -0.72676  -0.72296  -0.72092  -0.71704
 Alpha  occ. eigenvalues --   -0.71048  -0.70860  -0.70453  -0.70365  -0.69592
 Alpha  occ. eigenvalues --   -0.69549  -0.67555  -0.67555  -0.66234  -0.66097
 Alpha  occ. eigenvalues --   -0.64039  -0.63696  -0.63637  -0.63343  -0.62515
 Alpha  occ. eigenvalues --   -0.62172  -0.61634  -0.61334  -0.60575  -0.59913
 Alpha  occ. eigenvalues --   -0.59842  -0.59812  -0.59651  -0.59274  -0.59061
 Alpha  occ. eigenvalues --   -0.58145  -0.56841  -0.56773  -0.55021  -0.54274
 Alpha  occ. eigenvalues --   -0.54119  -0.53858  -0.53772  -0.53695  -0.53359
 Alpha  occ. eigenvalues --   -0.52618  -0.52532  -0.52161  -0.52052  -0.51818
 Alpha  occ. eigenvalues --   -0.51372  -0.50740  -0.50619  -0.49901  -0.49751
 Alpha  occ. eigenvalues --   -0.49711  -0.49225  -0.49194  -0.48800  -0.48667
 Alpha  occ. eigenvalues --   -0.48325  -0.48019  -0.47782  -0.47564  -0.47465
 Alpha  occ. eigenvalues --   -0.47151  -0.47092  -0.46985  -0.46940  -0.46702
 Alpha  occ. eigenvalues --   -0.46547  -0.46494  -0.46128  -0.45933  -0.45817
 Alpha  occ. eigenvalues --   -0.45723  -0.45516  -0.45339  -0.45332  -0.44647
 Alpha  occ. eigenvalues --   -0.44606  -0.44392  -0.44349  -0.44069  -0.44035
 Alpha  occ. eigenvalues --   -0.43998  -0.43922  -0.43656  -0.43653  -0.43368
 Alpha  occ. eigenvalues --   -0.43069  -0.43007  -0.42939  -0.42820  -0.42563
 Alpha  occ. eigenvalues --   -0.42478  -0.42288  -0.42265  -0.42041  -0.41881
 Alpha  occ. eigenvalues --   -0.41666  -0.41575  -0.41381  -0.41251  -0.41103
 Alpha  occ. eigenvalues --   -0.41013  -0.40900  -0.40781  -0.40601  -0.40503
 Alpha  occ. eigenvalues --   -0.40315  -0.40235  -0.40092  -0.39951  -0.39812
 Alpha  occ. eigenvalues --   -0.39720  -0.39320  -0.39319  -0.38917  -0.38830
 Alpha  occ. eigenvalues --   -0.38743  -0.38504  -0.38358  -0.38241  -0.38161
 Alpha  occ. eigenvalues --   -0.38103  -0.37811  -0.37717  -0.37677  -0.37581
 Alpha  occ. eigenvalues --   -0.37380  -0.37342  -0.37144  -0.37084  -0.37052
 Alpha  occ. eigenvalues --   -0.36983  -0.36871  -0.36804  -0.36678  -0.36320
 Alpha  occ. eigenvalues --   -0.36301  -0.35971  -0.35762  -0.35740  -0.35243
 Alpha  occ. eigenvalues --   -0.34913  -0.34678  -0.34341  -0.34049  -0.33998
 Alpha  occ. eigenvalues --   -0.33398  -0.33303  -0.33055  -0.32825  -0.32425
 Alpha  occ. eigenvalues --   -0.32168  -0.32105  -0.31603  -0.31402  -0.31362
 Alpha  occ. eigenvalues --   -0.31198  -0.30880  -0.29601  -0.29287  -0.29121
 Alpha  occ. eigenvalues --   -0.29060  -0.28749  -0.28316  -0.27244  -0.27108
 Alpha  occ. eigenvalues --   -0.26154  -0.26000  -0.25846  -0.25755  -0.25414
 Alpha  occ. eigenvalues --   -0.25289  -0.25119  -0.24308  -0.21279  -0.21134
 Alpha  occ. eigenvalues --   -0.19196  -0.18469
 Alpha virt. eigenvalues --   -0.11592  -0.11110  -0.05313  -0.05004  -0.03691
 Alpha virt. eigenvalues --   -0.03138  -0.02024  -0.01936  -0.01409  -0.01129
 Alpha virt. eigenvalues --    0.00147   0.00809   0.01009   0.01152   0.02137

 Mulliken charges:
               1
     1  Mg  12.000277
     2  C    6.027431
     3  C    6.008870
     4  C    5.968909
     5  C    5.992072
     6  N    7.023607
     7  C    5.974315
     8  C    6.003561
     9  C    5.997854
    10  C    6.011934
    11  C    5.997982
    12  C    6.001359
    13  C    6.005888
    14  H    0.998013
    15  N    6.991814
    16  C    6.031707
    17  C    6.026931
    18  C    6.001963
    19  C    6.045156
    20  C    5.995499
    21  C    6.011874
    22  O    8.015858
    23  C    5.998223
    24  N    6.991462
    25  C    6.039308
    26  C    5.989812
    27  C    6.011418
    28  C    5.968131
    29  C    6.000075
    30  C    6.006465
    31  C    5.998015
    32  N    6.999626
    33  C    5.969458
    34  C    5.976250
    35  C    5.998551
    36  C    5.964345
    37  C    5.998742
    38  C    5.983798
    39  O    7.967708
    40  C    5.992980
    41  C    5.996112
    42  O    7.998899
    43  O    7.997739
    44  C    5.999897
    45  H    1.013283
    46  H    1.005123
    47  H    0.984283
    48  H    1.004866
    49  H    0.999213
    50  H    1.004999
    51  H    1.013905
    52  H    0.997216
    53  H    1.002797
    54  H    0.992218
    55  H    0.990091
    56  H    1.006835
    57  H    1.017436
    58  H    1.014267
    59  H    1.017970
    60  H    1.010278
    61  H    1.010919
    62  H    1.007525
    63  H    1.000485
    64  H    0.993345
    65  H    0.997168
    66  H    0.995112
    67  H    1.008773
    68  H    1.005415
    69  H    0.991108
    70  H    0.995170
    71  H    0.994385
    72  H    1.002517
    73  H    0.985115
    74  H    0.984506
    75  H    0.986985
    76  H    0.994247
    77  H    0.995442
    78  H    0.995955
    79  H    1.001164
    80  Mg  12.000003
    81  C    6.000003
    82  C    6.000026
    83  C    6.000011
    84  C    5.999950
    85  N    7.000007
    86  C    5.999962
    87  C    6.000020
    88  C    5.999986
    89  C    6.000019
    90  C    5.999985
    91  C    5.999995
    92  C    5.999995
    93  H    1.000009
    94  N    7.000003
    95  C    6.000041
    96  C    6.000052
    97  C    6.000020
    98  C    6.000027
    99  C    5.999991
   100  C    6.000044
   101  O    8.000055
   102  C    5.999995
   103  N    6.999989
   104  C    6.000025
   105  C    5.999983
   106  C    6.000017
   107  C    5.999975
   108  C    5.999988
   109  C    6.000011
   110  C    6.000005
   111  N    7.000002
   112  C    5.999961
   113  C    5.999934
   114  C    6.000031
   115  C    5.999968
   116  C    5.999988
   117  C    5.999928
   118  O    7.999940
   119  C    6.000009
   120  C    5.999983
   121  O    7.999992
   122  O    8.000001
   123  C    6.000008
   124  H    1.000043
   125  H    1.000002
   126  H    0.999959
   127  H    0.999997
   128  H    1.000019
   129  H    1.000026
   130  H    0.999989
   131  H    1.000034
   132  H    0.999996
   133  H    1.000008
   134  H    1.000000
   135  H    0.999998
   136  H    1.000056
   137  H    1.000060
   138  H    1.000056
   139  H    1.000029
   140  H    1.000012
   141  H    1.000041
   142  H    0.999998
   143  H    0.999990
   144  H    0.999999
   145  H    0.999988
   146  H    1.000021
   147  H    0.999967
   148  H    0.999996
   149  H    0.999983
   150  H    1.000025
   151  H    0.999970
   152  H    0.999938
   153  H    0.999955
   154  H    0.999958
   155  H    0.999983
   156  H    0.999995
   157  H    0.999984
   158  H    0.999988
 Sum of Mulliken charges = 624.00000

 Dipole moment (field-independent basis, Debye):
    X=              2.8700    Y=             -7.7981    Z=             -5.6163  Tot=             10.0294
 Quadrupole moment (field-independent basis, Debye-Ang):
   XX=            167.3275   YY=              6.8994   ZZ=             -2.3375
   XY=           -233.1406   XZ=           -170.0309   YZ=              0.9830

 Normal termination of Gaussian 16 at Thu Oct 14 00:13:11 2021.
