 Gaussian 16, Revision A.03,
 Gaussian 16:  ES64L-G16RevA.03 25-Dec-2016

 --------------------------------------------------------
 #p PBE1PBE/Def2SVP td=(nstates=5) density=(transition=1)
 --------------------------------------------------------

 --------------------------------
 TDDFT excited states in gaussian
 --------------------------------
 Symbolic Z-matrix:
 Charge =  0 Multiplicity = 1

                         Standard orientation:
 ---------------------------------------------------------------------
 Center     Atomic      Atomic             Coordinates (Angstroms)
 Number     Number       Type             X           Y           Z
 ---------------------------------------------------------------------
      1         12           0       20.477270   -0.558007    0.306404
      2          6           0       19.390968    1.948451   -1.714268
      3          6           0       21.375359    1.590018    2.852479
      4          6           0       21.691841   -3.224840    2.077332
      5          6           0       19.990684   -2.857611   -2.444222
      6          7           0       20.576399    1.529308    0.435005
      7          6           0       19.824569    2.393578   -0.429677
      8          6           0       19.656027    3.729518    0.175799
      9          6           0       20.654666    3.639711    1.415500
     10          6           0       20.919204    2.164639    1.619878
     11          6           0       22.031752    4.439671    1.179091
     12          6           0       18.176058    4.146593    0.437174
     13          6           0       17.825991    5.542711    0.033718
     14          1           0       18.917376    6.645650    0.329166
     15          7           0       21.341357   -0.793407    2.237856
     16          6           0       21.616548    0.246338    3.075452
     17          6           0       22.171638   -0.299300    4.266414
     18          6           0       22.209445   -1.742402    4.135088
     19          6           0       21.655370   -2.028405    2.769414
     20          6           0       22.709984    0.592590    5.406472
     21          6           0       22.623242   -2.843901    5.060192
     22          8           0       22.719878   -4.052838    4.821039
     23          6           0       22.924626   -2.396213    6.540452
     24          7           0       20.908796   -2.774457   -0.155648
     25          6           0       21.298448   -3.620400    0.765256
     26          6           0       21.148990   -5.074246    0.321825
     27          6           0       20.602917   -4.934648   -1.127904
     28          6           0       20.503782   -3.417695   -1.276345
     29          6           0       22.523299   -5.915547    0.387862
     30          6           0       19.183676   -5.651574   -1.211537
     31          6           0       17.959908   -5.092387   -0.444586
     32          7           0       19.977097   -0.468080   -1.736374
     33          6           0       19.777450   -1.471677   -2.665433
     34          6           0       19.181340   -0.826208   -3.852788
     35          6           0       18.977448    0.494361   -3.586205
     36          6           0       19.495770    0.659894   -2.250693
     37          6           0       19.001625   -1.502073   -5.168346
     38          6           0       18.483828    1.778760   -4.082354
     39          8           0       17.997948    2.092251   -5.156169
     40          6           0       18.756138    2.762004   -2.860701
     41          6           0       19.724375    3.775733   -3.326030
     42          8           0       20.852205    3.589509   -3.815203
     43          8           0       19.084063    4.977781   -3.102570
     44          6           0       19.925041    6.162771   -3.316582
     45          1           0       21.623658    2.230201    3.701402
     46          1           0       21.985314   -4.041761    2.740867
     47          1           0       19.764063   -3.548282   -3.258360
     48          1           0       20.042512    4.416633   -0.577999
     49          1           0       20.138058    4.035511    2.289363
     50          1           0       21.997370    5.128955    0.335404
     51          1           0       22.759147    3.694915    0.856387
     52          1           0       22.254636    4.851798    2.162378
     53          1           0       17.951454    4.055159    1.499894
     54          1           0       17.618351    3.436898   -0.173725
     55          1           0       16.965212    5.938681    0.571140
     56          1           0       17.514526    5.782264   -0.983087
     57          1           0       21.956697    1.049093    6.048445
     58          1           0       23.325130    1.311504    4.865562
     59          1           0       23.271681    0.033694    6.154651
     60          1           0       23.876192   -1.864952    6.561575
     61          1           0       22.778652   -3.260299    7.188381
     62          1           0       22.159443   -1.745502    6.964233
     63          1           0       20.391873   -5.548882    0.945545
     64          1           0       21.246033   -5.387521   -1.882551
     65          1           0       22.424987   -6.577572    1.248934
     66          1           0       23.366789   -5.244606    0.553729
     67          1           0       22.791387   -6.577750   -0.434386
     68          1           0       19.191682   -6.717857   -0.986117
     69          1           0       18.942320   -5.504125   -2.264707
     70          1           0       17.290308   -4.799750   -1.253470
     71          1           0       18.220652   -4.272660    0.223689
     72          1           0       17.463494   -5.825935    0.190651
     73          1           0       18.108847   -1.017601   -5.562539
     74          1           0       18.877429   -2.581341   -5.077771
     75          1           0       19.771260   -1.117047   -5.836037
     76          1           0       17.768801    3.216022   -2.780496
     77          1           0       19.205590    6.974309   -3.203720
     78          1           0       20.232827    6.123574   -4.361493
     79          1           0       20.839070    6.209240   -2.724199
     80         12           0      -20.878608   -0.598369   -0.152094
     81          6           0      -18.778562    2.267584    0.067441
     82          6           0      -23.474836    1.318754    1.034002
     83          6           0      -22.657586   -3.375051   -0.362231
     84          6           0      -17.979701   -2.589509   -0.894404
     85          7           0      -21.105700    1.602703    0.568017
     86          6           0      -20.104238    2.547569    0.439116
     87          6           0      -20.737457    3.913823    0.873226
     88          6           0      -22.285360    3.600475    1.237643
     89          6           0      -22.283956    2.096266    0.946712
     90          6           0      -22.753104    4.031098    2.643439
     91          6           0      -20.510710    5.151740   -0.089551
     92          6           0      -19.822065    6.335779    0.524510
     93          1           0      -19.891041    6.674529    1.990215
     94          7           0      -22.921835   -0.960798    0.174025
     95          6           0      -23.795837   -0.043383    0.666230
     96          6           0      -25.096778   -0.656191    0.585161
     97          6           0      -24.881438   -2.019768    0.290360
     98          6           0      -23.420143   -2.227353    0.027936
     99          6           0      -26.350452    0.144877    0.975100
    100          6           0      -25.887223   -3.128954    0.355776
    101          8           0      -25.555499   -4.326339    0.187023
    102          6           0      -27.299028   -2.812344    0.684422
    103          7           0      -20.309174   -2.714679   -0.519703
    104          6           0      -21.233356   -3.604863   -0.625023
    105          6           0      -20.772774   -5.093051   -1.072606
    106          6           0      -19.267875   -4.820127   -1.217326
    107          6           0      -19.154429   -3.353808   -0.879069
    108          6           0      -21.165899   -6.125309    0.046785
    109          6           0      -18.618105   -5.150095   -2.607002
    110          6           0      -18.965274   -4.198677   -3.776618
    111          7           0      -18.861525   -0.275078   -0.240738
    112          6           0      -17.830286   -1.200000   -0.528282
    113          6           0      -16.568998   -0.451926   -0.619183
    114          6           0      -16.897572    0.907654   -0.401371
    115          6           0      -18.319951    0.973253   -0.216308
    116          6           0      -15.174057   -1.067247   -0.940315
    117          6           0      -16.334128    2.151188   -0.349523
    118          8           0      -15.183605    2.530782   -0.429485
    119          6           0      -17.503083    3.145268   -0.102483
    120          6           0      -17.182594    3.949644    1.053972
    121          8           0      -17.447185    3.643326    2.222020
    122          8           0      -16.329914    4.994944    0.679627
    123          6           0      -15.782775    5.774219    1.817808
    124          1           0      -24.294524    1.733682    1.624904
    125          1           0      -23.224028   -4.303877   -0.267128
    126          1           0      -17.068109   -3.146509   -1.120480
    127          1           0      -20.079466    4.124161    1.715387
    128          1           0      -22.925270    4.182198    0.575647
    129          1           0      -23.621397    4.687819    2.576179
    130          1           0      -22.010092    4.504993    3.284665
    131          1           0      -23.035105    3.092875    3.121268
    132          1           0      -21.462561    5.475758   -0.510833
    133          1           0      -19.845369    4.786612   -0.871960
    134          1           0      -20.373606    7.215777    0.191684
    135          1           0      -18.781132    6.317953    0.203588
    136          1           0      -26.163181    1.218798    0.991023
    137          1           0      -26.699979   -0.175623    1.955693
    138          1           0      -27.078733   -0.101019    0.202952
    139          1           0      -27.645778   -2.101931   -0.066054
    140          1           0      -27.380915   -2.317726    1.653039
    141          1           0      -27.891823   -3.723748    0.750891
    142          1           0      -21.211070   -5.372868   -2.030890
    143          1           0      -18.733600   -5.279879   -0.385579
    144          1           0      -21.152719   -5.599764    1.001590
    145          1           0      -20.392541   -6.893276    0.085399
    146          1           0      -22.127570   -6.631912   -0.038704
    147          1           0      -18.759285   -6.205266   -2.838919
    148          1           0      -17.537121   -5.130103   -2.472103
    149          1           0      -19.956056   -3.745723   -3.763771
    150          1           0      -18.760685   -4.723284   -4.710595
    151          1           0      -18.211171   -3.413156   -3.730294
    152          1           0      -14.642431   -0.535638   -1.729600
    153          1           0      -15.216549   -2.128247   -1.183837
    154          1           0      -14.483477   -0.815086   -0.135176
    155          1           0      -17.475029    3.742880   -1.013029
    156          1           0      -15.075790    5.173113    2.389029
    157          1           0      -16.528150    6.096473    2.543999
    158          1           0      -15.436696    6.720467    1.401588
 ---------------------------------------------------------------------

 SCF Done:  E(RPBE1PBE) =  -4067.37115105     A.U. after   16 cycles

 Excitation energies and oscillator strengths:

 Excited State   1:      Singlet-A      1.8382 eV  674.49 nm  f=0.3759  <S**2>=0.000
     309 -> 315       -0.17975
     312 -> 314        0.69177
     312 <- 314       -0.10364
 This state for optimization and/or second-order correction.
 Total Energy, E(TD-HF/TD-DFT) =  -4067.30359870
 Copying the excited state density for this state as the 1-particle RhoCI density.

 Excited State   2:      Singlet-A      1.8677 eV  663.82 nm  f=0.3626  <S**2>=0.000
     310 -> 316        0.18704
     311 -> 313        0.68772

 Excited State   3:      Singlet-A      1.9769 eV  627.18 nm  f=0.0000  <S**2>=0.000
     312 -> 313        0.70710

 Excited State   4:      Singlet-A      2.0334 eV  609.72 nm  f=0.0000  <S**2>=0.000
     311 -> 314        0.70711

 Excited State   5:      Singlet-A      2.2069 eV  561.81 nm  f=0.1030  <S**2>=0.000
     310 -> 313        0.65388
     311 -> 316       -0.25871

 The electronic state is 1-A.
 Alpha  occ. eigenvalues --  -46.93210 -46.92632 -19.26346 -19.25018 -19.20545
 Alpha  occ. eigenvalues --  -19.19930 -19.19611 -19.19541 -19.18703 -19.18144
 Alpha  occ. eigenvalues --  -14.42069 -14.41962 -14.41568 -14.41440 -14.39541
 Alpha  occ. eigenvalues --  -14.39306 -14.39215 -14.39074 -10.36593 -10.35693
 Alpha  occ. eigenvalues --  -10.32702 -10.32658 -10.31893 -10.30695 -10.29628
 Alpha  occ. eigenvalues --  -10.29579 -10.29441 -10.29178 -10.29075 -10.29027
 Alpha  occ. eigenvalues --  -10.28812 -10.28501 -10.28237 -10.28177 -10.28102
 Alpha  occ. eigenvalues --  -10.28096 -10.28080 -10.27912 -10.27599 -10.27329
 Alpha  occ. eigenvalues --  -10.26766 -10.26722 -10.26641 -10.26626 -10.26582
 Alpha  occ. eigenvalues --  -10.26572 -10.26297 -10.26177 -10.26145 -10.26135
 Alpha  occ. eigenvalues --  -10.26003 -10.25984 -10.25868 -10.25738 -10.25566
 Alpha  occ. eigenvalues --  -10.25516 -10.25485 -10.25414 -10.25384 -10.25367
 Alpha  occ. eigenvalues --  -10.25319 -10.25314 -10.25167 -10.25141 -10.25074
 Alpha  occ. eigenvalues --  -10.25022 -10.24960 -10.24943 -10.24894 -10.24723
 Alpha  occ. eigenvalues --  -10.24568 -10.24230 -10.24213 -10.24071 -10.23768
 Alpha  occ. eigenvalues --  -10.23716 -10.23685 -10.23421 -10.23393 -10.23345
 Alpha  occ. eigenvalues --  -10.23331 -10.23116 -10.22998 -10.22933 -10.22651
 Alpha  occ. eigenvalues --  -10.22024  -3.15134  -3.14621  -1.87988  -1.87542
 Alpha  occ. eigenvalues --   -1.87464  -1.87313  -1.86985  -1.86843  -1.10763
 Alpha  occ. eigenvalues --   -1.09178  -1.05083  -1.04328  -1.04148  -1.02874
 Alpha  occ. eigenvalues --   -1.02318  -1.01214  -1.00751  -0.99761  -0.98586
 Alpha  occ. eigenvalues --   -0.98197  -0.97605  -0.97429  -0.96610  -0.96310
 Alpha  occ. eigenvalues --   -0.86881  -0.86816  -0.84074  -0.83395  -0.83090
 Alpha  occ. eigenvalues --   -0.82393  -0.82293  -0.82056  -0.81707  -0.81410
 Alpha  occ. eigenvalues --   -0.81247  -0.81122  -0.80393  -0.79945  -0.78940
 Alpha  occ. eigenvalues --   -0.78569  -0.77708  -0.77672  -0.76854  -0.76678
 Alpha  occ. eigenvalues --   -0.76226  -0.75872  -0.75476  -0.75047  -0.74407
 Alpha  occ. eigenvalues --   -0.74125  -0.72450  -0.72336  -0.71897  -0.71669
 Alpha  occ. eigenvalues --   -0.71468  -0.70796  -0.70145  -0.70115  -0.69332
 Alpha  occ. eigenvalues --   -0.69304  -0.67087  -0.66933  -0.66646  -0.66004
 Alpha  occ. eigenvalues --   -0.64800  -0.64178  -0.63644  -0.63554  -0.62835
 Alpha  occ. eigenvalues --   -0.62278  -0.61827  -0.61235  -0.59808  -0.59805
 Alpha  occ. eigenvalues --   -0.59468  -0.59442  -0.59217  -0.59132  -0.58936
 Alpha  occ. eigenvalues --   -0.58796  -0.57118  -0.56107  -0.54823  -0.54608
 Alpha  occ. eigenvalues --   -0.54135  -0.53992  -0.53493  -0.53376  -0.53277
 Alpha  occ. eigenvalues --   -0.52724  -0.52498  -0.52469  -0.52141  -0.52107
 Alpha  occ. eigenvalues --   -0.50845  -0.50574  -0.50550  -0.50088  -0.49881
 Alpha  occ. eigenvalues --   -0.49522  -0.49449  -0.49444  -0.49025  -0.48181
 Alpha  occ. eigenvalues --   -0.48116  -0.47922  -0.47668  -0.47660  -0.47571
 Alpha  occ. eigenvalues --   -0.47322  -0.47215  -0.46974  -0.46910  -0.46610
 Alpha  occ. eigenvalues --   -0.46472  -0.46309  -0.46210  -0.46123  -0.45837
 Alpha  occ. eigenvalues --   -0.45644  -0.45520  -0.45397  -0.44841  -0.44528
 Alpha  occ. eigenvalues --   -0.44474  -0.44278  -0.44121  -0.43957  -0.43853
 Alpha  occ. eigenvalues --   -0.43777  -0.43537  -0.43470  -0.43361  -0.43255
 Alpha  occ. eigenvalues --   -0.43225  -0.43195  -0.43109  -0.42752  -0.42668
 Alpha  occ. eigenvalues --   -0.42505  -0.42336  -0.42200  -0.42080  -0.42027
 Alpha  occ. eigenvalues --   -0.41996  -0.41598  -0.41446  -0.41339  -0.41333
 Alpha  occ. eigenvalues --   -0.41242  -0.40906  -0.40874  -0.40618  -0.40596
 Alpha  occ. eigenvalues --   -0.40306  -0.40296  -0.39938  -0.39809  -0.39494
 Alpha  occ. eigenvalues --   -0.39489  -0.39295  -0.39129  -0.38741  -0.38668
 Alpha  occ. eigenvalues --   -0.38488  -0.38244  -0.38074  -0.38009  -0.38002
 Alpha  occ. eigenvalues --   -0.37733  -0.37677  -0.37658  -0.37644  -0.37403
 Alpha  occ. eigenvalues --   -0.37217  -0.37087  -0.37057  -0.36881  -0.36850
 Alpha  occ. eigenvalues --   -0.36772  -0.36698  -0.36522  -0.36497  -0.36420
 Alpha  occ. eigenvalues --   -0.36207  -0.36078  -0.35975  -0.35658  -0.35515
 Alpha  occ. eigenvalues --   -0.35361  -0.35039  -0.34724  -0.34676  -0.34470
 Alpha  occ. eigenvalues --   -0.34073  -0.32852  -0.32516  -0.32142  -0.31947
 Alpha  occ. eigenvalues --   -0.31728  -0.31718  -0.31509  -0.31469  -0.31370
 Alpha  occ. eigenvalues --   -0.31088  -0.30583  -0.29625  -0.29374  -0.29146
 Alpha  occ. eigenvalues --   -0.29010  -0.28685  -0.28472  -0.26870  -0.26868
 Alpha  occ. eigenvalues --   -0.26328  -0.25940  -0.25767  -0.25648  -0.25634
 Alpha  occ. eigenvalues --   -0.25517  -0.25429  -0.25198  -0.21290  -0.20724
 Alpha  occ. eigenvalues --   -0.18853  -0.18655
 Alpha virt. eigenvalues --   -0.11073  -0.11057  -0.05784  -0.05279  -0.04443
 Alpha virt. eigenvalues --   -0.04048  -0.02266  -0.02084  -0.00856  -0.00183
 Alpha virt. eigenvalues --    0.00079   0.00352   0.00814   0.01052   0.01465

 Mulliken charges:
               1
     1  Mg  12.002999
     2  C    6.020042
     3  C    5.980432
     4  C    5.996743
     5  C    6.016305
     6  N    7.002266
     7  C    5.965131
     8  C    6.011781
     9  C    5.989687
    10  C    6.034547
    11  C    5.999043
    12  C    6.002426
    13  C    6.004003
    14  H    0.991599
    15  N    6.992282
    16  C    6.035983
    17  C    6.021662
    18  C    6.016816
    19  C    6.024030
    20  C    5.999950
    21  C    6.012009
    22  O    8.030245
    23  C    5.995663
    24  N    7.003216
    25  C    6.025309
    26  C    5.991208
    27  C    6.010739
    28  C    5.967557
    29  C    5.998921
    30  C    6.002152
    31  C    6.004201
    32  N    7.002318
    33  C    5.957482
    34  C    5.974061
    35  C    5.996510
    36  C    5.969127
    37  C    6.001406
    38  C    5.982359
    39  O    7.973567
    40  C    5.998024
    41  C    5.997133
    42  O    7.995463
    43  O    7.998376
    44  C    6.001469
    45  H    1.007387
    46  H    1.006859
    47  H    0.991911
    48  H    0.998845
    49  H    1.000817
    50  H    1.013624
    51  H    1.000307
    52  H    0.999014
    53  H    0.988049
    54  H    1.005062
    55  H    0.996463
    56  H    1.003238
    57  H    1.019366
    58  H    1.014275
    59  H    1.012475
    60  H    1.008699
    61  H    1.013748
    62  H    1.007703
    63  H    1.000053
    64  H    0.997651
    65  H    0.997844
    66  H    0.996913
    67  H    1.008908
    68  H    0.990710
    69  H    1.004411
    70  H    1.005389
    71  H    0.991610
    72  H    0.993460
    73  H    0.985550
    74  H    0.982396
    75  H    0.980697
    76  H    0.992713
    77  H    0.995696
    78  H    0.998630
    79  H    0.993287
    80  Mg  11.999997
    81  C    5.999844
    82  C    6.000239
    83  C    6.000049
    84  C    5.999815
    85  N    6.999983
    86  C    6.000298
    87  C    5.999909
    88  C    6.000218
    89  C    5.999548
    90  C    6.000008
    91  C    5.999985
    92  C    5.999987
    93  H    1.000015
    94  N    7.000143
    95  C    5.999477
    96  C    5.999763
    97  C    5.999748
    98  C    5.999636
    99  C    6.000040
   100  C    5.999825
   101  O    7.999594
   102  C    6.000071
   103  N    6.999913
   104  C    5.999682
   105  C    6.000099
   106  C    5.999879
   107  C    6.000453
   108  C    6.000060
   109  C    5.999940
   110  C    5.999942
   111  N    7.000016
   112  C    6.000515
   113  C    6.000351
   114  C    5.999992
   115  C    6.000321
   116  C    5.999936
   117  C    6.000271
   118  O    8.000472
   119  C    5.999981
   120  C    6.000069
   121  O    8.000059
   122  O    8.000037
   123  C    5.999974
   124  H    0.999897
   125  H    0.999879
   126  H    1.000138
   127  H    0.999946
   128  H    0.999938
   129  H    0.999947
   130  H    0.999842
   131  H    1.000020
   132  H    1.000099
   133  H    0.999960
   134  H    1.000047
   135  H    0.999965
   136  H    0.999783
   137  H    0.999728
   138  H    0.999800
   139  H    0.999905
   140  H    0.999878
   141  H    0.999780
   142  H    1.000004
   143  H    1.000011
   144  H    0.999980
   145  H    0.999853
   146  H    1.000030
   147  H    1.000125
   148  H    0.999996
   149  H    1.000131
   150  H    1.000106
   151  H    0.999923
   152  H    1.000332
   153  H    1.000251
   154  H    1.000251
   155  H    1.000147
   156  H    1.000013
   157  H    1.000041
   158  H    1.000099
 Sum of Mulliken charges = 624.00000

 Dipole moment (field-independent basis, Debye):
    X=              4.0848    Y=             -1.4123    Z=              9.4423  Tot=             10.3845
 Quadrupole moment (field-independent basis, Debye-Ang):
   XX=            156.4874   YY=             -1.0031   ZZ=              5.9722
   XY=            -32.3387   XZ=            198.0245   YZ=             -6.3035

 Normal termination of Gaussian 16 at Wed Oct 13 21:19:26 2021.
