 Gaussian 16, Revision A.03,
 Gaussian 16:  ES64L-G16RevA.03 25-Dec-2016

 --------------------------------------------------------
 #p PBE1PBE/Def2SVP td=(nstates=5) density=(transition=1)
 --------------------------------------------------------

 --------------------------------
 TDDFT excited states in gaussian
 --------------------------------
 Symbolic Z-matrix:
 Charge =  0 Multiplicity = 1

                         Standard orientation:
 ---------------------------------------------------------------------
 Center     Atomic      Atomic             Coordinates (Angstroms)
 Number     Number       Type             X           Y           Z
 ---------------------------------------------------------------------
      1         12           0       21.803202   -0.613218    0.429580
      2          6           0       21.813345    2.406049   -1.414294
      3          6           0       22.393618    1.211259    3.299139
      4          6           0       22.079794   -3.535217    2.122814
      5          6           0       21.416892   -2.437331   -2.539053
      6          7           0       22.158934    1.545683    0.768129
      7          6           0       21.900595    2.622171   -0.077137
      8          6           0       22.025391    4.002171    0.689309
      9          6           0       22.478647    3.541794    2.100381
     10          6           0       22.399122    1.998961    2.073085
     11          6           0       23.887498    4.016414    2.619042
     12          6           0       20.786814    4.984090    0.592021
     13          6           0       21.079273    6.322468   -0.015907
     14          1           0       20.308940    7.552085    0.609489
     15          7           0       22.186543   -1.032755    2.390711
     16          6           0       22.338107   -0.169672    3.456948
     17          6           0       22.585077   -0.936098    4.668267
     18          6           0       22.501938   -2.328062    4.381351
     19          6           0       22.219372   -2.361396    2.899204
     20          6           0       22.731297   -0.310947    6.070221
     21          6           0       22.615210   -3.532259    5.310640
     22          8           0       22.437654   -4.679297    4.955461
     23          6           0       22.870948   -3.432786    6.870347
     24          7           0       21.848890   -2.716646   -0.159517
     25          6           0       21.969293   -3.704615    0.717581
     26          6           0       21.893809   -5.114806    0.030720
     27          6           0       21.483355   -4.748529   -1.450360
     28          6           0       21.556911   -3.192480   -1.399511
     29          6           0       23.198221   -5.936720    0.241473
     30          6           0       20.142137   -5.340777   -1.835470
     31          6           0       20.099585   -5.921485   -3.247807
     32          7           0       21.773602   -0.222642   -1.616365
     33          6           0       21.513966   -1.036618   -2.702268
     34          6           0       21.603866   -0.222796   -3.875350
     35          6           0       21.673336    1.128105   -3.453493
     36          6           0       21.784524    1.105101   -2.035225
     37          6           0       21.533768   -0.701907   -5.275679
     38          6           0       21.633284    2.527968   -3.911180
     39          8           0       21.666263    3.042127   -5.025383
     40          6           0       21.691161    3.444146   -2.463104
     41          6           0       22.809106    4.334436   -2.501524
     42          8           0       23.840011    4.174264   -1.884800
     43          8           0       22.508611    5.465648   -3.226117
     44          6           0       23.660409    6.394565   -3.340898
     45          1           0       22.456823    1.753365    4.245161
     46          1           0       22.208390   -4.504432    2.608096
     47          1           0       21.209103   -3.075122   -3.401493
     48          1           0       22.935051    4.446223    0.286473
     49          1           0       21.768178    3.871025    2.858689
     50          1           0       23.763032    4.260748    3.674449
     51          1           0       24.198428    4.878952    2.030102
     52          1           0       24.672947    3.264667    2.538805
     53          1           0       20.398330    5.071882    1.606746
     54          1           0       20.055371    4.501046   -0.056092
     55          1           0       20.814543    6.310835   -1.074024
     56          1           0       22.158422    6.420834    0.098395
     57          1           0       21.848037   -0.639070    6.617055
     58          1           0       22.611302    0.769716    5.990019
     59          1           0       23.613218   -0.612889    6.636517
     60          1           0       22.082950   -2.813037    7.299574
     61          1           0       23.912443   -3.222914    7.115743
     62          1           0       22.868172   -4.468091    7.209962
     63          1           0       21.082945   -5.738396    0.406665
     64          1           0       22.306117   -5.090657   -2.078452
     65          1           0       23.534079   -6.300286   -0.730087
     66          1           0       23.094131   -6.732322    0.979662
     67          1           0       23.977607   -5.288662    0.638960
     68          1           0       19.330141   -4.621753   -1.732049
     69          1           0       19.790446   -6.126416   -1.164951
     70          1           0       20.992696   -5.657890   -3.814442
     71          1           0       19.241425   -5.462023   -3.739077
     72          1           0       19.885409   -6.990340   -3.252945
     73          1           0       21.422125   -1.774539   -5.433799
     74          1           0       22.324647   -0.177474   -5.813300
     75          1           0       20.526294   -0.412582   -5.575615
     76          1           0       20.768096    4.017096   -2.370402
     77          1           0       24.493047    5.891899   -3.833472
     78          1           0       23.862274    6.748425   -2.329925
     79          1           0       23.446334    7.261082   -3.965319
     80         12           0      -21.692202   -0.687568   -0.064958
     81          6           0      -23.362782    2.033195    1.364120
     82          6           0      -19.719463    1.356532   -1.708034
     83          6           0      -20.621274   -3.329633   -1.982354
     84          6           0      -24.129847   -2.849791    1.294526
     85          7           0      -21.533712    1.413843   -0.048067
     86          6           0      -22.244220    2.376457    0.634776
     87          6           0      -21.616063    3.755957    0.484412
     88          6           0      -20.603137    3.512533   -0.680001
     89          6           0      -20.532439    2.026792   -0.750385
     90          6           0      -20.806143    4.210091   -2.007675
     91          6           0      -21.018549    4.352816    1.798557
     92          6           0      -20.409095    5.752298    1.661495
     93          1           0      -20.899107    6.794214    2.656380
     94          7           0      -20.329455   -0.944280   -1.752689
     95          6           0      -19.504222    0.037309   -2.172440
     96          6           0      -18.578220   -0.500947   -3.129916
     97          6           0      -18.905411   -1.857123   -3.300955
     98          6           0      -20.007665   -2.087460   -2.327898
     99          6           0      -17.520217    0.321227   -3.835060
    100          6           0      -18.255616   -2.897587   -4.153106
    101          8           0      -18.688373   -4.061444   -4.367623
    102          6           0      -16.918990   -2.609677   -4.825797
    103          7           0      -22.304348   -2.740725   -0.318684
    104          6           0      -21.744438   -3.585719   -1.215418
    105          6           0      -22.298445   -5.090036   -0.963563
    106          6           0      -23.058125   -4.931729    0.400185
    107          6           0      -23.133354   -3.445124    0.539886
    108          6           0      -23.196463   -5.519664   -2.188845
    109          6           0      -22.179221   -5.456327    1.593852
    110          6           0      -20.753268   -4.950570    1.747555
    111          7           0      -23.427552   -0.501078    1.179360
    112          6           0      -24.271298   -1.483766    1.619237
    113          6           0      -25.238465   -0.868174    2.403399
    114          6           0      -25.002598    0.536245    2.364826
    115          6           0      -23.880008    0.712233    1.599298
    116          6           0      -26.414639   -1.472414    3.085923
    117          6           0      -25.444404    1.887212    2.779169
    118          8           0      -26.407480    2.303110    3.413096
    119          6           0      -24.313606    2.909925    2.213595
    120          6           0      -24.951466    4.087268    1.566464
    121          8           0      -26.026075    4.050832    0.896520
    122          8           0      -24.283683    5.159044    1.971624
    123          6           0      -25.017553    6.401947    1.829142
    124          1           0      -18.963705    1.979736   -2.190885
    125          1           0      -20.267731   -4.188116   -2.558375
    126          1           0      -24.785566   -3.559741    1.801013
    127          1           0      -22.461591    4.406534    0.260150
    128          1           0      -19.583190    3.800640   -0.423126
    129          1           0      -21.445999    5.092500   -2.007336
    130          1           0      -21.172566    3.487126   -2.736974
    131          1           0      -19.816400    4.364466   -2.437873
    132          1           0      -20.282238    3.663116    2.211981
    133          1           0      -21.802179    4.399644    2.554047
    134          1           0      -20.829044    6.285859    0.809003
    135          1           0      -19.320660    5.707839    1.613519
    136          1           0      -17.583140    1.395341   -3.661046
    137          1           0      -17.587391    0.348988   -4.922361
    138          1           0      -16.501323    0.020559   -3.589086
    139          1           0      -17.090893   -1.865808   -5.603253
    140          1           0      -16.593478   -3.436269   -5.456965
    141          1           0      -16.122037   -2.376931   -4.118616
    142          1           0      -21.460464   -5.786219   -0.928301
    143          1           0      -24.039567   -5.372636    0.225739
    144          1           0      -23.088828   -4.868757   -3.056683
    145          1           0      -24.266221   -5.521197   -1.979126
    146          1           0      -22.941566   -6.497871   -2.594032
    147          1           0      -22.202294   -6.521398    1.362990
    148          1           0      -22.626695   -5.329078    2.579125
    149          1           0      -20.446991   -4.413555    0.849574
    150          1           0      -20.008569   -5.684205    2.054352
    151          1           0      -20.828938   -4.310330    2.626492
    152          1           0      -26.170997   -2.299729    3.752947
    153          1           0      -27.025681   -1.881078    2.281630
    154          1           0      -27.012227   -0.735515    3.621569
    155          1           0      -23.807871    3.254723    3.115139
    156          1           0      -24.888641    7.015859    2.721420
    157          1           0      -26.097114    6.314654    1.708905
    158          1           0      -24.572133    6.914050    0.975610
 ---------------------------------------------------------------------

 SCF Done:  E(RPBE1PBE) =  -4067.38587574     A.U. after   17 cycles

 Excitation energies and oscillator strengths:

 Excited State   1:      Singlet-A      1.8526 eV  669.23 nm  f=0.3706  <S**2>=0.000
     309 -> 316        0.15635
     311 -> 313        0.69620
     311 <- 313       -0.11163
 This state for optimization and/or second-order correction.
 Total Energy, E(TD-HF/TD-DFT) =  -4067.31779236
 Copying the excited state density for this state as the 1-particle RhoCI density.

 Excited State   2:      Singlet-A      1.8607 eV  666.31 nm  f=0.0000  <S**2>=0.000
     312 -> 313        0.70711

 Excited State   3:      Singlet-A      1.8744 eV  661.47 nm  f=0.3671  <S**2>=0.000
     310 -> 315        0.17474
     312 -> 314        0.69052

 Excited State   4:      Singlet-A      2.1542 eV  575.55 nm  f=0.0000  <S**2>=0.000
     311 -> 314        0.70711

 Excited State   5:      Singlet-A      2.2446 eV  552.36 nm  f=0.1080  <S**2>=0.000
     310 -> 314        0.65155
     312 -> 315       -0.26010

 The electronic state is 1-A.
 Alpha  occ. eigenvalues --  -46.92789 -46.91703 -19.27364 -19.25055 -19.20018
 Alpha  occ. eigenvalues --  -19.19797 -19.19549 -19.19437 -19.19128 -19.18936
 Alpha  occ. eigenvalues --  -14.42366 -14.41846 -14.41404 -14.41278 -14.39922
 Alpha  occ. eigenvalues --  -14.39264 -14.38700 -14.37897 -10.36343 -10.35378
 Alpha  occ. eigenvalues --  -10.33501 -10.33287 -10.32686 -10.32232 -10.29997
 Alpha  occ. eigenvalues --  -10.29624 -10.29360 -10.29299 -10.28892 -10.28753
 Alpha  occ. eigenvalues --  -10.28722 -10.28568 -10.28366 -10.28231 -10.28200
 Alpha  occ. eigenvalues --  -10.28056 -10.28002 -10.27885 -10.27407 -10.27086
 Alpha  occ. eigenvalues --  -10.26825 -10.26792 -10.26783 -10.26375 -10.26249
 Alpha  occ. eigenvalues --  -10.26242 -10.26199 -10.26170 -10.26116 -10.26016
 Alpha  occ. eigenvalues --  -10.25850 -10.25777 -10.25721 -10.25696 -10.25639
 Alpha  occ. eigenvalues --  -10.25584 -10.25502 -10.25415 -10.25385 -10.25322
 Alpha  occ. eigenvalues --  -10.25245 -10.25162 -10.25138 -10.25112 -10.25010
 Alpha  occ. eigenvalues --  -10.24713 -10.24545 -10.24430 -10.24243 -10.24238
 Alpha  occ. eigenvalues --  -10.24145 -10.24067 -10.23904 -10.23793 -10.23765
 Alpha  occ. eigenvalues --  -10.23714 -10.23673 -10.23267 -10.23232 -10.23162
 Alpha  occ. eigenvalues --  -10.23144 -10.22941 -10.22888 -10.22831 -10.22557
 Alpha  occ. eigenvalues --  -10.22315  -3.14761  -3.13812  -1.87610  -1.87105
 Alpha  occ. eigenvalues --   -1.86997  -1.86661  -1.86179  -1.86043  -1.12988
 Alpha  occ. eigenvalues --   -1.10706  -1.05980  -1.04380  -1.03767  -1.02866
 Alpha  occ. eigenvalues --   -1.02345  -1.00811  -0.99920  -0.98962  -0.98742
 Alpha  occ. eigenvalues --   -0.98123  -0.97241  -0.97043  -0.96682  -0.95688
 Alpha  occ. eigenvalues --   -0.86414  -0.86319  -0.83856  -0.83586  -0.83490
 Alpha  occ. eigenvalues --   -0.82708  -0.82621  -0.82252  -0.82169  -0.81469
 Alpha  occ. eigenvalues --   -0.81295  -0.81230  -0.80295  -0.80245  -0.79128
 Alpha  occ. eigenvalues --   -0.78653  -0.78109  -0.78023  -0.77193  -0.76835
 Alpha  occ. eigenvalues --   -0.76075  -0.75666  -0.75385  -0.75049  -0.74876
 Alpha  occ. eigenvalues --   -0.74207  -0.72958  -0.72527  -0.71972  -0.71698
 Alpha  occ. eigenvalues --   -0.71344  -0.70845  -0.70535  -0.70142  -0.69604
 Alpha  occ. eigenvalues --   -0.69121  -0.67297  -0.66841  -0.66171  -0.65784
 Alpha  occ. eigenvalues --   -0.64201  -0.63600  -0.63365  -0.63292  -0.62661
 Alpha  occ. eigenvalues --   -0.62276  -0.62027  -0.61568  -0.60097  -0.59899
 Alpha  occ. eigenvalues --   -0.59824  -0.59386  -0.59309  -0.59096  -0.59088
 Alpha  occ. eigenvalues --   -0.59006  -0.57383  -0.55835  -0.55430  -0.54449
 Alpha  occ. eigenvalues --   -0.54303  -0.53897  -0.53847  -0.53342  -0.53182
 Alpha  occ. eigenvalues --   -0.52652  -0.52440  -0.52168  -0.51904  -0.51829
 Alpha  occ. eigenvalues --   -0.50812  -0.50569  -0.50535  -0.50349  -0.50321
 Alpha  occ. eigenvalues --   -0.50039  -0.49957  -0.49419  -0.48954  -0.48916
 Alpha  occ. eigenvalues --   -0.48351  -0.48056  -0.47780  -0.47683  -0.47535
 Alpha  occ. eigenvalues --   -0.47319  -0.47260  -0.47203  -0.47090  -0.46815
 Alpha  occ. eigenvalues --   -0.46341  -0.46333  -0.46176  -0.46092  -0.45681
 Alpha  occ. eigenvalues --   -0.45631  -0.45410  -0.45259  -0.45250  -0.44898
 Alpha  occ. eigenvalues --   -0.44878  -0.44714  -0.44287  -0.44151  -0.44129
 Alpha  occ. eigenvalues --   -0.44026  -0.43718  -0.43540  -0.43299  -0.43278
 Alpha  occ. eigenvalues --   -0.43074  -0.42956  -0.42939  -0.42774  -0.42738
 Alpha  occ. eigenvalues --   -0.42721  -0.42436  -0.42030  -0.41984  -0.41675
 Alpha  occ. eigenvalues --   -0.41533  -0.41501  -0.41204  -0.41202  -0.41044
 Alpha  occ. eigenvalues --   -0.40947  -0.40884  -0.40763  -0.40678  -0.40326
 Alpha  occ. eigenvalues --   -0.40224  -0.40026  -0.39984  -0.39707  -0.39607
 Alpha  occ. eigenvalues --   -0.39419  -0.39230  -0.39228  -0.39072  -0.38935
 Alpha  occ. eigenvalues --   -0.38727  -0.38669  -0.38556  -0.38506  -0.38214
 Alpha  occ. eigenvalues --   -0.38196  -0.38058  -0.37987  -0.37591  -0.37577
 Alpha  occ. eigenvalues --   -0.37496  -0.37437  -0.37308  -0.37243  -0.37056
 Alpha  occ. eigenvalues --   -0.36947  -0.36490  -0.36368  -0.36275  -0.36177
 Alpha  occ. eigenvalues --   -0.36121  -0.35711  -0.35477  -0.35354  -0.35235
 Alpha  occ. eigenvalues --   -0.34955  -0.34643  -0.34553  -0.34402  -0.34216
 Alpha  occ. eigenvalues --   -0.33684  -0.33656  -0.32861  -0.32686  -0.32359
 Alpha  occ. eigenvalues --   -0.32284  -0.32010  -0.31974  -0.31654  -0.31372
 Alpha  occ. eigenvalues --   -0.31285  -0.31036  -0.29351  -0.29310  -0.29229
 Alpha  occ. eigenvalues --   -0.29018  -0.28751  -0.28269  -0.27394  -0.27172
 Alpha  occ. eigenvalues --   -0.26378  -0.26235  -0.25961  -0.25630  -0.25621
 Alpha  occ. eigenvalues --   -0.25272  -0.24712  -0.24437  -0.21015  -0.20976
 Alpha  occ. eigenvalues --   -0.19339  -0.18919
 Alpha virt. eigenvalues --   -0.11778  -0.11125  -0.05365  -0.04929  -0.04164
 Alpha virt. eigenvalues --   -0.04133  -0.02390  -0.02075  -0.01058  -0.00281
 Alpha virt. eigenvalues --    0.00082   0.00191   0.00512   0.01084   0.01436

 Mulliken charges:
               1
     1  Mg  12.000092
     2  C    5.999632
     3  C    6.000187
     4  C    6.000284
     5  C    5.999803
     6  N    6.999720
     7  C    6.000410
     8  C    5.999837
     9  C    6.000113
    10  C    5.999517
    11  C    6.000110
    12  C    5.999970
    13  C    5.999949
    14  H    1.000094
    15  N    7.000073
    16  C    5.999381
    17  C    5.999635
    18  C    5.999761
    19  C    5.999525
    20  C    6.000063
    21  C    5.999794
    22  O    7.999633
    23  C    6.000070
    24  N    7.000071
    25  C    5.999663
    26  C    6.000159
    27  C    5.999849
    28  C    6.000472
    29  C    6.000032
    30  C    5.999929
    31  C    5.999980
    32  N    7.000000
    33  C    6.000574
    34  C    6.000375
    35  C    6.000040
    36  C    6.000631
    37  C    5.999972
    38  C    6.000160
    39  O    8.000487
    40  C    6.000169
    41  C    5.999960
    42  O    8.000154
    43  O    8.000009
    44  C    5.999945
    45  H    0.999858
    46  H    0.999885
    47  H    1.000118
    48  H    1.000039
    49  H    0.999999
    50  H    0.999975
    51  H    0.999748
    52  H    0.999939
    53  H    1.000140
    54  H    0.999964
    55  H    0.999942
    56  H    1.000003
    57  H    0.999756
    58  H    0.999782
    59  H    0.999700
    60  H    0.999911
    61  H    0.999830
    62  H    0.999778
    63  H    0.999985
    64  H    0.999988
    65  H    0.999824
    66  H    1.000021
    67  H    1.000035
    68  H    1.000067
    69  H    1.000159
    70  H    0.999917
    71  H    1.000047
    72  H    1.000097
    73  H    1.000278
    74  H    1.000259
    75  H    1.000365
    76  H    1.000133
    77  H    1.000008
    78  H    1.000090
    79  H    1.000074
    80  Mg  12.005727
    81  C    5.977373
    82  C    6.001291
    83  C    6.022153
    84  C    6.000645
    85  N    6.981691
    86  C    6.035111
    87  C    5.991288
    88  C    6.008376
    89  C    5.967588
    90  C    6.001437
    91  C    5.997361
    92  C    6.002940
    93  H    0.997305
    94  N    7.005872
    95  C    5.965969
    96  C    5.981732
    97  C    5.981676
    98  C    5.971683
    99  C    6.004879
   100  C    5.989085
   101  O    7.966289
   102  C    6.005937
   103  N    7.007578
   104  C    5.972210
   105  C    6.004376
   106  C    5.988210
   107  C    6.028631
   108  C    6.001461
   109  C    5.990524
   110  C    5.997990
   111  N    6.997324
   112  C    6.029301
   113  C    6.031260
   114  C    5.998242
   115  C    6.034336
   116  C    5.999290
   117  C    6.013626
   118  O    8.024389
   119  C    6.005095
   120  C    6.005762
   121  O    8.001290
   122  O    8.002064
   123  C    5.998501
   124  H    0.989394
   125  H    0.997663
   126  H    1.013796
   127  H    0.998008
   128  H    0.997537
   129  H    0.985934
   130  H    1.000498
   131  H    1.001089
   132  H    1.005515
   133  H    0.993161
   134  H    1.002656
   135  H    1.005064
   136  H    0.984089
   137  H    0.982188
   138  H    0.982307
   139  H    0.992720
   140  H    0.985873
   141  H    0.991421
   142  H    1.002780
   143  H    1.002864
   144  H    1.006557
   145  H    0.990527
   146  H    1.000602
   147  H    1.011312
   148  H    0.998107
   149  H    1.014637
   150  H    1.005678
   151  H    0.995628
   152  H    1.019475
   153  H    1.019708
   154  H    1.014509
   155  H    1.004225
   156  H    1.002955
   157  H    1.000596
   158  H    1.006058
 Sum of Mulliken charges = 624.00000

 Dipole moment (field-independent basis, Debye):
    X=             -7.7324    Y=              0.1433    Z=              6.7595  Tot=             10.2714
 Quadrupole moment (field-independent basis, Debye-Ang):
   XX=            336.1013   YY=              2.5485   ZZ=             -7.5047
   XY=              3.3256   XZ=           -150.5834   YZ=             -6.2700

 Normal termination of Gaussian 16 at Fri Oct 15 12:54:52 2021.
