 Gaussian 16, Revision A.03,
 Gaussian 16:  ES64L-G16RevA.03 25-Dec-2016

 --------------------------------------------------------
 #p PBE1PBE/Def2SVP td=(nstates=5) density=(transition=1)
 --------------------------------------------------------

 --------------------------------
 TDDFT excited states in gaussian
 --------------------------------
 Symbolic Z-matrix:
 Charge =  0 Multiplicity = 1

                         Standard orientation:
 ---------------------------------------------------------------------
 Center     Atomic      Atomic             Coordinates (Angstroms)
 Number     Number       Type             X           Y           Z
 ---------------------------------------------------------------------
      1         12           0       -4.677964   -0.336574    0.885176
      2          6           0       -5.292295    2.792763   -0.249092
      3          6           0       -2.092746    0.885537    2.856935
      4          6           0       -4.059743   -3.467601    2.014752
      5          6           0       -6.910264   -1.615857   -1.430708
      6          7           0       -3.938267    1.593595    1.286235
      7          6           0       -4.290716    2.766196    0.701278
      8          6           0       -3.649900    3.956457    1.366135
      9          6           0       -2.441345    3.320515    2.152572
     10          6           0       -2.871730    1.817342    2.121018
     11          6           0       -0.949566    3.603292    1.694975
     12          6           0       -4.646937    4.673798    2.383530
     13          6           0       -4.283073    6.169198    2.620629
     14          1           0       -2.842864    6.688009    2.473048
     15          7           0       -3.214318   -1.238553    2.201440
     16          6           0       -2.236397   -0.504560    2.922634
     17          6           0       -1.475290   -1.400634    3.739986
     18          6           0       -2.023840   -2.710938    3.500929
     19          6           0       -3.162158   -2.477882    2.541855
     20          6           0       -0.413434   -0.982525    4.695694
     21          6           0       -1.608368   -4.054473    4.089722
     22          8           0       -2.063500   -5.184313    3.744614
     23          6           0       -0.544324   -4.095484    5.173386
     24          7           0       -5.321268   -2.264968    0.331503
     25          6           0       -5.068367   -3.416688    1.078333
     26          6           0       -6.000945   -4.618853    0.752194
     27          6           0       -6.948726   -3.903655   -0.364937
     28          6           0       -6.413850   -2.524862   -0.497362
     29          6           0       -5.152845   -5.779754    0.216955
     30          6           0       -8.417474   -3.974794   -0.067202
     31          6           0       -9.222869   -4.600225   -1.169985
     32          7           0       -5.778756    0.296902   -0.603901
     33          6           0       -6.683817   -0.290907   -1.478895
     34          6           0       -7.248947    0.690370   -2.328996
     35          6           0       -6.717070    1.949501   -1.941250
     36          6           0       -5.905386    1.687928   -0.817290
     37          6           0       -8.249301    0.526831   -3.408098
     38          6           0       -6.633967    3.352505   -2.283459
     39          8           0       -7.085895    4.050165   -3.170302
     40          6           0       -5.730452    3.942465   -1.099340
     41          6           0       -4.768749    4.969260   -1.578937
     42          8           0       -4.090857    4.911481   -2.572887
     43          8           0       -4.724499    6.060835   -0.799376
     44          6           0       -3.756282    7.100884   -1.249785
     45          1           0       -1.203071    1.341643    3.296427
     46          1           0       -3.761115   -4.481968    2.287089
     47          1           0       -7.708434   -1.921678   -2.110196
     48          1           0       -3.177404    4.628916    0.650337
     49          1           0       -2.527096    3.608967    3.199717
     50          1           0       -0.992823    4.338144    0.891010
     51          1           0       -0.351555    2.754402    1.367317
     52          1           0       -0.423965    3.979579    2.572820
     53          1           0       -4.589307    4.065563    3.286380
     54          1           0       -5.646898    4.605906    1.954903
     55          1           0       -4.630377    6.330064    3.641383
     56          1           0       -4.974681    6.748520    2.009509
     57          1           0       -0.760948   -0.628640    5.666363
     58          1           0        0.160461   -0.220292    4.170172
     59          1           0        0.372376   -1.727563    4.816697
     60          1           0        0.412234   -4.072206    4.651538
     61          1           0       -0.671540   -5.066364    5.651618
     62          1           0       -0.588009   -3.259262    5.871410
     63          1           0       -6.437491   -4.925491    1.702796
     64          1           0       -6.807657   -4.418906   -1.315650
     65          1           0       -4.106103   -5.551592    0.014939
     66          1           0       -5.675608   -6.240556   -0.620851
     67          1           0       -5.100695   -6.505325    1.029213
     68          1           0       -8.878680   -2.995313    0.059995
     69          1           0       -8.670662   -4.503360    0.851914
     70          1           0       -9.908583   -5.369516   -0.816047
     71          1           0       -8.580055   -5.070717   -1.913505
     72          1           0       -9.683049   -3.750911   -1.675816
     73          1           0       -8.227847   -0.424077   -3.941297
     74          1           0       -7.868054    1.175061   -4.197642
     75          1           0       -9.246957    0.746881   -3.027998
     76          1           0       -6.533108    4.466525   -0.579675
     77          1           0       -4.139027    7.681028   -2.090654
     78          1           0       -2.756225    6.691800   -1.394417
     79          1           0       -3.627204    7.816753   -0.437646
     80         12           0        4.077625   -0.790978   -0.969473
     81          6           0        6.821963    1.192514   -0.177142
     82          6           0        2.076865    1.984854   -0.783507
     83          6           0        1.390908   -2.836177   -1.430925
     84          6           0        6.304178   -3.559204   -0.856735
     85          7           0        4.402099    1.326062   -0.499137
     86          6           0        5.634200    1.901139   -0.331828
     87          6           0        5.395540    3.407909   -0.206623
     88          6           0        3.890733    3.579865   -0.100512
     89          6           0        3.419708    2.195006   -0.529783
     90          6           0        3.278785    4.048814    1.192195
     91          6           0        6.090249    4.312793   -1.332149
     92          6           0        5.678033    5.819956   -1.345863
     93          1           0        6.520084    6.826845   -0.519310
     94          7           0        2.051563   -0.426279   -1.231949
     95          6           0        1.418024    0.764494   -1.089706
     96          6           0        0.012683    0.507619   -1.268865
     97          6           0       -0.175889   -0.894138   -1.449774
     98          6           0        1.093900   -1.460502   -1.353770
     99          6           0       -0.974796    1.632754   -1.227196
    100          6           0       -1.540746   -1.635367   -1.551785
    101          8           0       -1.635915   -2.834221   -1.358754
    102          6           0       -2.810284   -0.958148   -1.760401
    103          7           0        3.912188   -2.774141   -1.114474
    104          6           0        2.705771   -3.431836   -1.352647
    105          6           0        2.883215   -4.952812   -1.502175
    106          6           0        4.441762   -5.080367   -1.596348
    107          6           0        4.914284   -3.690038   -1.204464
    108          6           0        2.122709   -5.802011   -0.569761
    109          6           0        5.115888   -5.636863   -2.969662
    110          6           0        5.987609   -6.896133   -2.955833
    111          7           0        6.195997   -1.169492   -0.532134
    112          6           0        6.902207   -2.339517   -0.520146
    113          6           0        8.271997   -2.111774   -0.203952
    114          6           0        8.324532   -0.667654   -0.125085
    115          6           0        6.999253   -0.164151   -0.248717
    116          6           0        9.300709   -3.175050   -0.131409
    117          6           0        9.230480    0.450804    0.001103
    118          8           0       10.439349    0.556407    0.068868
    119          6           0        8.229211    1.749563   -0.020966
    120          6           0        8.489142    2.657072    1.125622
    121          8           0        8.273998    2.360612    2.280418
    122          8           0        8.976247    3.849187    0.739058
    123          6           0        9.038659    4.942877    1.783138
    124          1           0        1.442357    2.873888   -0.778499
    125          1           0        0.512533   -3.469297   -1.571369
    126          1           0        6.820397   -4.520914   -0.894848
    127          1           0        5.889084    3.594572    0.747043
    128          1           0        3.565238    4.341975   -0.808126
    129          1           0        2.839090    3.108974    1.524647
    130          1           0        2.575630    4.869756    1.050998
    131          1           0        4.029946    4.290747    1.944384
    132          1           0        5.750494    3.822071   -2.244458
    133          1           0        7.173824    4.252334   -1.237691
    134          1           0        4.668864    5.964562   -0.962203
    135          1           0        5.670211    6.153033   -2.383688
    136          1           0       -0.594529    2.651362   -1.144089
    137          1           0       -1.546247    1.484270   -0.311553
    138          1           0       -1.704846    1.591238   -2.035772
    139          1           0       -3.071644   -0.089907   -1.156337
    140          1           0       -3.690409   -1.601040   -1.759383
    141          1           0       -2.737073   -0.665639   -2.807654
    142          1           0        2.464841   -5.044530   -2.504870
    143          1           0        4.611020   -5.706691   -0.720612
    144          1           0        1.361696   -6.452765   -1.001280
    145          1           0        1.632638   -5.141958    0.146442
    146          1           0        2.735760   -6.508535   -0.010355
    147          1           0        5.741578   -4.839147   -3.369536
    148          1           0        4.448442   -5.855317   -3.804129
    149          1           0        7.060528   -6.712734   -3.018997
    150          1           0        5.665816   -7.683505   -3.636855
    151          1           0        5.910930   -7.330327   -1.958895
    152          1           0        8.893010   -4.010974    0.436531
    153          1           0       10.246813   -2.818139    0.274648
    154          1           0        9.362206   -3.631712   -1.119748
    155          1           0        8.497355    2.302887   -0.920400
    156          1           0        9.770594    5.624677    1.350690
    157          1           0        9.368557    4.506068    2.725507
    158          1           0        8.053359    5.408740    1.804886
 ---------------------------------------------------------------------

 SCF Done:  E(RPBE1PBE) =  -4067.38439462     A.U. after   16 cycles

 Excitation energies and oscillator strengths:

 Excited State   1:      Singlet-A      1.5254 eV  812.79 nm  f=0.0001  <S**2>=0.000
     312 -> 313        0.70466
 This state for optimization and/or second-order correction.
 Total Energy, E(TD-HF/TD-DFT) =  -4067.32833639
 Copying the excited state density for this state as the 1-particle RhoCI density.

 Excited State   2:      Singlet-A      1.7072 eV  726.22 nm  f=0.0040  <S**2>=0.000
     311 -> 314        0.69839
     312 -> 314       -0.10012

 Excited State   3:      Singlet-A      1.7941 eV  691.05 nm  f=0.3982  <S**2>=0.000
     309 -> 315        0.14492
     311 -> 313        0.69174
     311 <- 313       -0.11590

 Excited State   4:      Singlet-A      1.8498 eV  670.25 nm  f=0.3696  <S**2>=0.000
     310 -> 316       -0.15583
     312 -> 314        0.68366
     312 <- 314       -0.10884

 Excited State   5:      Singlet-A      2.1791 eV  568.96 nm  f=0.0020  <S**2>=0.000
     310 -> 313        0.70077

 The electronic state is 1-A.
 Alpha  occ. eigenvalues --  -46.91211 -46.90824 -19.26203 -19.25112 -19.19712
 Alpha  occ. eigenvalues --  -19.19455 -19.18990 -19.18878 -19.18770 -19.18525
 Alpha  occ. eigenvalues --  -14.42623 -14.42142 -14.41529 -14.41439 -14.39268
 Alpha  occ. eigenvalues --  -14.38767 -14.38631 -14.38051 -10.36021 -10.34993
 Alpha  occ. eigenvalues --  -10.32557 -10.32377 -10.32314 -10.31770 -10.29708
 Alpha  occ. eigenvalues --  -10.29460 -10.29402 -10.29284 -10.28968 -10.28831
 Alpha  occ. eigenvalues --  -10.28803 -10.28634 -10.28352 -10.28108 -10.27855
 Alpha  occ. eigenvalues --  -10.27766 -10.27333 -10.27258 -10.27178 -10.27168
 Alpha  occ. eigenvalues --  -10.26966 -10.26766 -10.26650 -10.26463 -10.26445
 Alpha  occ. eigenvalues --  -10.26233 -10.25997 -10.25883 -10.25794 -10.25784
 Alpha  occ. eigenvalues --  -10.25766 -10.25736 -10.25703 -10.25671 -10.25667
 Alpha  occ. eigenvalues --  -10.25413 -10.25385 -10.25331 -10.25308 -10.25287
 Alpha  occ. eigenvalues --  -10.25152 -10.24900 -10.24887 -10.24821 -10.24727
 Alpha  occ. eigenvalues --  -10.24686 -10.24619 -10.24542 -10.24497 -10.24436
 Alpha  occ. eigenvalues --  -10.24401 -10.23878 -10.23679 -10.23642 -10.23503
 Alpha  occ. eigenvalues --  -10.23500 -10.23371 -10.23299 -10.23076 -10.22995
 Alpha  occ. eigenvalues --  -10.22970 -10.22938 -10.22893 -10.22791 -10.22754
 Alpha  occ. eigenvalues --  -10.22636  -3.13450  -3.13260  -1.86309  -1.86105
 Alpha  occ. eigenvalues --   -1.85827  -1.85674  -1.85611  -1.85526  -1.12519
 Alpha  occ. eigenvalues --   -1.10661  -1.05333  -1.05163  -1.04234  -1.02531
 Alpha  occ. eigenvalues --   -1.02119  -1.01600  -0.99845  -0.99414  -0.98743
 Alpha  occ. eigenvalues --   -0.98388  -0.97862  -0.97603  -0.96897  -0.96212
 Alpha  occ. eigenvalues --   -0.88035  -0.86764  -0.84113  -0.83570  -0.83283
 Alpha  occ. eigenvalues --   -0.83127  -0.82903  -0.82579  -0.82197  -0.81813
 Alpha  occ. eigenvalues --   -0.81713  -0.81135  -0.80931  -0.80751  -0.78845
 Alpha  occ. eigenvalues --   -0.78804  -0.78286  -0.77933  -0.77014  -0.76758
 Alpha  occ. eigenvalues --   -0.76395  -0.76087  -0.75661  -0.75624  -0.75059
 Alpha  occ. eigenvalues --   -0.74870  -0.72971  -0.72691  -0.72233  -0.72031
 Alpha  occ. eigenvalues --   -0.71892  -0.71581  -0.71145  -0.70196  -0.69747
 Alpha  occ. eigenvalues --   -0.69423  -0.67559  -0.67141  -0.66475  -0.66235
 Alpha  occ. eigenvalues --   -0.63728  -0.63663  -0.63196  -0.63139  -0.62851
 Alpha  occ. eigenvalues --   -0.62658  -0.61270  -0.61150  -0.60492  -0.60043
 Alpha  occ. eigenvalues --   -0.59990  -0.59808  -0.59514  -0.59122  -0.58918
 Alpha  occ. eigenvalues --   -0.58696  -0.57230  -0.56023  -0.54987  -0.54962
 Alpha  occ. eigenvalues --   -0.54707  -0.54270  -0.53778  -0.53523  -0.53390
 Alpha  occ. eigenvalues --   -0.53183  -0.52822  -0.52538  -0.52470  -0.51680
 Alpha  occ. eigenvalues --   -0.50978  -0.50841  -0.50253  -0.50147  -0.49997
 Alpha  occ. eigenvalues --   -0.49803  -0.49726  -0.49329  -0.49064  -0.48708
 Alpha  occ. eigenvalues --   -0.48395  -0.48335  -0.47867  -0.47759  -0.47640
 Alpha  occ. eigenvalues --   -0.47376  -0.47236  -0.47096  -0.46953  -0.46811
 Alpha  occ. eigenvalues --   -0.46790  -0.46690  -0.46663  -0.46105  -0.45921
 Alpha  occ. eigenvalues --   -0.45900  -0.45594  -0.45393  -0.45069  -0.44983
 Alpha  occ. eigenvalues --   -0.44826  -0.44734  -0.44478  -0.44453  -0.44384
 Alpha  occ. eigenvalues --   -0.44042  -0.43965  -0.43821  -0.43686  -0.43632
 Alpha  occ. eigenvalues --   -0.43576  -0.43215  -0.43196  -0.43053  -0.42799
 Alpha  occ. eigenvalues --   -0.42626  -0.42448  -0.42253  -0.42194  -0.42034
 Alpha  occ. eigenvalues --   -0.41923  -0.41786  -0.41662  -0.41540  -0.41404
 Alpha  occ. eigenvalues --   -0.41242  -0.41211  -0.41117  -0.40984  -0.40869
 Alpha  occ. eigenvalues --   -0.40612  -0.40214  -0.39905  -0.39850  -0.39814
 Alpha  occ. eigenvalues --   -0.39626  -0.39547  -0.39478  -0.39187  -0.39126
 Alpha  occ. eigenvalues --   -0.38970  -0.38911  -0.38722  -0.38624  -0.38474
 Alpha  occ. eigenvalues --   -0.38298  -0.38152  -0.37729  -0.37667  -0.37518
 Alpha  occ. eigenvalues --   -0.37473  -0.37239  -0.37187  -0.36888  -0.36576
 Alpha  occ. eigenvalues --   -0.36505  -0.36493  -0.36344  -0.36167  -0.35980
 Alpha  occ. eigenvalues --   -0.35861  -0.35735  -0.35591  -0.35419  -0.35363
 Alpha  occ. eigenvalues --   -0.35328  -0.35003  -0.34991  -0.34474  -0.34101
 Alpha  occ. eigenvalues --   -0.33703  -0.33523  -0.33169  -0.32857  -0.32763
 Alpha  occ. eigenvalues --   -0.32446  -0.32280  -0.32215  -0.31960  -0.31839
 Alpha  occ. eigenvalues --   -0.31311  -0.31043  -0.30017  -0.29619  -0.29416
 Alpha  occ. eigenvalues --   -0.29203  -0.28824  -0.27908  -0.27222  -0.26546
 Alpha  occ. eigenvalues --   -0.26149  -0.25895  -0.25649  -0.25480  -0.25320
 Alpha  occ. eigenvalues --   -0.25238  -0.25052  -0.24622  -0.21374  -0.21075
 Alpha  occ. eigenvalues --   -0.18930  -0.18684
 Alpha virt. eigenvalues --   -0.11609  -0.11134  -0.05435  -0.05291  -0.04225
 Alpha virt. eigenvalues --   -0.03487  -0.02366  -0.01586  -0.00141   0.00524
 Alpha virt. eigenvalues --    0.00553   0.00789   0.00803   0.01074   0.01273

 Mulliken charges:
               1
     1  Mg  12.000084
     2  C    6.000439
     3  C    6.000070
     4  C    6.000218
     5  C    5.999612
     6  N    7.001375
     7  C    6.000145
     8  C    5.999908
     9  C    5.999617
    10  C    5.999744
    11  C    6.000210
    12  C    5.999950
    13  C    5.999948
    14  H    1.000188
    15  N    6.999977
    16  C    5.998913
    17  C    5.999609
    18  C    5.999519
    19  C    5.999352
    20  C    6.000137
    21  C    5.999638
    22  O    7.999065
    23  C    6.000155
    24  N    6.999967
    25  C    5.999391
    26  C    6.000200
    27  C    5.999719
    28  C    6.000605
    29  C    6.000064
    30  C    5.999965
    31  C    6.000017
    32  N    6.999994
    33  C    6.000606
    34  C    6.000379
    35  C    6.000366
    36  C    6.000098
    37  C    5.999950
    38  C    6.000482
    39  O    8.000677
    40  C    5.999899
    41  C    6.000063
    42  O    8.000168
    43  O    8.000044
    44  C    5.999945
    45  H    0.999746
    46  H    0.999836
    47  H    1.000089
    48  H    1.000073
    49  H    1.000112
    50  H    0.999773
    51  H    0.999494
    52  H    1.000173
    53  H    1.000291
    54  H    0.999845
    55  H    1.000122
    56  H    0.999948
    57  H    0.999553
    58  H    0.999609
    59  H    0.999662
    60  H    0.999688
    61  H    0.999619
    62  H    0.999778
    63  H    1.000018
    64  H    1.000027
    65  H    0.999995
    66  H    0.999751
    67  H    1.000051
    68  H    0.999912
    69  H    1.000177
    70  H    1.000074
    71  H    1.000045
    72  H    0.999886
    73  H    1.000332
    74  H    1.000178
    75  H    1.000314
    76  H    1.000237
    77  H    1.000065
    78  H    1.000139
    79  H    1.000136
    80  Mg  12.000120
    81  C    6.000050
    82  C    6.000285
    83  C    5.999986
    84  C    5.999923
    85  N    7.000047
    86  C    5.999946
    87  C    6.000040
    88  C    6.000045
    89  C    5.999911
    90  C    5.999774
    91  C    5.999980
    92  C    6.000021
    93  H    0.999982
    94  N    6.999895
    95  C    6.000082
    96  C    5.999682
    97  C    5.999773
    98  C    6.000262
    99  C    6.000245
   100  C    6.000399
   101  O    8.000560
   102  C    5.999992
   103  N    7.000025
   104  C    6.000266
   105  C    5.999907
   106  C    5.999945
   107  C    6.000102
   108  C    6.000033
   109  C    5.999994
   110  C    5.999990
   111  N    6.999996
   112  C    6.000039
   113  C    6.000021
   114  C    6.000030
   115  C    5.999978
   116  C    5.999988
   117  C    6.000060
   118  O    7.999996
   119  C    5.999985
   120  C    6.000012
   121  O    8.000033
   122  O    7.999992
   123  C    5.999999
   124  H    0.999975
   125  H    1.000047
   126  H    0.999997
   127  H    0.999972
   128  H    0.999928
   129  H    1.000193
   130  H    1.000093
   131  H    1.000053
   132  H    0.999976
   133  H    0.999976
   134  H    0.999980
   135  H    0.999970
   136  H    0.999804
   137  H    1.000215
   138  H    0.999227
   139  H    0.999797
   140  H    0.999982
   141  H    0.999968
   142  H    0.999994
   143  H    1.000079
   144  H    1.000011
   145  H    1.000063
   146  H    1.000050
   147  H    0.999993
   148  H    0.999986
   149  H    1.000001
   150  H    1.000000
   151  H    1.000033
   152  H    1.000029
   153  H    1.000001
   154  H    0.999993
   155  H    0.999995
   156  H    0.999992
   157  H    1.000011
   158  H    1.000007
 Sum of Mulliken charges = 624.00000

 Dipole moment (field-independent basis, Debye):
    X=             -0.1085    Y=              0.1178    Z=             -0.1559  Tot=              0.2235
 Quadrupole moment (field-independent basis, Debye-Ang):
   XX=              1.0987   YY=              0.0076   ZZ=             -0.3352
   XY=             -0.5391   XZ=              0.4846   YZ=              0.2502

 Normal termination of Gaussian 16 at Fri Oct 15 03:07:24 2021.
