 Gaussian 16, Revision A.03,
 Gaussian 16:  ES64L-G16RevA.03 25-Dec-2016

 --------------------------------------------------------
 #p PBE1PBE/Def2SVP td=(nstates=5) density=(transition=1)
 --------------------------------------------------------

 --------------------------------
 TDDFT excited states in gaussian
 --------------------------------
 Symbolic Z-matrix:
 Charge =  0 Multiplicity = 1

                         Standard orientation:
 ---------------------------------------------------------------------
 Center     Atomic      Atomic             Coordinates (Angstroms)
 Number     Number       Type             X           Y           Z
 ---------------------------------------------------------------------
      1         12           0       26.907813   -0.725460    0.181510
      2          6           0       27.803811    2.239052   -1.528696
      3          6           0       24.303022    0.989842    1.659507
      4          6           0       26.250997   -3.491563    2.025118
      5          6           0       29.691599   -2.364750   -1.179619
      6          7           0       26.288493    1.398226    0.089778
      7          6           0       26.648207    2.379681   -0.830762
      8          6           0       25.733409    3.664823   -0.693037
      9          6           0       24.837743    3.288763    0.517284
     10          6           0       25.176864    1.815324    0.835679
     11          6           0       24.934382    4.174194    1.815670
     12          6           0       25.021330    4.175408   -2.012108
     13          6           0       25.371753    5.572322   -2.427078
     14          1           0       24.199418    6.423895   -3.057114
     15          7           0       25.498955   -1.124499    1.604493
     16          6           0       24.457528   -0.336191    2.050302
     17          6           0       23.707898   -1.055491    3.068320
     18          6           0       24.233491   -2.370700    3.212450
     19          6           0       25.381582   -2.395684    2.233177
     20          6           0       22.430508   -0.515394    3.742292
     21          6           0       23.764003   -3.526770    4.089710
     22          8           0       24.248638   -4.639211    4.058425
     23          6           0       22.521932   -3.454064    5.069484
     24          7           0       27.914412   -2.644422    0.460570
     25          6           0       27.443574   -3.591502    1.261341
     26          6           0       28.319773   -4.893807    1.212456
     27          6           0       29.316696   -4.586847    0.025800
     28          6           0       28.951611   -3.104629   -0.288886
     29          6           0       28.928383   -5.239740    2.602194
     30          6           0       29.163610   -5.569049   -1.118654
     31          6           0       30.487561   -6.031727   -1.724302
     32          7           0       28.559147   -0.228425   -0.986979
     33          6           0       29.556378   -1.005749   -1.544162
     34          6           0       30.417758   -0.130899   -2.278444
     35          6           0       29.779541    1.131891   -2.354382
     36          6           0       28.620051    1.050533   -1.533811
     37          6           0       31.695505   -0.508311   -2.926753
     38          6           0       29.833754    2.464019   -2.981433
     39          8           0       30.686846    3.034288   -3.655173
     40          6           0       28.409604    3.244370   -2.431429
     41          6           0       28.754780    4.460095   -1.763028
     42          8           0       28.738026    4.615293   -0.561195
     43          8           0       28.979087    5.470424   -2.670713
     44          6           0       29.396525    6.739075   -2.023434
     45          1           0       23.397230    1.455233    2.054204
     46          1           0       26.115597   -4.391394    2.627931
     47          1           0       30.480902   -2.974496   -1.625676
     48          1           0       26.396901    4.416311   -0.266441
     49          1           0       23.784712    3.306100    0.236191
     50          1           0       23.916265    4.289192    2.188886
     51          1           0       25.385728    5.129300    1.548166
     52          1           0       25.537121    3.738974    2.613030
     53          1           0       23.952088    4.057136   -1.835965
     54          1           0       25.350021    3.519538   -2.818450
     55          1           0       26.159550    5.544647   -3.181026
     56          1           0       25.748974    6.020988   -1.508542
     57          1           0       21.629248   -1.159012    3.380934
     58          1           0       22.197103    0.464187    3.324432
     59          1           0       22.420662   -0.540111    4.832676
     60          1           0       21.648943   -3.167568    4.482053
     61          1           0       22.743918   -2.922411    5.995250
     62          1           0       22.465936   -4.450285    5.507221
     63          1           0       27.765910   -5.778670    0.899484
     64          1           0       30.312816   -4.587331    0.468786
     65          1           0       29.999334   -5.401096    2.475947
     66          1           0       28.429175   -6.072443    3.098316
     67          1           0       28.799000   -4.395578    3.277523
     68          1           0       28.536225   -5.175099   -1.917540
     69          1           0       28.605955   -6.471310   -0.862804
     70          1           0       31.325081   -5.444009   -1.348330
     71          1           0       30.408061   -5.856251   -2.797511
     72          1           0       30.637324   -7.107134   -1.627244
     73          1           0       32.024585   -1.542170   -2.822609
     74          1           0       32.401422    0.287805   -2.687094
     75          1           0       31.421952   -0.556077   -3.981059
     76          1           0       27.773549    3.464435   -3.289286
     77          1           0       30.317673    6.581909   -1.461852
     78          1           0       28.541989    7.070067   -1.433310
     79          1           0       29.635257    7.523188   -2.740897
     80         12           0      -27.929309    0.335556   -0.525756
     81          6           0      -24.622901    0.356202    0.813248
     82          6           0      -26.889898   -2.112369   -2.510517
     83          6           0      -31.157078   -0.462571   -1.130737
     84          6           0      -28.832167    2.222513    2.359455
     85          7           0      -26.023295   -0.628883   -0.884383
     86          6           0      -24.757248   -0.422448   -0.294873
     87          6           0      -23.644754   -1.339743   -0.893435
     88          6           0      -24.433557   -2.081265   -2.009651
     89          6           0      -25.864484   -1.520061   -1.870146
     90          6           0      -23.707681   -1.818548   -3.339614
     91          6           0      -22.908825   -2.346192    0.092623
     92          6           0      -21.426367   -2.097471    0.345562
     93          1           0      -20.451697   -3.256219    0.051975
     94          7           0      -28.898998   -0.986424   -1.699753
     95          6           0      -28.255495   -1.956039   -2.468526
     96          6           0      -29.181312   -2.636561   -3.280561
     97          6           0      -30.434253   -2.102820   -3.041679
     98          6           0      -30.248356   -1.172454   -1.946585
     99          6           0      -28.919112   -3.778120   -4.331740
    100          6           0      -31.669065   -2.528092   -3.801070
    101          8           0      -31.659115   -3.264890   -4.741912
    102          6           0      -33.035407   -1.807509   -3.356597
    103          7           0      -29.744009    0.743409    0.502175
    104          6           0      -30.948516    0.322246    0.008366
    105          6           0      -32.049639    0.726524    1.072035
    106          6           0      -31.381627    1.663534    2.092130
    107          6           0      -29.874201    1.535971    1.649421
    108          6           0      -33.347565    1.207116    0.487735
    109          6           0      -31.545711    1.088482    3.493502
    110          6           0      -31.447077    2.047837    4.649743
    111          7           0      -26.916536    1.354203    1.117060
    112          6           0      -27.417803    2.085699    2.167231
    113          6           0      -26.358604    2.593438    2.961211
    114          6           0      -25.166680    2.018328    2.460429
    115          6           0      -25.611294    1.175083    1.403246
    116          6           0      -26.463548    3.416045    4.182300
    117          6           0      -23.711059    1.848638    2.564267
    118          8           0      -22.920670    2.414556    3.331432
    119          6           0      -23.273555    0.782531    1.487858
    120          6           0      -22.503685    1.435649    0.462966
    121          8           0      -23.054971    2.159774   -0.399415
    122          8           0      -21.207587    1.142450    0.686580
    123          6           0      -20.202137    1.530221   -0.340416
    124          1           0      -26.574111   -2.894086   -3.205029
    125          1           0      -32.189804   -0.694567   -1.399702
    126          1           0      -29.037020    2.903768    3.187541
    127          1           0      -22.869601   -0.725527   -1.351564
    128          1           0      -24.505718   -3.156767   -1.850692
    129          1           0      -24.353302   -2.200107   -4.130089
    130          1           0      -22.729320   -2.286240   -3.449139
    131          1           0      -23.542447   -0.755670   -3.519477
    132          1           0      -22.914676   -3.291220   -0.450547
    133          1           0      -23.468401   -2.434135    1.023944
    134          1           0      -21.323769   -1.789382    1.386633
    135          1           0      -21.086998   -1.281681   -0.293704
    136          1           0      -29.588811   -4.591820   -4.052611
    137          1           0      -27.888602   -4.131691   -4.301774
    138          1           0      -29.012122   -3.491074   -5.379112
    139          1           0      -33.786525   -2.138245   -4.073287
    140          1           0      -32.781384   -0.748836   -3.414478
    141          1           0      -33.161546   -2.176925   -2.338938
    142          1           0      -32.280320   -0.221393    1.559461
    143          1           0      -31.724965    2.697860    2.109257
    144          1           0      -33.797359    1.910698    1.187745
    145          1           0      -33.961513    0.316158    0.354471
    146          1           0      -33.266301    1.610628   -0.520885
    147          1           0      -30.858030    0.268628    3.702965
    148          1           0      -32.491863    0.560684    3.613020
    149          1           0      -31.461241    3.091946    4.337645
    150          1           0      -30.507751    1.849138    5.166173
    151          1           0      -32.181926    1.804221    5.416980
    152          1           0      -27.362888    4.032701    4.176976
    153          1           0      -25.571654    4.043094    4.187355
    154          1           0      -26.530849    2.703734    5.004924
    155          1           0      -22.799687   -0.110425    1.895535
    156          1           0      -19.349129    1.747926    0.303951
    157          1           0      -20.509688    2.364583   -0.970088
    158          1           0      -19.842895    0.662945   -0.895409
 ---------------------------------------------------------------------

 SCF Done:  E(RPBE1PBE) =  -4067.37464180     A.U. after   16 cycles

 Excitation energies and oscillator strengths:

 Excited State   1:      Singlet-A      1.8689 eV  663.42 nm  f=0.3679  <S**2>=0.000
     309 -> 316        0.16684
     311 -> 313        0.69378
     311 <- 313       -0.10948
 This state for optimization and/or second-order correction.
 Total Energy, E(TD-HF/TD-DFT) =  -4067.30596203
 Copying the excited state density for this state as the 1-particle RhoCI density.

 Excited State   2:      Singlet-A      1.8743 eV  661.48 nm  f=0.3630  <S**2>=0.000
     310 -> 315       -0.17468
     312 -> 314        0.69020

 Excited State   3:      Singlet-A      2.0120 eV  616.21 nm  f=0.0000  <S**2>=0.000
     312 -> 313        0.70711

 Excited State   4:      Singlet-A      2.0558 eV  603.08 nm  f=0.0000  <S**2>=0.000
     311 -> 314        0.70711

 Excited State   5:      Singlet-A      2.2446 eV  552.37 nm  f=0.1093  <S**2>=0.000
     310 -> 314        0.65161
     312 -> 315        0.25998

 The electronic state is 1-A.
 Alpha  occ. eigenvalues --  -46.91961 -46.91671 -19.27184 -19.25024 -19.19986
 Alpha  occ. eigenvalues --  -19.19956 -19.19766 -19.19746 -19.19518 -19.19164
 Alpha  occ. eigenvalues --  -14.41988 -14.41814 -14.41794 -14.41247 -14.39891
 Alpha  occ. eigenvalues --  -14.39114 -14.38669 -14.38266 -10.36532 -10.35346
 Alpha  occ. eigenvalues --  -10.33469 -10.33257 -10.32723 -10.32526 -10.30092
 Alpha  occ. eigenvalues --  -10.29965 -10.29500 -10.29329 -10.29266 -10.28722
 Alpha  occ. eigenvalues --  -10.28537 -10.28521 -10.28463 -10.28335 -10.28200
 Alpha  occ. eigenvalues --  -10.27994 -10.27854 -10.27376 -10.27058 -10.26794
 Alpha  occ. eigenvalues --  -10.26751 -10.26703 -10.26544 -10.26208 -10.26197
 Alpha  occ. eigenvalues --  -10.26168 -10.25950 -10.25886 -10.25745 -10.25688
 Alpha  occ. eigenvalues --  -10.25684 -10.25667 -10.25647 -10.25470 -10.25413
 Alpha  occ. eigenvalues --  -10.25384 -10.25354 -10.25292 -10.25131 -10.25107
 Alpha  occ. eigenvalues --  -10.25092 -10.25080 -10.25059 -10.25052 -10.24751
 Alpha  occ. eigenvalues --  -10.24564 -10.24396 -10.24367 -10.24114 -10.24036
 Alpha  occ. eigenvalues --  -10.23865 -10.23764 -10.23682 -10.23642 -10.23607
 Alpha  occ. eigenvalues --  -10.23575 -10.23462 -10.23456 -10.23284 -10.23238
 Alpha  occ. eigenvalues --  -10.23113 -10.23055 -10.22910 -10.22854 -10.22800
 Alpha  occ. eigenvalues --  -10.22669  -3.14133  -3.13781  -1.86949  -1.86629
 Alpha  occ. eigenvalues --   -1.86487  -1.86382  -1.86148  -1.86011  -1.11445
 Alpha  occ. eigenvalues --   -1.10675  -1.06624  -1.05950  -1.04348  -1.03569
 Alpha  occ. eigenvalues --   -1.02314  -1.02222  -0.98710  -0.98699  -0.97891
 Alpha  occ. eigenvalues --   -0.97503  -0.97011  -0.96651  -0.96399  -0.95657
 Alpha  occ. eigenvalues --   -0.86651  -0.86382  -0.83990  -0.83589  -0.83459
 Alpha  occ. eigenvalues --   -0.82995  -0.82675  -0.82221  -0.81665  -0.81263
 Alpha  occ. eigenvalues --   -0.81199  -0.81045  -0.80851  -0.80263  -0.79072
 Alpha  occ. eigenvalues --   -0.78621  -0.78595  -0.77992  -0.77553  -0.76804
 Alpha  occ. eigenvalues --   -0.76179  -0.75520  -0.75353  -0.75017  -0.74535
 Alpha  occ. eigenvalues --   -0.74177  -0.72496  -0.72111  -0.71673  -0.71313
 Alpha  occ. eigenvalues --   -0.70930  -0.70813  -0.70591  -0.70111  -0.69460
 Alpha  occ. eigenvalues --   -0.69090  -0.67283  -0.66809  -0.66191  -0.65753
 Alpha  occ. eigenvalues --   -0.63566  -0.63334  -0.63261  -0.63049  -0.62244
 Alpha  occ. eigenvalues --   -0.61996  -0.61643  -0.61535  -0.60094  -0.60066
 Alpha  occ. eigenvalues --   -0.60020  -0.59538  -0.59354  -0.59173  -0.59064
 Alpha  occ. eigenvalues --   -0.58974  -0.56872  -0.55803  -0.54668  -0.54418
 Alpha  occ. eigenvalues --   -0.54246  -0.53928  -0.53816  -0.53310  -0.53050
 Alpha  occ. eigenvalues --   -0.52846  -0.52621  -0.52409  -0.51846  -0.51798
 Alpha  occ. eigenvalues --   -0.50959  -0.50584  -0.50504  -0.50290  -0.49599
 Alpha  occ. eigenvalues --   -0.49388  -0.49306  -0.48913  -0.48884  -0.48456
 Alpha  occ. eigenvalues --   -0.48320  -0.47777  -0.47748  -0.47652  -0.47464
 Alpha  occ. eigenvalues --   -0.47229  -0.47172  -0.46955  -0.46783  -0.46764
 Alpha  occ. eigenvalues --   -0.46308  -0.46270  -0.46128  -0.46061  -0.45863
 Alpha  occ. eigenvalues --   -0.45650  -0.45378  -0.45228  -0.45201  -0.45064
 Alpha  occ. eigenvalues --   -0.44867  -0.44836  -0.44510  -0.44373  -0.44256
 Alpha  occ. eigenvalues --   -0.44119  -0.43995  -0.43776  -0.43591  -0.43268
 Alpha  occ. eigenvalues --   -0.43087  -0.42964  -0.42925  -0.42743  -0.42714
 Alpha  occ. eigenvalues --   -0.42690  -0.42404  -0.42226  -0.42020  -0.41953
 Alpha  occ. eigenvalues --   -0.41684  -0.41470  -0.41170  -0.41140  -0.41025
 Alpha  occ. eigenvalues --   -0.40915  -0.40853  -0.40800  -0.40334  -0.40295
 Alpha  occ. eigenvalues --   -0.40063  -0.39953  -0.39927  -0.39675  -0.39587
 Alpha  occ. eigenvalues --   -0.39520  -0.39388  -0.39198  -0.39122  -0.38903
 Alpha  occ. eigenvalues --   -0.38902  -0.38695  -0.38474  -0.38409  -0.38335
 Alpha  occ. eigenvalues --   -0.38184  -0.38140  -0.37955  -0.37919  -0.37684
 Alpha  occ. eigenvalues --   -0.37546  -0.37406  -0.37393  -0.37212  -0.37182
 Alpha  occ. eigenvalues --   -0.36915  -0.36834  -0.36609  -0.36545  -0.36337
 Alpha  occ. eigenvalues --   -0.36090  -0.35550  -0.35445  -0.35212  -0.35205
 Alpha  occ. eigenvalues --   -0.35112  -0.34923  -0.34612  -0.34370  -0.34098
 Alpha  occ. eigenvalues --   -0.33653  -0.33407  -0.33188  -0.32654  -0.32639
 Alpha  occ. eigenvalues --   -0.32252  -0.32225  -0.31942  -0.31788  -0.31254
 Alpha  occ. eigenvalues --   -0.31084  -0.31003  -0.29437  -0.29320  -0.29129
 Alpha  occ. eigenvalues --   -0.28987  -0.28719  -0.28603  -0.27408  -0.27141
 Alpha  occ. eigenvalues --   -0.26203  -0.26169  -0.25931  -0.25795  -0.25590
 Alpha  occ. eigenvalues --   -0.25534  -0.24769  -0.24681  -0.21189  -0.20945
 Alpha  occ. eigenvalues --   -0.18893  -0.18887
 Alpha virt. eigenvalues --   -0.11254  -0.11094  -0.05334  -0.05268  -0.04133
 Alpha virt. eigenvalues --   -0.03734  -0.02359  -0.01699  -0.00537  -0.00014
 Alpha virt. eigenvalues --    0.00114   0.00223   0.00541   0.01117   0.01369

 Mulliken charges:
               1
     1  Mg  12.000161
     2  C    5.999407
     3  C    6.000289
     4  C    6.000535
     5  C    5.999612
     6  N    6.999538
     7  C    6.000910
     8  C    5.999606
     9  C    6.000294
    10  C    5.998930
    11  C    6.000173
    12  C    5.999961
    13  C    5.999922
    14  H    1.000175
    15  N    7.000250
    16  C    5.998870
    17  C    5.999358
    18  C    5.999367
    19  C    5.999088
    20  C    6.000043
    21  C    5.999731
    22  O    7.999117
    23  C    6.000097
    24  N    7.000048
    25  C    5.999046
    26  C    6.000276
    27  C    5.999651
    28  C    6.000974
    29  C    6.000061
    30  C    5.999860
    31  C    5.999979
    32  N    6.999983
    33  C    6.001205
    34  C    6.000908
    35  C    6.000080
    36  C    6.001007
    37  C    5.999932
    38  C    6.000509
    39  O    8.000858
    40  C    6.000317
    41  C    6.000008
    42  O    8.000357
    43  O    8.000006
    44  C    5.999938
    45  H    0.999605
    46  H    0.999847
    47  H    1.000345
    48  H    1.000110
    49  H    0.999933
    50  H    0.999968
    51  H    0.999511
    52  H    0.999968
    53  H    1.000262
    54  H    0.999846
    55  H    0.999849
    56  H    1.000061
    57  H    0.999442
    58  H    0.999469
    59  H    0.999411
    60  H    0.999802
    61  H    0.999676
    62  H    0.999585
    63  H    1.000002
    64  H    1.000074
    65  H    0.999698
    66  H    1.000074
    67  H    1.000100
    68  H    1.000027
    69  H    1.000350
    70  H    0.999910
    71  H    0.999960
    72  H    1.000192
    73  H    1.000635
    74  H    1.000568
    75  H    1.000682
    76  H    1.000235
    77  H    1.000039
    78  H    1.000191
    79  H    1.000133
    80  Mg  12.000069
    81  C    5.979737
    82  C    6.001873
    83  C    6.019073
    84  C    5.993928
    85  N    6.984300
    86  C    6.028045
    87  C    5.988243
    88  C    6.013970
    89  C    5.970124
    90  C    6.002560
    91  C    5.997744
    92  C    5.997754
    93  H    1.006454
    94  N    7.002615
    95  C    5.967311
    96  C    5.977203
    97  C    5.990099
    98  C    5.967346
    99  C    6.001882
   100  C    5.991828
   101  O    7.983277
   102  C    5.996237
   103  N    7.004599
   104  C    5.973208
   105  C    6.002803
   106  C    5.993547
   107  C    6.031150
   108  C    6.000452
   109  C    5.992569
   110  C    5.999539
   111  N    7.001918
   112  C    6.031599
   113  C    6.028765
   114  C    6.003998
   115  C    6.029261
   116  C    5.998767
   117  C    6.017742
   118  O    8.029220
   119  C    6.002092
   120  C    6.002184
   121  O    8.005527
   122  O    8.001180
   123  C    5.998426
   124  H    0.986667
   125  H    0.994143
   126  H    1.009083
   127  H    1.000958
   128  H    0.997547
   129  H    1.005390
   130  H    0.988814
   131  H    0.990228
   132  H    1.008445
   133  H    0.998000
   134  H    0.995188
   135  H    0.998978
   136  H    0.985363
   137  H    0.983647
   138  H    0.982305
   139  H    0.988835
   140  H    0.993055
   141  H    0.992231
   142  H    1.000430
   143  H    1.003134
   144  H    0.992049
   145  H    1.004458
   146  H    1.002333
   147  H    1.002271
   148  H    1.012169
   149  H    0.999994
   150  H    0.994848
   151  H    1.005563
   152  H    1.016854
   153  H    1.014067
   154  H    1.020595
   155  H    1.010488
   156  H    1.001863
   157  H    1.002941
   158  H    1.006847
 Sum of Mulliken charges = 624.00000

 Dipole moment (field-independent basis, Debye):
    X=              4.4447    Y=              5.7576    Z=              7.1348  Tot=             10.1887
 Quadrupole moment (field-independent basis, Debye-Ang):
   XX=           -215.9971   YY=             -0.1764   ZZ=             -3.0899
   XY=           -155.7698   XZ=           -212.0957   YZ=             -1.5233

 Normal termination of Gaussian 16 at Fri Oct 15 13:40:27 2021.
